INSANE!
42816  
    1POPC   NC3    1  13.500   7.306  19.912  0.0291 -0.0262 -0.1897
    1POPC   PO4    2  13.867   7.264  19.980 -0.0503 -0.0980  0.0301
    1POPC   GL1    3  14.234   7.239  19.845  0.2510 -0.0591  0.0139
    1POPC   GL2    4  14.507   7.225  19.951  0.3873 -0.0601 -0.4826
    1POPC   C1A    5  14.333   6.978  19.453  0.0878 -0.4109 -0.0641
    1POPC   D2A    6  14.316   6.567  19.223  0.1195  0.0559 -0.1053
    1POPC   C3A    7  14.633   6.412  18.972  0.0172  0.4233  0.1798
    1POPC   C4A    8  14.610   6.045  18.621 -0.2848 -0.1030 -0.3233
    1POPC   C1B    9  14.974   7.210  19.950 -0.0148  0.2043  0.0640
    1POPC   C2B   10  15.256   6.962  19.707  0.0942  0.1288 -0.1204
    1POPC   C3B   11  15.515   6.662  19.476 -0.1799 -0.1826 -0.3818
    1POPC   C4B   12  15.998   6.672  19.394 -0.0376 -0.0726  0.1693
    2POPC   NC3   13  14.163  17.924  19.187 -0.1838 -0.1011  0.0900
    2POPC   PO4   14  14.474  17.877  19.416 -0.2736  0.1181 -0.1443
    2POPC   GL1   15  14.578  17.782  19.057 -0.1512  0.1233  0.1180
    2POPC   GL2   16  14.794  17.790  18.902  0.4911  0.0097 -0.0316
    2POPC   C1A   17  14.324  17.582  18.696 -0.0430  0.2446  0.2317
    2POPC   D2A   18  14.308  17.127  18.491 -0.0240 -0.1175 -0.2258
    2POPC   C3A   19  14.549  16.913  18.159  0.1734 -0.0600  0.0567
    2POPC   C4A   20  14.934  17.023  17.879 -0.1122  0.1396  0.2318
    2POPC   C1B   21  14.957  17.447  18.599 -0.1554  0.0635  0.0427
    2POPC   C2B   22  15.137  17.431  18.172 -0.0251  0.0012  0.0044
    2POPC   C3B   23  15.350  17.318  17.748 -0.0307 -0.0366 -0.2132
    2POPC   C4B   24  15.580  17.001  17.468 -0.0445 -0.1637 -0.1038
    3POPC   NC3   25  12.936  26.777  19.374 -0.0688 -0.1999 -0.0372
    3POPC   PO4   26  13.169  26.619  19.678  0.3758  0.0770 -0.2020
    3POPC   GL1   27  13.442  26.621  19.343  0.1485 -0.3534  0.0009
    3POPC   GL2   28  13.387  26.943  19.244 -0.1976  0.1052  0.2816
    3POPC   C1A   29  13.773  26.561  19.026  0.0990  0.2489 -0.0156
    3POPC   D2A   30  13.884  26.636  18.589 -0.2157  0.2708  0.0414
    3POPC   C3A   31  13.522  26.777  18.327  0.0681  0.2834 -0.0830
    3POPC   C4A   32  13.098  27.034  18.190 -0.0709  0.2857  0.0305
    3POPC   C1B   33  13.257  26.630  18.910 -0.1430 -0.0577 -0.0692
    3POPC   C2B   34  13.135  26.462  18.535 -0.1861 -0.0042  0.1933
    3POPC   C3B   35  13.041  26.453  18.116 -0.0572 -0.0185 -0.0011
    3POPC   C4B   36  13.154  26.362  17.661 -0.0721 -0.0177  0.0274
    4POPC   NC3   37   4.287   6.760  19.503 -0.0023  0.2127  0.0713
    4POPC   PO4   38   4.472   6.424  19.457 -0.0921  0.1331 -0.0621
    4POPC   GL1   39   4.396   6.669  19.059  0.2646  0.0170 -0.1513
    4POPC   GL2   40   4.552   6.556  18.931  0.1334 -0.0329 -0.0092
    4POPC   C1A   41   4.346   7.039  18.865 -0.2468 -0.0379  0.0565
    4POPC   D2A   42   4.660   7.363  18.767 -0.0019 -0.4161 -0.0794
    4POPC   C3A   43   4.488   7.600  18.417 -0.1466  0.2610 -0.2148
    4POPC   C4A   44   4.410   7.550  17.966  0.2794 -0.0009 -0.1566
    4POPC   C1B   45   4.291   6.614  18.562 -0.0071 -0.1325  0.3050
    4POPC   C2B   46   4.371   6.570  18.058  0.2480  0.0150 -0.2038
    4POPC   C3B   47   4.576   6.286  17.716  0.1919 -0.1977 -0.2719
    4POPC   C4B   48   4.489   5.897  17.608 -0.2289  0.1738 -0.2983
    5POPC   NC3   49   8.674   7.141  19.592  0.2560  0.1737  0.2159
    5POPC   PO4   50   8.334   7.082  19.418  0.0952 -0.1774  0.1378
    5POPC   GL1   51   8.491   7.111  19.082 -0.0111  0.1891  0.2552
    5POPC   GL2   52   8.700   7.344  18.996 -0.2518  0.3026 -0.1160
    5POPC   C1A   53   8.430   7.000  18.620 -0.2240  0.2437 -0.4630
    5POPC   D2A   54   8.213   6.924  18.245 -0.1173  0.2258 -0.1731
    5POPC   C3A   55   8.224   6.994  17.814  0.0927  0.0335  0.0760
    5POPC   C4A   56   8.078   7.152  17.393  0.0034  0.1408 -0.1971
    5POPC   C1B   57   8.736   7.447  18.526  0.2729  0.1707 -0.3109
    5POPC   C2B   58   9.007   7.579  18.172  0.0394 -0.2699 -0.1434
    5POPC   C3B   59   9.308   7.924  18.064  0.1439 -0.1096  0.1736
    5POPC   C4B   60   9.664   8.098  17.841  0.0341  0.0482  0.3311
    6POPC   NC3   61   8.240  25.209  19.483  0.0590  0.0644 -0.1147
    6POPC   PO4   62   7.868  25.040  19.332 -0.1473  0.0716 -0.1041
    6POPC   GL1   63   7.729  25.202  18.967  0.0917 -0.2479 -0.2578
    6POPC   GL2   64   7.863  25.123  18.727 -0.2287 -0.3676  0.1183
    6POPC   C1A   65   7.377  25.124  18.626 -0.1360 -0.0549  0.1469
    6POPC   D2A   66   6.981  25.256  18.407  0.1383  0.2196  0.1807
    6POPC   C3A   67   6.989  25.279  17.963  0.1541  0.1558 -0.0350
    6POPC   C4A   68   6.999  25.357  17.495 -0.3475 -0.1707 -0.0690
    6POPC   C1B   69   7.888  25.082  18.298 -0.3886  0.0535  0.1133
    6POPC   C2B   70   7.822  25.059  17.855 -0.0904  0.1886 -0.1495
    6POPC   C3B   71   7.918  24.797  17.448  0.1330  0.1610  0.0633
    6POPC   C4B   72   7.739  24.890  17.008 -0.2415 -0.0441 -0.0625
    7POPC   NC3   73  13.396  11.133  19.064 -0.1680 -0.0441 -0.0649
    7POPC   PO4   74  13.035  11.251  19.106  0.0569 -0.0278  0.1351
    7POPC   GL1   75  13.028  11.262  18.687 -0.3765  0.3809 -0.1455
    7POPC   GL2   76  12.790  11.274  18.569 -0.2932  0.2935 -0.3790
    7POPC   C1A   77  13.261  11.376  18.289  0.1790  0.1002  0.0069
    7POPC   D2A   78  13.368  11.365  17.857 -0.1014  0.1098 -0.1396
    7POPC   C3A   79  13.113  11.287  17.445 -0.1533 -0.0893 -0.3498
    7POPC   C4A   80  13.127  11.436  16.925 -0.0636  0.1190  0.2195
    7POPC   C1B   81  12.824  11.175  18.131 -0.2602  0.1393 -0.1709
    7POPC   C2B   82  12.716  11.068  17.704 -0.3615 -0.1711  0.1301
    7POPC   C3B   83  12.386  10.833  17.422 -0.5665  0.0214 -0.0758
    7POPC   C4B   84  12.326  10.574  17.063 -0.2772 -0.4502  0.3073
    8POPC   NC3   85   1.558   8.606  19.614 -0.1404  0.0785  0.0154
    8POPC   PO4   86   1.869   8.356  19.607 -0.1199  0.2508  0.0933
    8POPC   GL1   87   1.773   8.338  19.236 -0.1875 -0.2304 -0.0677
    8POPC   GL2   88   1.477   8.312  19.230 -0.0782  0.2170 -0.1850
    8POPC   C1A   89   1.695   8.068  18.867  0.0454  0.2007 -0.3775
    8POPC   D2A   90   1.767   8.093  18.385  0.1061  0.0789 -0.1582
    8POPC   C3A   91   1.542   7.857  18.110  0.0310 -0.0593  0.0361
    8POPC   C4A   92   1.237   7.670  17.761  0.0017 -0.1585  0.2160
    8POPC   C1B   93   1.291   8.341  18.850  0.2737 -0.0242 -0.0774
    8POPC   C2B   94   1.255   8.140  18.426 -0.0525  0.0291  0.0983
    8POPC   C3B   95   1.054   8.049  18.054 -0.0416 -0.3571 -0.0784
    8POPC   C4B   96   0.931   8.172  17.642 -0.3201  0.1577  0.3397
    9POPC   NC3   97  10.264   8.987  19.957  0.1234  0.0356 -0.3367
    9POPC   PO4   98   9.988   9.224  20.038  0.1948 -0.0056  0.1654
    9POPC   GL1   99   9.783   8.903  19.720  0.2074 -0.0494  0.2998
    9POPC   GL2  100   9.846   8.648  19.868 -0.1558  0.1239  0.1258
    9POPC   C1A  101   9.631   8.798  19.279 -0.2166  0.0867 -0.0945
    9POPC   D2A  102   9.238   8.829  19.217  0.0592  0.2128 -0.0640
    9POPC   C3A  103   8.970   8.447  19.284 -0.1768  0.0288  0.0562
    9POPC   C4A  104   8.958   8.100  19.557 -0.0452 -0.0904  0.0051
    9POPC   C1B  105  10.132   8.612  19.498 -0.1606  0.1653  0.0343
    9POPC   C2B  106  10.076   8.782  19.024  0.0172 -0.0674 -0.2396
    9POPC   C3B  107  10.196   9.109  18.753  0.1481 -0.0659  0.0387
    9POPC   C4B  108  10.242   9.529  18.560  0.3819  0.0599 -0.3488
   10POPC   NC3  109  15.467  13.956  19.327 -0.0573  0.0893  0.1805
   10POPC   PO4  110  15.210  13.903  18.988 -0.1945  0.3165  0.1840
   10POPC   GL1  111  14.980  13.905  18.689 -0.2446 -0.1474  0.0599
   10POPC   GL2  112  15.203  13.905  18.499  0.0017  0.1943 -0.2505
   10POPC   C1A  113  14.721  14.034  18.301 -0.2185  0.1171 -0.1215
   10POPC   D2A  114  14.320  14.010  18.040 -0.1480 -0.3022  0.1371
   10POPC   C3A  115  14.320  14.123  17.590 -0.0386 -0.0777 -0.0557
   10POPC   C4A  116  14.282  14.149  17.128  0.1457  0.0450  0.0065
   10POPC   C1B  117  15.172  13.804  18.019  0.2950  0.0077  0.0725
   10POPC   C2B  118  15.156  13.777  17.516  0.0434  0.1314  0.1755
   10POPC   C3B  119  15.203  13.984  17.077 -0.2356  0.0801 -0.1018
   10POPC   C4B  120  14.858  14.098  16.706 -0.0277  0.1946 -0.1049
   11POPC   NC3  121   3.849  28.972  19.127 -0.1287  0.0139  0.1068
   11POPC   PO4  122   4.138  29.136  19.353  0.0108  0.1614 -0.1275
   11POPC   GL1  123   4.277  28.984  18.963 -0.0019  0.0000  0.3043
   11POPC   GL2  124   4.500  28.770  18.899 -0.0928  0.0483  0.0902
   11POPC   C1A  125   4.252  28.870  18.500  0.1401 -0.1287  0.1707
   11POPC   D2A  126   4.462  28.636  18.182 -0.0394 -0.1793  0.1567
   11POPC   C3A  127   4.205  28.851  17.882 -0.1187  0.0614  0.1928
   11POPC   C4A  128   4.009  29.244  17.668  0.1272 -0.1368 -0.0963
   11POPC   C1B  129   4.853  28.517  18.787  0.0021 -0.1005 -0.0339
   11POPC   C2B  130   4.918  28.435  18.320 -0.0360 -0.4522 -0.3776
   11POPC   C3B  131   4.748  28.158  17.937 -0.0643  0.0060  0.0692
   11POPC   C4B  132   4.832  27.702  17.780  0.3775 -0.1303 -0.0858
   12POPC   NC3  133   8.826   9.001  19.445 -0.1084  0.2669 -0.0871
   12POPC   PO4  134   8.472   9.003  19.359 -0.0192 -0.1983 -0.1725
   12POPC   GL1  135   8.402   8.653  19.154 -0.0146  0.0617  0.3065
   12POPC   GL2  136   8.363   8.729  18.899 -0.1234  0.2125  0.1730
   12POPC   C1A  137   8.593   8.281  18.921  0.1132 -0.1107 -0.1371
   12POPC   D2A  138   8.868   7.907  19.009  0.0032 -0.3604  0.1337
   12POPC   C3A  139   9.144   7.738  18.670  0.3391 -0.0000 -0.0186
   12POPC   C4A  140   9.332   7.360  18.433  0.1589  0.1728 -0.0686
   12POPC   C1B  141   8.574   8.581  18.496 -0.0210  0.0783 -0.2601
   12POPC   C2B  142   8.714   8.444  18.125  0.0533  0.1889 -0.2539
   12POPC   C3B  143   9.129   8.410  17.957  0.0573 -0.2666 -0.1307
   12POPC   C4B  144   9.537   8.556  17.956  0.1480  0.1329 -0.0280
   13POPC   NC3  145   1.399   2.897  19.119 -0.1424 -0.1734 -0.0434
   13POPC   PO4  146   1.783   2.751  19.161  0.0874 -0.2160 -0.1024
   13POPC   GL1  147   1.910   2.665  18.778 -0.2190  0.4930  0.0912
   13POPC   GL2  148   1.650   2.805  18.708 -0.0708 -0.4870  0.2009
   13POPC   C1A  149   2.290   2.576  18.533 -0.2213 -0.1297  0.2555
   13POPC   D2A  150   2.267   2.545  18.057 -0.2510  0.2036  0.1837
   13POPC   C3A  151   2.112   2.447  17.614  0.0612 -0.2518  0.1762
   13POPC   C4A  152   2.248   2.429  17.170  0.2916 -0.0778 -0.2529
   13POPC   C1B  153   1.741   2.618  18.348  0.1288  0.1463 -0.1127
   13POPC   C2B  154   1.678   2.498  17.919 -0.0607  0.1306 -0.3082
   13POPC   C3B  155   1.533   2.324  17.483  0.0756 -0.2395  0.0386
   13POPC   C4B  156   1.319   2.081  17.213  0.2192  0.1921 -0.1313
   14POPC   NC3  157   9.471   4.942  19.778 -0.1997  0.2743 -0.0480
   14POPC   PO4  158   9.137   5.045  19.606  0.0976 -0.1501  0.1597
   14POPC   GL1  159   8.927   5.091  19.242  0.0153 -0.0827  0.0599
   14POPC   GL2  160   9.013   4.843  19.123 -0.0421  0.2711  0.3224
   14POPC   C1A  161   8.772   5.094  18.756  0.1572  0.1930 -0.2843
   14POPC   D2A  162   8.915   4.945  18.343 -0.1179 -0.0048  0.1691
   14POPC   C3A  163   8.697   4.952  17.975  0.0937  0.1794 -0.0820
   14POPC   C4A  164   8.834   4.977  17.554  0.0027  0.2250  0.2771
   14POPC   C1B  165   9.214   4.754  18.662  0.0429 -0.0170  0.1630
   14POPC   C2B  166   9.358   4.465  18.314 -0.0812 -0.0558 -0.1194
   14POPC   C3B  167   9.335   4.267  17.918 -0.0122 -0.0422 -0.2207
   14POPC   C4B  168   9.117   4.154  17.556  0.0533  0.6159 -0.1728
   15POPC   NC3  169   2.297  21.234  19.369 -0.0574 -0.0308 -0.0073
   15POPC   PO4  170   2.346  20.883  19.273  0.1843 -0.1682  0.0009
   15POPC   GL1  171   2.273  20.947  18.862 -0.0712  0.2867 -0.1604
   15POPC   GL2  172   2.501  21.121  18.790  0.2573 -0.0234 -0.0329
   15POPC   C1A  173   1.953  21.047  18.508  0.2137 -0.0535 -0.0365
   15POPC   D2A  174   2.029  21.056  18.082  0.3433 -0.3099  0.2367
   15POPC   C3A  175   1.896  20.718  17.862 -0.0522  0.1126 -0.4160
   15POPC   C4A  176   1.695  20.624  17.480 -0.1265 -0.0607  0.2400
   15POPC   C1B  177   2.383  20.976  18.408  0.0607  0.1720  0.1962
   15POPC   C2B  178   2.290  20.574  18.206 -0.0649  0.3024  0.2231
   15POPC   C3B  179   2.209  20.302  17.820  0.0051 -0.0841  0.3127
   15POPC   C4B  180   2.127  20.370  17.358 -0.1788 -0.3188 -0.0405
   16POPC   NC3  181   7.531  17.473  19.923 -0.0478  0.1616  0.1908
   16POPC   PO4  182   7.560  17.701  19.556 -0.1759 -0.0938  0.0244
   16POPC   GL1  183   7.653  17.841  19.159  0.3800  0.2498 -0.0107
   16POPC   GL2  184   7.579  17.546  19.078  0.0937 -0.1448 -0.0914
   16POPC   C1A  185   7.762  17.890  18.734 -0.4460  0.0562  0.2160
   16POPC   D2A  186   7.564  17.765  18.350  0.0693  0.0242 -0.1748
   16POPC   C3A  187   7.586  17.888  17.941  0.1926  0.0859 -0.0568
   16POPC   C4A  188   7.915  17.856  17.593 -0.2185  0.0022  0.0252
   16POPC   C1B  189   7.454  17.406  18.663  0.0413 -0.1161 -0.2109
   16POPC   C2B  190   7.744  17.275  18.293  0.0503  0.1264 -0.1331
   16POPC   C3B  191   7.793  17.327  17.831 -0.0110 -0.0270 -0.0930
   16POPC   C4B  192   7.938  17.253  17.422  0.0858  0.0029  0.0088
   17POPC   NC3  193   0.418  20.688  19.691 -0.2054  0.0013 -0.0316
   17POPC   PO4  194   0.738  20.970  19.589  0.0709 -0.3752  0.2425
   17POPC   GL1  195   0.903  20.970  19.245 -0.1822 -0.1302  0.3715
   17POPC   GL2  196   0.852  21.270  19.162  0.0393 -0.1461 -0.2227
   17POPC   C1A  197   0.856  20.762  18.819 -0.0968 -0.5677  0.0781
   17POPC   D2A  198   0.704  20.869  18.384 -0.2130  0.3014  0.0714
   17POPC   C3A  199   0.323  21.098  18.257 -0.0339  0.4927  0.2091
   17POPC   C4A  200  -0.045  21.241  18.060  0.1685  0.0239  0.4085
   17POPC   C1B  201   0.756  21.238  18.680 -0.0081 -0.2099  0.1199
   17POPC   C2B  202   0.732  21.461  18.317  0.0240  0.0866 -0.1164
   17POPC   C3B  203   0.522  21.360  17.906 -0.0164  0.0697  0.0365
   17POPC   C4B  204   0.110  21.477  17.641 -0.0116  0.1401  0.0774
   18POPC   NC3  205   4.196  18.123  19.113  0.3073  0.1050  0.0094
   18POPC   PO4  206   4.206  17.829  19.357 -0.1567  0.1643  0.1995
   18POPC   GL1  207   4.298  17.691  18.972  0.1295  0.0825  0.0362
   18POPC   GL2  208   4.085  17.492  19.048  0.0067 -0.0065  0.0844
   18POPC   C1A  209   4.397  17.462  18.566 -0.0469 -0.0578 -0.0287
   18POPC   D2A  210   4.261  17.049  18.437  0.0756 -0.1349 -0.1411
   18POPC   C3A  211   4.196  16.956  17.967 -0.0512 -0.1063  0.1704
   18POPC   C4A  212   4.148  17.190  17.605 -0.1069 -0.2492  0.0319
   18POPC   C1B  213   3.961  17.632  18.632  0.3466 -0.0514  0.0352
   18POPC   C2B  214   3.920  17.348  18.276 -0.2951 -0.1227  0.0541
   18POPC   C3B  215   3.783  16.904  18.212  0.0460  0.1040 -0.1971
   18POPC   C4B  216   3.884  16.540  17.971 -0.0517 -0.0418  0.2026
   19POPC   NC3  217  12.173  14.181  19.508 -0.0040  0.3109 -0.1501
   19POPC   PO4  218  12.105  13.804  19.355 -0.2128  0.1934  0.0642
   19POPC   GL1  219  12.071  13.697  18.930 -0.0829  0.1719  0.3280
   19POPC   GL2  220  11.924  13.448  18.802 -0.1260  0.2019  0.0237
   19POPC   C1A  221  11.884  13.873  18.550 -0.1681 -0.0072  0.0193
   19POPC   D2A  222  11.820  13.727  18.114 -0.2250 -0.2332  0.0549
   19POPC   C3A  223  11.946  13.760  17.657  0.0670 -0.0870 -0.1319
   19POPC   C4A  224  12.300  14.009  17.465 -0.0184  0.0899 -0.3650
   19POPC   C1B  225  12.137  13.506  18.370 -0.0126 -0.1406  0.3902
   19POPC   C2B  226  12.069  13.326  17.952  0.0621  0.0700  0.0668
   19POPC   C3B  227  12.045  13.010  17.540 -0.0368 -0.0558  0.0444
   19POPC   C4B  228  12.163  12.810  17.175  0.1432  0.0139  0.2388
   20POPC   NC3  229   5.970  23.239  19.212  0.2076 -0.0510  0.3532
   20POPC   PO4  230   6.038  22.899  19.439 -0.0182 -0.0728  0.1333
   20POPC   GL1  231   6.367  23.001  19.275  0.1586  0.0819  0.0537
   20POPC   GL2  232   6.312  22.902  19.029  0.0966  0.2728 -0.0007
   20POPC   C1A  233   6.444  23.384  19.086 -0.0683 -0.0976  0.0299
   20POPC   D2A  234   6.521  23.850  19.132  0.1423  0.2198 -0.1408
   20POPC   C3A  235   6.722  24.073  18.760 -0.3668 -0.0057 -0.0971
   20POPC   C4A  236   6.674  24.320  18.319 -0.1395  0.0754  0.1211
   20POPC   C1B  237   6.151  23.176  18.749  0.0807  0.0397  0.4029
   20POPC   C2B  238   6.226  23.269  18.279 -0.4576 -0.1633  0.0564
   20POPC   C3B  239   6.128  23.280  17.848 -0.3868 -0.2956  0.2081
   20POPC   C4B  240   6.107  22.880  17.615  0.1596  0.0275  0.0733
   21POPC   NC3  241   0.727  30.016  19.368  0.0813  0.2573 -0.0565
   21POPC   PO4  242   0.419  30.252  19.323 -0.0547  0.0643 -0.1462
   21POPC   GL1  243   0.161  30.170  18.975 -0.2426 -0.1578 -0.1011
   21POPC   GL2  244  -0.007  30.405  19.161  0.0377 -0.4486  0.4409
   21POPC   C1A  245   0.165  30.138  18.538  0.0022 -0.0803 -0.1709
   21POPC   D2A  246  -0.223  30.095  18.269  0.2217  0.0591  0.4304
   21POPC   C3A  247  -0.230  30.195  17.861 -0.0925  0.3517  0.0716
   21POPC   C4A  248  -0.418  30.325  17.468  0.1391  0.0302 -0.0187
   21POPC   C1B  249  -0.161  30.457  18.734  0.1299  0.2883  0.0158
   21POPC   C2B  250  -0.088  30.652  18.335  0.0487  0.0846 -0.2500
   21POPC   C3B  251  -0.027  30.677  17.869  0.2269  0.1432  0.2194
   21POPC   C4B  252  -0.054  30.643  17.432 -0.2465 -0.0038 -0.0403
   22POPC   NC3  253   9.814   6.551  19.225  0.2270 -0.1131 -0.2263
   22POPC   PO4  254   9.462   6.644  19.402  0.1608 -0.0643 -0.3719
   22POPC   GL1  255   9.561   6.867  19.095  0.1109 -0.2589  0.5166
   22POPC   GL2  256   9.815   7.061  19.052 -0.2090 -0.0219  0.0933
   22POPC   C1A  257   9.648   6.972  18.622 -0.2731  0.2449  0.0280
   22POPC   D2A  258   9.878   7.268  18.390  0.2453 -0.0856 -0.0148
   22POPC   C3A  259  10.132   7.586  18.403  0.0982 -0.1970 -0.1911
   22POPC   C4A  260  10.112   7.944  18.108 -0.1895 -0.3529 -0.0811
   22POPC   C1B  261   9.648   7.376  19.342 -0.1460 -0.1546  0.0042
   22POPC   C2B  262   9.581   7.759  19.514 -0.1046  0.5718  0.0703
   22POPC   C3B  263   9.542   8.203  19.538 -0.1546  0.0050  0.2114
   22POPC   C4B  264   9.306   8.583  19.651 -0.0914 -0.0224 -0.3646
   23POPC   NC3  265  13.465  27.379  19.859 -0.0187 -0.1360  0.1561
   23POPC   PO4  266  13.448  27.381  19.452  0.2791  0.0505 -0.4542
   23POPC   GL1  267  13.153  27.582  19.315  0.2419  0.2279 -0.0036
   23POPC   GL2  268  12.903  27.398  19.270 -0.1869  0.1188 -0.1601
   23POPC   C1A  269  13.010  27.606  18.855 -0.0277  0.0108 -0.1504
   23POPC   D2A  270  12.729  27.478  18.503  0.3838 -0.0439  0.0723
   23POPC   C3A  271  12.420  27.722  18.230  0.0232 -0.2888 -0.0303
   23POPC   C4A  272  12.234  27.540  17.848  0.1032 -0.2032 -0.1065
   23POPC   C1B  273  12.797  27.133  18.909 -0.1414 -0.1373 -0.0902
   23POPC   C2B  274  12.701  26.979  18.509 -0.1951 -0.0160 -0.1662
   23POPC   C3B  275  12.518  26.721  18.158 -0.2146  0.1275 -0.1294
   23POPC   C4B  276  12.250  26.401  17.885  0.2610 -0.1266 -0.1381
   24POPC   NC3  277   2.818  17.621  19.359  0.1557  0.0277  0.2453
   24POPC   PO4  278   3.062  17.921  19.363 -0.2065  0.0895 -0.0038
   24POPC   GL1  279   2.878  17.868  18.935  0.1528 -0.0902  0.2600
   24POPC   GL2  280   3.088  17.668  18.938  0.3984 -0.1778 -0.0035
   24POPC   C1A  281   2.747  17.810  18.480  0.2364  0.1244 -0.3230
   24POPC   D2A  282   2.490  17.695  18.133 -0.1687 -0.1131 -0.1072
   24POPC   C3A  283   2.577  17.523  17.685  0.1511  0.0452 -0.0803
   24POPC   C4A  284   2.449  17.614  17.246 -0.2127  0.0432  0.0057
   24POPC   C1B  285   3.260  17.759  18.515 -0.2931  0.0350  0.1416
   24POPC   C2B  286   3.466  17.779  18.157 -0.1347 -0.0501 -0.0271
   24POPC   C3B  287   3.646  17.801  17.799 -0.2584 -0.1677 -0.1219
   24POPC   C4B  288   3.717  18.007  17.398  0.0594  0.1126 -0.0828
   25POPC   NC3  289   5.337   9.460  19.060 -0.0833  0.1994 -0.1267
   25POPC   PO4  290   5.638   9.238  18.994 -0.0696  0.1398 -0.0731
   25POPC   GL1  291   5.624   9.517  18.663  0.0740 -0.2055 -0.3486
   25POPC   GL2  292   5.336   9.395  18.564 -0.1671  0.0848  0.3567
   25POPC   C1A  293   5.702   9.423  18.187 -0.3424 -0.2251 -0.2193
   25POPC   D2A  294   5.567   9.287  17.773 -0.0130 -0.0526 -0.0791
   25POPC   C3A  295   5.828   9.508  17.520  0.2140  0.0438 -0.1566
   25POPC   C4A  296   5.743   9.831  17.177 -0.2109  0.0040  0.4531
   25POPC   C1B  297   5.209   9.232  18.180 -0.0702 -0.1398  0.1088
   25POPC   C2B  298   5.164   9.031  17.802  0.3077  0.0555  0.2595
   25POPC   C3B  299   5.397   9.053  17.371  0.1752 -0.0479  0.1528
   25POPC   C4B  300   5.268   9.102  16.911  0.0285  0.1146  0.0185
   26POPC   NC3  301  15.451  15.010  19.313  0.1329  0.0536  0.0959
   26POPC   PO4  302  15.798  15.146  19.336 -0.1799  0.1404  0.1433
   26POPC   GL1  303  15.787  15.309  19.047 -0.1533  0.7154  0.1513
   26POPC   GL2  304  16.068  15.360  18.926  0.3553  0.2108 -0.1575
   26POPC   C1A  305  15.677  15.439  18.628  0.2481 -0.3517 -0.3452
   26POPC   D2A  306  15.585  15.772  18.343  0.0789 -0.1731 -0.0493
   26POPC   C3A  307  15.628  16.136  18.038 -0.0431  0.2134  0.1648
   26POPC   C4A  308  15.921  16.464  18.098  0.1638 -0.0444  0.1505
   26POPC   C1B  309  16.082  15.198  18.505 -0.1477 -0.1330  0.0511
   26POPC   C2B  310  15.977  15.344  18.063 -0.1069  0.0857  0.1126
   26POPC   C3B  311  15.651  15.596  17.828 -0.0856 -0.0072 -0.1366
   26POPC   C4B  312  15.268  15.773  17.874 -0.0345  0.0898  0.3880
   27POPC   NC3  313  10.007  20.541  19.671  0.1018  0.0329  0.0186
   27POPC   PO4  314   9.785  20.632  19.991  0.1629 -0.2586  0.0563
   27POPC   GL1  315   9.632  20.846  19.635  0.3389 -0.2064 -0.1667
   27POPC   GL2  316   9.500  20.608  19.509  0.2344  0.1898 -0.1136
   27POPC   C1A  317   9.409  21.070  19.257  0.0102 -0.0991 -0.3149
   27POPC   D2A  318   9.229  21.205  18.855  0.1930 -0.2222 -0.3164
   27POPC   C3A  319   8.968  20.851  18.618 -0.0392  0.0566 -0.1134
   27POPC   C4A  320   8.583  20.587  18.663  0.1874 -0.0292  0.3236
   27POPC   C1B  321   9.196  20.611  19.099  0.0440 -0.2176  0.1587
   27POPC   C2B  322   9.021  20.333  18.776  0.0448  0.0024  0.2437
   27POPC   C3B  323   9.002  20.357  18.299  0.0918  0.0913  0.2285
   27POPC   C4B  324   9.344  20.372  17.976  0.0247 -0.2152 -0.1254
   28POPC   NC3  325   9.511   4.140  19.221 -0.0840  0.4617  0.1818
   28POPC   PO4  326   9.585   3.787  19.071 -0.0410 -0.1100 -0.3488
   28POPC   GL1  327   9.556   3.625  18.679  0.1297  0.0967  0.0401
   28POPC   GL2  328   9.623   3.316  18.765 -0.0098 -0.1173  0.2261
   28POPC   C1A  329   9.462   3.884  18.263 -0.1831 -0.1858 -0.1604
   28POPC   D2A  330   9.278   3.724  17.870  0.1165  0.0176  0.2561
   28POPC   C3A  331   9.059   3.628  17.483 -0.3035  0.1039  0.0195
   28POPC   C4A  332   8.627   3.621  17.265  0.1563 -0.4965  0.2703
   28POPC   C1B  333   9.373   3.297  18.433 -0.2549  0.0475  0.4102
   28POPC   C2B  334   9.146   3.232  17.980 -0.1638  0.2835 -0.0141
   28POPC   C3B  335   8.769   3.231  17.669  0.0863  0.1617  0.2006
   28POPC   C4B  336   8.428   3.190  17.371  0.0043 -0.0085  0.0945
   29POPC   NC3  337   6.671   6.432  18.982  0.1544  0.4437 -0.1272
   29POPC   PO4  338   6.313   6.326  19.156  0.1656  0.3042 -0.3595
   29POPC   GL1  339   6.188   6.093  18.827 -0.0829 -0.0222  0.5050
   29POPC   GL2  340   6.452   5.816  18.801 -0.1579 -0.0888 -0.0918
   29POPC   C1A  341   6.059   6.135  18.426 -0.2373  0.0120  0.1760
   29POPC   D2A  342   6.004   6.020  17.989 -0.1027  0.1759 -0.1868
   29POPC   C3A  343   6.159   6.287  17.614  0.1194 -0.0177 -0.0745
   29POPC   C4A  344   5.989   6.436  17.249 -0.1619  0.0377  0.1597
   29POPC   C1B  345   6.383   5.735  18.331  0.0508  0.1782 -0.1017
   29POPC   C2B  346   6.397   5.774  17.871 -0.1321  0.1367  0.0496
   29POPC   C3B  347   6.627   5.618  17.510  0.0404 -0.1455 -0.0234
   29POPC   C4B  348   6.827   5.484  17.096 -0.2963 -0.2142 -0.1011
   30POPC   NC3  349   5.745  12.633  19.265 -0.1377 -0.1038  0.0552
   30POPC   PO4  350   5.557  12.237  19.379  0.1304 -0.3068  0.1814
   30POPC   GL1  351   5.822  12.248  18.976 -0.0101 -0.3984  0.2633
   30POPC   GL2  352   6.056  12.387  18.901  0.0757 -0.0402 -0.2303
   30POPC   C1A  353   5.894  11.974  18.591  0.0477 -0.0658 -0.1649
   30POPC   D2A  354   5.753  11.757  18.261  0.2057 -0.2858 -0.1921
   30POPC   C3A  355   5.971  11.412  17.999 -0.0879 -0.0122  0.0437
   30POPC   C4A  356   6.297  11.314  17.748 -0.1259  0.0350 -0.1677
   30POPC   C1B  357   6.007  12.776  18.605 -0.3188  0.2646  0.0878
   30POPC   C2B  358   6.114  13.050  18.245 -0.2343  0.2643  0.3425
   30POPC   C3B  359   6.152  13.192  17.827  0.1031  0.0284  0.2508
   30POPC   C4B  360   6.151  13.538  17.536  0.1535  0.1223 -0.3086
   31POPC   NC3  361   9.013   1.092  19.156 -0.2858  0.0785  0.0777
   31POPC   PO4  362   8.746   0.820  19.056  0.1932 -0.0896 -0.0538
   31POPC   GL1  363   8.597   1.063  18.834 -0.2405 -0.1173  0.2387
   31POPC   GL2  364   8.546   0.819  18.592  0.0603  0.1862 -0.0671
   31POPC   C1A  365   8.724   1.313  18.479 -0.0519 -0.0615 -0.1307
   31POPC   D2A  366   8.892   1.507  18.141  0.1213 -0.0479 -0.0580
   31POPC   C3A  367   8.675   1.851  17.982  0.0784 -0.3313  0.0473
   31POPC   C4A  368   8.408   1.980  17.613 -0.3568  0.0183 -0.0089
   31POPC   C1B  369   8.811   0.942  18.184 -0.0787 -0.3520  0.0536
   31POPC   C2B  370   8.846   1.228  17.796 -0.1981  0.1783  0.1858
   31POPC   C3B  371   8.771   1.568  17.468  0.1957 -0.0818 -0.4420
   31POPC   C4B  372   8.564   1.578  17.093 -0.0957  0.0007 -0.2361
   32POPC   NC3  373  13.431   6.502  19.349 -0.4277  0.1203  0.1848
   32POPC   PO4  374  13.076   6.594  19.306 -0.4318  0.0401  0.0865
   32POPC   GL1  375  13.258   6.797  18.996 -0.0533  0.3766 -0.2335
   32POPC   GL2  376  13.447   6.665  18.879 -0.0799  0.0773  0.0709
   32POPC   C1A  377  13.171   6.966  18.530 -0.1804 -0.0465 -0.0017
   32POPC   D2A  378  13.311   7.038  18.113 -0.2963  0.3469 -0.2602
   32POPC   C3A  379  13.750   7.164  18.008 -0.0525  0.0497  0.0908
   32POPC   C4A  380  14.144   7.021  17.774 -0.0372  0.1979  0.3864
   32POPC   C1B  381  13.892   6.700  18.826 -0.0615 -0.0341 -0.0627
   32POPC   C2B  382  14.267   6.701  18.630 -0.0812  0.0001  0.0257
   32POPC   C3B  383  14.678   6.621  18.431 -0.0828  0.3860  0.0038
   32POPC   C4B  384  15.047   6.422  18.378 -0.1625 -0.5675 -0.1327
   33POPC   NC3  385  10.180  19.627  19.775 -0.0642  0.2719 -0.0669
   33POPC   PO4  386  10.398  19.897  19.921 -0.2739 -0.1431  0.1615
   33POPC   GL1  387  10.128  19.997  19.517 -0.1999 -0.0070 -0.0099
   33POPC   GL2  388  10.423  20.270  19.459  0.1605 -0.0734  0.4174
   33POPC   C1A  389   9.701  20.136  19.436  0.0349 -0.2117  0.4044
   33POPC   D2A  390   9.399  20.186  19.120 -0.1367 -0.3137  0.1083
   33POPC   C3A  391   9.311  19.896  18.781  0.2756 -0.2194 -0.0851
   33POPC   C4A  392   8.918  19.846  18.628  0.2136  0.0081 -0.0718
   33POPC   C1B  393  10.277  20.156  19.063 -0.0088  0.2424  0.3059
   33POPC   C2B  394   9.913  20.107  18.730  0.0760 -0.3275 -0.3072
   33POPC   C3B  395   9.545  20.125  18.414 -0.0869 -0.0690  0.0027
   33POPC   C4B  396   9.300  19.875  18.161 -0.0530  0.2660 -0.1784
   34POPC   NC3  397   0.735   3.290  19.124 -0.1921 -0.0168 -0.0984
   34POPC   PO4  398   1.157   3.398  19.101  0.1086  0.1857 -0.0233
   34POPC   GL1  399   1.150   3.548  18.719  0.0557 -0.4506  0.1017
   34POPC   GL2  400   0.927   3.655  18.728 -0.0567  0.0265 -0.0580
   34POPC   C1A  401   1.260   3.400  18.267 -0.0106 -0.3094  0.1664
   34POPC   D2A  402   1.499   3.074  18.003 -0.1285 -0.1171 -0.0042
   34POPC   C3A  403   1.250   2.807  17.726 -0.0351 -0.4212 -0.2404
   34POPC   C4A  404   1.195   2.659  17.332  0.2840  0.1023 -0.3477
   34POPC   C1B  405   0.817   3.689  18.267 -0.0857 -0.1156  0.0042
   34POPC   C2B  406   0.756   3.536  17.880 -0.1774 -0.1658  0.1396
   34POPC   C3B  407   0.880   3.492  17.480 -0.0066  0.0568 -0.0024
   34POPC   C4B  408   1.062   3.625  17.037 -0.2150  0.0096  0.1408
   35POPC   NC3  409   7.649  22.383  19.536  0.2657  0.1138 -0.0593
   35POPC   PO4  410   7.896  22.481  19.249  0.1742  0.0739  0.0671
   35POPC   GL1  411   7.842  22.430  18.843  0.1591 -0.2412 -0.0859
   35POPC   GL2  412   7.528  22.597  18.817 -0.0297  0.1447 -0.3913
   35POPC   C1A  413   8.065  22.578  18.531  0.1410 -0.0463  0.3687
   35POPC   D2A  414   7.910  22.707  18.100  0.0992  0.0655 -0.2027
   35POPC   C3A  415   8.188  22.641  17.701  0.3892  0.1858  0.2780
   35POPC   C4A  416   8.451  22.540  17.369  0.1718  0.4795 -0.1019
   35POPC   C1B  417   7.529  22.577  18.406  0.2969  0.3171 -0.1471
   35POPC   C2B  418   7.444  22.374  18.015  0.2941  0.0515 -0.4849
   35POPC   C3B  419   7.461  22.468  17.584 -0.0798 -0.2094  0.0497
   35POPC   C4B  420   7.265  22.491  17.171  0.2930  0.0647  0.1887
   36POPC   NC3  421  12.170  31.125  19.349  0.3971  0.1419  0.0892
   36POPC   PO4  422  12.528  31.257  19.450  0.2141  0.2299 -0.0023
   36POPC   GL1  423  12.645  31.279  19.087  0.1774  0.0516 -0.0450
   36POPC   GL2  424  12.694  30.983  19.053 -0.0261  0.2006 -0.1374
   36POPC   C1A  425  12.600  31.423  18.677 -0.2125 -0.0533  0.1487
   36POPC   D2A  426  12.830  31.491  18.240  0.1549  0.3538  0.0591
   36POPC   C3A  427  12.564  31.502  17.918  0.2184  0.1007  0.1585
   36POPC   C4A  428  12.373  31.112  17.604  0.1274  0.0358  0.1742
   36POPC   C1B  429  12.289  31.007  18.885 -0.0197  0.0229  0.1240
   36POPC   C2B  430  12.190  31.242  18.472 -0.1264 -0.2119  0.0698
   36POPC   C3B  431  12.165  31.292  18.068 -0.0862  0.1923  0.3936
   36POPC   C4B  432  11.816  31.140  17.804 -0.2944  0.3464 -0.3135
   37POPC   NC3  433  15.749  13.197  19.535  0.2433  0.1040 -0.2568
   37POPC   PO4  434  15.762  13.557  19.305 -0.2352 -0.1184  0.1919
   37POPC   GL1  435  15.652  13.729  18.939 -0.1292 -0.2373  0.0014
   37POPC   GL2  436  15.880  13.648  18.789 -0.2641  0.3127  0.3796
   37POPC   C1A  437  15.670  14.036  18.540  0.3268  0.0618 -0.2419
   37POPC   D2A  438  15.742  14.073  18.086  0.2513 -0.1719  0.2177
   37POPC   C3A  439  15.587  13.811  17.740  0.0857  0.1222  0.2492
   37POPC   C4A  440  15.575  13.618  17.286 -0.0299  0.0229 -0.0202
   37POPC   C1B  441  15.589  13.557  18.368  0.0890  0.0612  0.1538
   37POPC   C2B  442  15.515  13.384  17.953 -0.2333 -0.2364  0.3517
   37POPC   C3B  443  15.478  12.969  17.831 -0.1276  0.1627 -0.0644
   37POPC   C4B  444  15.330  12.615  17.548  0.1589 -0.0718  0.1379
   38POPC   NC3  445  12.380  28.275  18.971  0.1268  0.5753  0.0229
   38POPC   PO4  446  12.468  28.617  19.163  0.2884  0.0270  0.0071
   38POPC   GL1  447  12.310  28.639  18.831 -0.2179 -0.4308  0.0431
   38POPC   GL2  448  12.074  28.640  18.754  0.2105  0.1662 -0.0326
   38POPC   C1A  449  12.477  28.720  18.385 -0.0668  0.2122 -0.2726
   38POPC   D2A  450  12.739  28.410  18.186  0.2406  0.1240 -0.0821
   38POPC   C3A  451  12.477  28.099  17.918 -0.0061 -0.2666  0.0875
   38POPC   C4A  452  12.482  27.885  17.515 -0.0979 -0.0402 -0.1205
   38POPC   C1B  453  11.698  28.683  18.567  0.0948 -0.1669  0.0725
   38POPC   C2B  454  11.333  28.650  18.242  0.0412 -0.2325 -0.2034
   38POPC   C3B  455  10.993  28.544  17.916 -0.1175 -0.1302 -0.1602
   38POPC   C4B  456  10.657  28.348  17.619 -0.0924 -0.1182 -0.2823
   39POPC   NC3  457   7.250   7.371  19.353  0.2456 -0.0067 -0.0131
   39POPC   PO4  458   7.317   6.968  19.289  0.1399  0.3157  0.2036
   39POPC   GL1  459   7.431   7.185  18.946 -0.0747  0.0396  0.0495
   39POPC   GL2  460   7.502   6.996  18.771 -0.1778 -0.2279 -0.2880
   39POPC   C1A  461   7.530   7.443  18.565  0.1530  0.0937 -0.0687
   39POPC   D2A  462   7.858   7.335  18.248  0.1005  0.1081 -0.2507
   39POPC   C3A  463   7.786   7.204  17.823 -0.0456 -0.2082 -0.1476
   39POPC   C4A  464   7.443   6.909  17.843 -0.0609  0.2665  0.2736
   39POPC   C1B  465   7.251   6.784  18.496 -0.3897  0.0421  0.0293
   39POPC   C2B  466   7.050   6.898  18.132  0.0149  0.0637  0.1154
   39POPC   C3B  467   6.665   6.848  17.871  0.0605  0.0665  0.0285
   39POPC   C4B  468   6.583   6.502  17.572 -0.1077 -0.1824 -0.0791
   40POPC   NC3  469   4.709  13.284  19.143  0.1098  0.1999 -0.1981
   40POPC   PO4  470   4.487  13.031  19.006  0.3198  0.1405  0.0195
   40POPC   GL1  471   4.743  13.065  18.668 -0.2045  0.1005  0.0818
   40POPC   GL2  472   4.597  13.299  18.646 -0.1154  0.2021 -0.0529
   40POPC   C1A  473   4.891  12.798  18.305  0.1834  0.3757 -0.1132
   40POPC   D2A  474   4.919  12.570  17.892 -0.2237  0.1332 -0.0775
   40POPC   C3A  475   4.755  12.783  17.515  0.0091 -0.3625  0.1358
   40POPC   C4A  476   4.479  13.000  17.241  0.1736 -0.0773  0.1074
   40POPC   C1B  477   4.885  13.426  18.390  0.0358 -0.2599 -0.1719
   40POPC   C2B  478   5.115  13.493  17.995  0.0453 -0.0906 -0.2142
   40POPC   C3B  479   5.210  13.441  17.558  0.3962  0.0403  0.2218
   40POPC   C4B  480   5.378  13.327  17.108 -0.3121 -0.1803  0.0624
   41POPC   NC3  481   7.587  10.025  18.902  0.0396 -0.1056  0.0719
   41POPC   PO4  482   7.857   9.730  18.975  0.1096 -0.3957 -0.0370
   41POPC   GL1  483   8.007   9.755  18.591  0.2690  0.0356  0.3771
   41POPC   GL2  484   7.950   9.510  18.557  0.1565  0.1903 -0.1815
   41POPC   C1A  485   8.001   9.797  18.117 -0.1094  0.0353 -0.2827
   41POPC   D2A  486   8.185   9.659  17.665  0.0793  0.6073  0.1284
   41POPC   C3A  487   8.027   9.758  17.292 -0.1934  0.1471  0.2518
   41POPC   C4A  488   8.214   9.841  16.873 -0.2848 -0.0980  0.0483
   41POPC   C1B  489   8.071   9.288  18.172  0.3167  0.2413  0.0765
   41POPC   C2B  490   8.400   9.020  18.025  0.1930 -0.3356  0.0054
   41POPC   C3B  491   8.589   8.700  17.720 -0.4463 -0.1402  0.0445
   41POPC   C4B  492   8.443   8.503  17.371 -0.0189  0.0981  0.0652
   42POPC   NC3  493  15.759   8.724  19.241 -0.0499  0.0953  0.3688
   42POPC   PO4  494  16.042   8.911  19.132  0.3895  0.0939 -0.0540
   42POPC   GL1  495  16.282   8.748  18.917  0.0325 -0.2226  0.1534
   42POPC   GL2  496  16.211   8.466  18.931 -0.2644  0.0581  0.0354
   42POPC   C1A  497  16.390   8.638  18.459  0.0978 -0.0806 -0.1754
   42POPC   D2A  498  16.461   8.549  18.009  0.2436  0.1280  0.0379
   42POPC   C3A  499  16.212   8.251  17.742 -0.0714  0.3377 -0.1818
   42POPC   C4A  500  16.325   8.005  17.333  0.0523  0.1202  0.2414
   42POPC   C1B  501  16.089   8.160  18.586  0.2174  0.0866  0.1238
   42POPC   C2B  502  15.850   7.967  18.222  0.1567  0.3244  0.3413
   42POPC   C3B  503  15.940   7.805  17.815 -0.4033 -0.2400 -0.2036
   42POPC   C4B  504  15.645   7.670  17.511 -0.0584  0.1601 -0.1878
   43POPC   NC3  505  14.011  18.776  19.342  0.3235  0.0832 -0.2584
   43POPC   PO4  506  14.059  18.425  19.366  0.1754 -0.2974  0.0401
   43POPC   GL1  507  14.298  18.351  19.099  0.3878  0.2617  0.1180
   43POPC   GL2  508  14.238  18.545  18.912  0.1735  0.0953  0.0587
   43POPC   C1A  509  14.480  18.126  18.710 -0.4387 -0.1025 -0.0837
   43POPC   D2A  510  14.394  17.961  18.300  0.1866  0.0192  0.3151
   43POPC   C3A  511  14.596  17.486  18.302  0.1122  0.0058 -0.3276
   43POPC   C4A  512  14.473  17.326  17.896 -0.0334 -0.0845 -0.2793
   43POPC   C1B  513  14.222  18.443  18.441 -0.1492 -0.2446  0.2741
   43POPC   C2B  514  14.277  18.321  17.973 -0.3344  0.1699 -0.3112
   43POPC   C3B  515  14.580  18.475  17.643 -0.1881  0.0728 -0.1459
   43POPC   C4B  516  14.681  18.510  17.210  0.1150  0.0660  0.0345
   44POPC   NC3  517   2.379  16.340  19.751 -0.1900  0.0753 -0.0492
   44POPC   PO4  518   2.534  16.235  19.384  0.1076 -0.1820  0.0094
   44POPC   GL1  519   2.559  16.212  18.983 -0.3439  0.2864  0.2073
   44POPC   GL2  520   2.539  16.479  18.906 -0.1529 -0.1595 -0.2172
   44POPC   C1A  521   2.288  16.149  18.627 -0.2257 -0.5060 -0.1547
   44POPC   D2A  522   1.856  16.339  18.558  0.1272  0.0610 -0.1871
   44POPC   C3A  523   1.600  16.176  18.215 -0.0645 -0.1757 -0.3149
   44POPC   C4A  524   1.299  15.989  17.917 -0.0096  0.0208 -0.0408
   44POPC   C1B  525   2.601  16.617  18.447 -0.0410 -0.2603 -0.2173
   44POPC   C2B  526   2.682  16.567  17.988 -0.1526  0.0955  0.0277
   44POPC   C3B  527   2.956  16.733  17.670 -0.0126  0.0683  0.2166
   44POPC   C4B  528   3.016  16.511  17.308  0.0479 -0.0056  0.0545
   45POPC   NC3  529  11.412  21.338  19.936 -0.1448  0.0894  0.0352
   45POPC   PO4  530  11.328  21.545  19.647  0.3292 -0.0523 -0.0826
   45POPC   GL1  531  11.523  21.444  19.359 -0.3912  0.0731  0.2691
   45POPC   GL2  532  11.535  21.163  19.239  0.0629 -0.1642  0.1596
   45POPC   C1A  533  11.333  21.467  18.926 -0.1193 -0.1840  0.1837
   45POPC   D2A  534  11.174  21.372  18.492  0.2001  0.2658 -0.0609
   45POPC   C3A  535  11.547  21.317  18.188 -0.0995 -0.0501  0.0657
   45POPC   C4A  536  11.554  21.397  17.735  0.3274  0.1491  0.4562
   45POPC   C1B  537  11.427  21.013  18.795  0.0153 -0.2103  0.1372
   45POPC   C2B  538  11.292  20.930  18.382 -0.0383  0.1699  0.0017
   45POPC   C3B  539  11.327  20.734  17.985  0.0603 -0.2236 -0.1643
   45POPC   C4B  540  11.378  20.953  17.544 -0.2861 -0.0687 -0.0993
   46POPC   NC3  541  10.721  20.232  20.090  0.1673  0.0239 -0.4490
   46POPC   PO4  542  10.826  20.607  20.002  0.0786  0.0938 -0.2969
   46POPC   GL1  543  10.816  20.619  19.625  0.3733  0.1999  0.0255
   46POPC   GL2  544  10.493  20.790  19.649  0.1330  0.1520 -0.0737
   46POPC   C1A  545  10.925  20.373  19.211 -0.0362  0.1127 -0.0531
   46POPC   D2A  546  10.723  20.105  18.861 -0.0411  0.2161 -0.1125
   46POPC   C3A  547  10.392  20.234  18.489  0.0818  0.0215 -0.3594
   46POPC   C4A  548  10.431  20.351  18.035 -0.0608  0.2496 -0.1776
   46POPC   C1B  549  10.379  20.697  19.223  0.0341  0.2222  0.2772
   46POPC   C2B  550  10.586  20.579  18.846  0.2253  0.0818  0.0311
   46POPC   C3B  551  10.656  20.675  18.377 -0.1973  0.1093 -0.0250
   46POPC   C4B  552  10.893  20.937  18.096 -0.0065 -0.2236 -0.0207
   47POPC   NC3  553  11.872  12.489  19.425 -0.2032  0.1739  0.1247
   47POPC   PO4  554  11.812  12.877  19.322  0.0835 -0.1170 -0.0611
   47POPC   GL1  555  11.596  13.056  19.148 -0.1241 -0.0346  0.2079
   47POPC   GL2  556  11.602  12.963  18.887 -0.3066 -0.1070 -0.0185
   47POPC   C1A  557  11.111  12.961  19.009 -0.0882  0.1462  0.1786
   47POPC   D2A  558  10.755  12.773  18.813  0.2294  0.1365  0.2771
   47POPC   C3A  559  10.869  12.788  18.329  0.0619  0.2508 -0.1664
   47POPC   C4A  560  10.873  12.816  17.886  0.1288 -0.2648  0.0376
   47POPC   C1B  561  11.370  12.869  18.535 -0.2581 -0.3324 -0.1228
   47POPC   C2B  562  11.451  12.867  18.129 -0.2470  0.0404  0.3635
   47POPC   C3B  563  11.546  12.769  17.656 -0.2946 -0.3362  0.1402
   47POPC   C4B  564  11.779  12.477  17.404  0.0183  0.1045 -0.1766
   48POPC   NC3  565  15.228   0.426  19.497 -0.0597  0.4272  0.2211
   48POPC   PO4  566  15.389   0.052  19.490 -0.0208 -0.1054 -0.1617
   48POPC   GL1  567  15.130  -0.065  19.220  0.1841  0.1408 -0.4963
   48POPC   GL2  568  14.948   0.161  19.117  0.1893 -0.1517  0.2996
   48POPC   C1A  569  15.244  -0.092  18.781 -0.0306 -0.1025  0.2014
   48POPC   D2A  570  15.442  -0.306  18.415 -0.0521  0.0737 -0.0670
   48POPC   C3A  571  15.840  -0.215  18.257 -0.0093 -0.0415  0.1639
   48POPC   C4A  572  16.059  -0.040  17.877  0.1092  0.0362 -0.2365
   48POPC   C1B  573  14.829   0.125  18.687 -0.1768 -0.2726 -0.1648
   48POPC   C2B  574  14.974  -0.059  18.343 -0.1980  0.0132 -0.0397
   48POPC   C3B  575  15.080  -0.361  18.048 -0.0969  0.1019  0.0283
   48POPC   C4B  576  14.941  -0.615  17.675  0.1613 -0.1516 -0.0474
   49POPC   NC3  577  14.603  14.759  19.235 -0.0281 -0.4157  0.1429
   49POPC   PO4  578  14.703  15.134  19.319 -0.1561 -0.0291  0.0479
   49POPC   GL1  579  14.982  15.059  18.992  0.0068  0.0515  0.1294
   49POPC   GL2  580  14.946  14.840  18.847 -0.1986 -0.2560  0.0345
   49POPC   C1A  581  15.023  15.252  18.584 -0.0784 -0.0841  0.2366
   49POPC   D2A  582  15.214  15.414  18.238 -0.1228  0.2059  0.1833
   49POPC   C3A  583  15.548  15.113  18.106  0.0742  0.2099 -0.1120
   49POPC   C4A  584  15.749  15.011  17.768  0.0022 -0.2012 -0.0952
   49POPC   C1B  585  15.180  14.806  18.393 -0.2175 -0.0324  0.1208
   49POPC   C2B  586  15.092  14.831  17.963  0.1126  0.0677  0.2976
   49POPC   C3B  587  14.870  14.839  17.538 -0.0679 -0.0003  0.0162
   49POPC   C4B  588  14.900  14.923  17.113  0.3123 -0.2764  0.4124
   50POPC   NC3  589   2.151  29.188  18.707 -0.2093  0.0485 -0.0480
   50POPC   PO4  590   2.207  28.965  19.068 -0.4476  0.3463  0.0863
   50POPC   GL1  591   2.471  28.852  18.758  0.0669  0.1092 -0.4098
   50POPC   GL2  592   2.625  29.087  18.784 -0.2519 -0.1799 -0.0151
   50POPC   C1A  593   2.445  28.967  18.306 -0.0884  0.1366 -0.0821
   50POPC   D2A  594   2.270  28.935  17.877 -0.2026  0.1265 -0.1381
   50POPC   C3A  595   1.890  28.710  17.793  0.2171 -0.0204  0.0521
   50POPC   C4A  596   1.504  28.830  17.602  0.0500  0.0847  0.1832
   50POPC   C1B  597   2.484  29.423  18.458  0.1661  0.2693 -0.3591
   50POPC   C2B  598   2.400  29.458  18.011  0.1623 -0.3554 -0.1879
   50POPC   C3B  599   2.424  29.366  17.596  0.0183  0.1753 -0.2408
   50POPC   C4B  600   2.453  28.950  17.453 -0.1655  0.0286 -0.0428
   51POPC   NC3  601   2.328   8.912  18.875 -0.0510 -0.0804 -0.1497
   51POPC   PO4  602   2.606   8.826  19.163  0.1784 -0.1053  0.0254
   51POPC   GL1  603   2.826   8.820  18.757 -0.1108  0.0718 -0.1120
   51POPC   GL2  604   2.837   8.545  18.802  0.2545  0.1652 -0.0989
   51POPC   C1A  605   3.026   9.154  18.483 -0.2807 -0.1418 -0.0249
   51POPC   D2A  606   2.874   9.240  18.039 -0.0485 -0.1235 -0.1249
   51POPC   C3A  607   2.831   9.721  17.940 -0.1437 -0.2040 -0.0641
   51POPC   C4A  608   2.852  10.010  17.596  0.2574  0.1834  0.3405
   51POPC   C1B  609   2.683   8.511  18.420 -0.0874 -0.1027 -0.1641
   51POPC   C2B  610   2.784   8.477  17.926  0.1691 -0.0325 -0.3741
   51POPC   C3B  611   2.729   8.400  17.429  0.0327  0.0135 -0.1696
   51POPC   C4B  612   2.638   8.272  16.983 -0.1256  0.0296  0.2823
   52POPC   NC3  613   5.503  21.502  19.113  0.0176 -0.0115  0.3836
   52POPC   PO4  614   5.853  21.523  19.053  0.3555 -0.1868  0.0660
   52POPC   GL1  615   5.804  21.449  18.635 -0.0094 -0.0736  0.2225
   52POPC   GL2  616   5.698  21.670  18.597  0.0459 -0.1485  0.0731
   52POPC   C1A  617   6.010  21.156  18.407  0.1601  0.0537  0.0332
   52POPC   D2A  618   5.853  20.983  18.010 -0.0061  0.0456  0.1686
   52POPC   C3A  619   6.068  21.236  17.682 -0.0667  0.0964  0.0224
   52POPC   C4A  620   5.896  21.386  17.262  0.2794 -0.0303  0.1288
   52POPC   C1B  621   5.923  21.675  18.245  0.3964 -0.0850 -0.0931
   52POPC   C2B  622   5.982  21.841  17.799 -0.1559  0.0316 -0.0579
   52POPC   C3B  623   6.213  21.745  17.378  0.4319  0.0439 -0.2748
   52POPC   C4B  624   6.507  21.440  17.198 -0.0157 -0.1077 -0.1179
   53POPC   NC3  625   2.743   9.736  19.157 -0.0830 -0.0148  0.2412
   53POPC   PO4  626   2.382   9.662  19.179  0.2338  0.1421 -0.3468
   53POPC   GL1  627   2.513   9.447  18.823 -0.2563 -0.1342 -0.5793
   53POPC   GL2  628   2.718   9.251  18.888  0.2872  0.3894  0.2951
   53POPC   C1A  629   2.342   9.514  18.426  0.0208  0.0439  0.1762
   53POPC   D2A  630   2.397   9.416  17.975 -0.0214  0.1518  0.2016
   53POPC   C3A  631   2.595   9.420  17.613  0.1371 -0.1354  0.2337
   53POPC   C4A  632   2.437   9.269  17.207  0.3107  0.1094 -0.0311
   53POPC   C1B  633   2.557   9.012  18.457  0.1887  0.1653 -0.3924
   53POPC   C2B  634   2.402   8.891  18.015  0.1356  0.2092 -0.1382
   53POPC   C3B  635   2.432   8.877  17.594  0.0294  0.1474  0.0732
   53POPC   C4B  636   2.437   8.769  17.155  0.1672  0.0072  0.1061
   54POPC   NC3  637   0.787   8.423  20.092  0.1205 -0.0689 -0.0374
   54POPC   PO4  638   0.684   8.595  19.747  0.0650  0.0940  0.2851
   54POPC   GL1  639   0.677   8.282  19.654  0.2361  0.2721  0.0025
   54POPC   GL2  640   0.443   8.107  19.597 -0.0064 -0.0227  0.3472
   54POPC   C1A  641   0.717   8.073  19.189  0.0665 -0.1875 -0.0382
   54POPC   D2A  642   1.003   7.960  18.823  0.1038 -0.3287 -0.2002
   54POPC   C3A  643   0.849   7.737  18.474 -0.0067 -0.2787  0.2160
   54POPC   C4A  644   0.894   7.504  18.089  0.3921  0.0043  0.2851
   54POPC   C1B  645   0.532   7.608  19.659  0.5065  0.0321 -0.1706
   54POPC   C2B  646   0.439   7.163  19.655 -0.2512 -0.0644 -0.2137
   54POPC   C3B  647   0.481   6.988  19.219 -0.0427  0.0671  0.6730
   54POPC   C4B  648   0.360   7.103  18.777  0.1347 -0.1468  0.0592
   55POPC   NC3  649   3.405   5.860  19.069 -0.1592 -0.3730 -0.1142
   55POPC   PO4  650   3.043   5.746  18.973 -0.0752 -0.2332  0.0872
   55POPC   GL1  651   3.121   5.806  18.613 -0.1105 -0.0272  0.2303
   55POPC   GL2  652   3.340   5.591  18.606 -0.1319 -0.1941  0.0981
   55POPC   C1A  653   2.984   5.661  18.127  0.0258  0.0649 -0.1883
   55POPC   D2A  654   3.004   5.519  17.716 -0.2052 -0.0766  0.0044
   55POPC   C3A  655   3.401   5.424  17.427 -0.0920 -0.0162  0.0155
   55POPC   C4A  656   3.697   5.791  17.231  0.0011  0.0698  0.2092
   55POPC   C1B  657   3.191   5.281  18.266  0.2192  0.1807 -0.3824
   55POPC   C2B  658   3.370   5.222  17.874  0.2567 -0.0556 -0.0620
   55POPC   C3B  659   3.271   4.903  17.456  0.1160  0.1259  0.0142
   55POPC   C4B  660   3.124   4.544  17.202  0.1649  0.2042  0.4460
   56POPC   NC3  661   7.274  19.334  19.383  0.0342 -0.1860 -0.0836
   56POPC   PO4  662   6.950  19.589  19.369 -0.0430 -0.0527 -0.0410
   56POPC   GL1  663   7.112  19.644  19.000  0.0236 -0.1824 -0.0050
   56POPC   GL2  664   7.314  19.526  18.940 -0.0911  0.3133  0.1852
   56POPC   C1A  665   6.952  19.404  18.625  0.2541 -0.1207  0.1725
   56POPC   D2A  666   6.804  19.275  18.180  0.1883 -0.0327  0.2380
   56POPC   C3A  667   7.034  19.136  17.759  0.0849  0.3403 -0.1486
   56POPC   C4A  668   7.212  19.354  17.454 -0.1265  0.1294  0.0416
   56POPC   C1B  669   7.744  19.368  18.946 -0.1458 -0.0563  0.1314
   56POPC   C2B  670   8.172  19.280  18.727  0.0284  0.1001 -0.0913
   56POPC   C3B  671   8.483  19.188  18.429  0.1196 -0.1924 -0.3922
   56POPC   C4B  672   8.595  19.114  17.956 -0.1515  0.2605 -0.1744
   57POPC   NC3  673  13.557   1.669  19.568 -0.1458  0.3299  0.2252
   57POPC   PO4  674  13.321   1.946  19.407 -0.3215  0.0577  0.1321
   57POPC   GL1  675  13.518   2.211  19.271  0.2265 -0.1556  0.2807
   57POPC   GL2  676  13.377   2.459  19.119 -0.2154 -0.1303 -0.3008
   57POPC   C1A  677  13.824   2.495  19.021 -0.1576 -0.1657  0.0762
   57POPC   D2A  678  13.873   2.749  18.676  0.3162 -0.1540 -0.0398
   57POPC   C3A  679  14.275   2.999  18.596  0.1934  0.0280  0.0020
   57POPC   C4A  680  14.619   3.140  18.365 -0.1471 -0.2573 -0.1110
   57POPC   C1B  681  13.278   2.544  18.623  0.1130 -0.0023 -0.0622
   57POPC   C2B  682  13.118   2.479  18.191 -0.3652 -0.0181 -0.0961
   57POPC   C3B  683  12.908   2.111  17.926  0.1918  0.2633 -0.1651
   57POPC   C4B  684  12.517   1.937  17.720 -0.0337 -0.1499 -0.0021
   58POPC   NC3  685   9.568   0.743  19.351  0.2017 -0.0219  0.2552
   58POPC   PO4  686   9.272   0.628  19.155  0.1182  0.0473  0.0182
   58POPC   GL1  687   9.142   0.700  18.807  0.0834  0.1265 -0.0427
   58POPC   GL2  688   9.065   0.940  18.684  0.0266 -0.1374 -0.2117
   58POPC   C1A  689   9.348   0.692  18.367 -0.2527  0.2353 -0.2461
   58POPC   D2A  690   9.593   0.833  18.022  0.2242  0.3477  0.1602
   58POPC   C3A  691   9.497   0.664  17.571  0.3849  0.0249 -0.4640
   58POPC   C4A  692   9.137   0.631  17.349  0.1235  0.3483  0.2877
   58POPC   C1B  693   9.244   1.168  18.315 -0.0025 -0.1011  0.0875
   58POPC   C2B  694   9.322   1.226  17.897 -0.0199  0.0210 -0.2330
   58POPC   C3B  695   9.154   1.107  17.471 -0.1310  0.2131 -0.4020
   58POPC   C4B  696   9.021   1.036  17.033 -0.0980 -0.1409 -0.2766
   59POPC   NC3  697   0.130   3.447  19.159 -0.0721 -0.1317  0.2299
   59POPC   PO4  698   0.292   3.181  19.382 -0.4200 -0.1120  0.1285
   59POPC   GL1  699   0.321   3.034  19.011  0.2465  0.3744  0.2463
   59POPC   GL2  700   0.058   3.062  18.905  0.2134  0.2709 -0.2586
   59POPC   C1A  701   0.256   2.602  18.817 -0.2067  0.0272 -0.0127
   59POPC   D2A  702   0.316   2.361  18.401 -0.2060  0.0818 -0.0349
   59POPC   C3A  703   0.395   2.415  17.963 -0.0467  0.2292 -0.2800
   59POPC   C4A  704  -0.011   2.449  17.731  0.0498 -0.0808  0.1462
   59POPC   C1B  705   0.255   3.084  18.462 -0.1432  0.2099  0.0877
   59POPC   C2B  706   0.495   3.140  18.041  0.0013  0.1430  0.0116
   59POPC   C3B  707   0.355   3.353  17.638  0.2095 -0.0218 -0.0114
   59POPC   C4B  708   0.122   3.133  17.287  0.1701 -0.0920 -0.0188
   60POPC   NC3  709   0.025   2.710  19.345  0.2351  0.0716  0.0369
   60POPC   PO4  710  -0.357   2.701  19.339 -0.0613  0.2774  0.4634
   60POPC   GL1  711  -0.275   2.765  18.968 -0.3523  0.0109 -0.2162
   60POPC   GL2  712  -0.561   2.857  18.875  0.1095  0.1977  0.0764
   60POPC   C1A  713  -0.181   2.837  18.535  0.0322  0.1147  0.1112
   60POPC   D2A  714   0.042   2.704  18.117  0.2601 -0.3992 -0.1668
   60POPC   C3A  715   0.242   2.821  17.719 -0.4776 -0.0826  0.0399
   60POPC   C4A  716   0.622   2.968  17.471 -0.0937 -0.2247 -0.1142
   60POPC   C1B  717  -0.662   2.438  18.678  0.0540 -0.0832  0.1228
   60POPC   C2B  718  -0.719   2.205  18.316 -0.2426 -0.1554  0.0213
   60POPC   C3B  719  -0.581   2.005  17.926 -0.5128  0.0425  0.1868
   60POPC   C4B  720  -0.276   1.900  17.571 -0.2423 -0.1467  0.1225
   61POPC   NC3  721   7.368  24.960  19.145 -0.1095 -0.4681 -0.2148
   61POPC   PO4  722   7.134  25.044  19.420  0.1918 -0.2150  0.3443
   61POPC   GL1  723   6.966  25.237  19.187  0.0042 -0.1675  0.5883
   61POPC   GL2  724   6.923  25.107  18.961 -0.0325  0.1112  0.1337
   61POPC   C1A  725   7.141  25.530  18.848  0.0922 -0.2169  0.3818
   61POPC   D2A  726   7.178  25.749  18.428 -0.0437 -0.0447 -0.1251
   61POPC   C3A  727   7.160  25.793  17.973  0.2707 -0.0109  0.0268
   61POPC   C4A  728   7.061  25.906  17.558  0.0614 -0.1259 -0.1053
   61POPC   C1B  729   6.567  25.140  18.670  0.0557 -0.2576 -0.0690
   61POPC   C2B  730   6.487  25.186  18.185  0.2058  0.1027  0.0195
   61POPC   C3B  731   6.470  25.165  17.726 -0.0339 -0.1747  0.1235
   61POPC   C4B  732   6.628  25.091  17.263 -0.1053  0.1249  0.2125
   62POPC   NC3  733  14.759  24.352  18.937  0.2414  0.2701  0.0227
   62POPC   PO4  734  14.759  23.976  19.114 -0.3011 -0.0960  0.1358
   62POPC   GL1  735  14.567  23.861  18.781 -0.4073  0.5707 -0.0928
   62POPC   GL2  736  14.462  24.130  18.601 -0.4388 -0.0370  0.0484
   62POPC   C1A  737  14.705  23.738  18.355 -0.0356 -0.0724 -0.4827
   62POPC   D2A  738  14.579  23.561  17.945  0.0084  0.0037  0.0273
   62POPC   C3A  739  14.305  23.203  18.087  0.1198 -0.1599 -0.1661
   62POPC   C4A  740  13.888  23.106  18.268  0.2030  0.2885  0.3583
   62POPC   C1B  741  14.328  24.040  18.125 -0.1567 -0.1718 -0.0525
   62POPC   C2B  742  14.304  24.012  17.596  0.0418  0.0283  0.0924
   62POPC   C3B  743  14.343  23.597  17.498 -0.2625 -0.0256  0.0012
   62POPC   C4B  744  14.379  23.136  17.534  0.2897  0.0631 -0.1968
   63POPC   NC3  745   4.266  18.543  19.702  0.0033 -0.0256 -0.3158
   63POPC   PO4  746   4.387  18.722  19.410  0.1120  0.1639  0.2915
   63POPC   GL1  747   4.160  18.597  19.133  0.2671  0.0959  0.0087
   63POPC   GL2  748   4.033  18.796  18.875 -0.1729 -0.1257  0.0948
   63POPC   C1A  749   4.296  18.472  18.675 -0.1388  0.1788 -0.1415
   63POPC   D2A  750   4.323  18.292  18.223  0.2317  0.4114  0.2060
   63POPC   C3A  751   4.008  18.189  17.860  0.0542  0.4057  0.0144
   63POPC   C4A  752   4.169  18.227  17.401  0.3603 -0.1575 -0.0471
   63POPC   C1B  753   3.910  18.570  18.468  0.3623 -0.2859  0.1397
   63POPC   C2B  754   3.741  18.563  18.052 -0.2402 -0.0776 -0.1105
   63POPC   C3B  755   3.851  18.557  17.610 -0.0549  0.0093 -0.3166
   63POPC   C4B  756   3.716  18.639  17.179  0.0868  0.0916 -0.2526
   64POPC   NC3  757  14.946   8.481  18.989 -0.0708  0.1066  0.0630
   64POPC   PO4  758  14.717   8.379  19.294 -0.2888 -0.1550 -0.3323
   64POPC   GL1  759  14.797   7.952  19.207  0.1143 -0.0845  0.1639
   64POPC   GL2  760  14.607   7.943  18.932 -0.0052 -0.0298 -0.1276
   64POPC   C1A  761  14.983   7.561  19.153  0.0142  0.0890 -0.1307
   64POPC   D2A  762  15.299   7.443  18.766 -0.1609  0.0406  0.1500
   64POPC   C3A  763  15.512   7.108  18.615 -0.0375 -0.0892 -0.2405
   64POPC   C4A  764  15.524   6.693  18.362 -0.0041  0.1255 -0.2444
   64POPC   C1B  765  14.556   8.023  18.464  0.0743  0.2088 -0.1137
   64POPC   C2B  766  14.723   8.003  18.015  0.0381  0.0230  0.2505
   64POPC   C3B  767  15.002   8.022  17.649 -0.1736 -0.2407 -0.2376
   64POPC   C4B  768  15.355   8.005  17.366 -0.1060  0.2303 -0.1752
   65POPC   NC3  769  13.312  24.095  19.267 -0.1504  0.2443 -0.0680
   65POPC   PO4  770  12.992  24.302  19.319  0.0521  0.1996  0.0156
   65POPC   GL1  771  13.070  24.631  18.985  0.5191 -0.1987  0.0654
   65POPC   GL2  772  13.211  24.445  18.848  0.2766 -0.1738 -0.1097
   65POPC   C1A  773  13.128  24.774  18.532  0.2123 -0.3646 -0.3474
   65POPC   D2A  774  13.123  25.149  18.297 -0.3091 -0.0201 -0.3391
   65POPC   C3A  775  13.102  25.206  17.886 -0.2910  0.1293  0.0841
   65POPC   C4A  776  13.046  25.507  17.554  0.0354 -0.0937  0.0702
   65POPC   C1B  777  13.515  24.359  18.535  0.2325 -0.0528  0.2603
   65POPC   C2B  778  13.531  24.437  18.117 -0.2923  0.3978 -0.0456
   65POPC   C3B  779  13.415  24.281  17.721  0.2758 -0.0211  0.1433
   65POPC   C4B  780  13.296  23.963  17.464 -0.0309 -0.0440  0.2653
   66POPC   NC3  781   5.700  30.224  19.223  0.0758 -0.0157  0.1768
   66POPC   PO4  782   5.398  29.960  19.408  0.0086 -0.1795  0.1398
   66POPC   GL1  783   5.424  29.887  19.024 -0.0903 -0.1459 -0.0548
   66POPC   GL2  784   5.274  29.689  18.855 -0.1397 -0.2324  0.0284
   66POPC   C1A  785   5.531  30.185  18.669  0.1951 -0.1371 -0.2328
   66POPC   D2A  786   5.631  30.209  18.268 -0.1919  0.0628  0.1022
   66POPC   C3A  787   5.665  30.222  17.823  0.0283 -0.1383  0.2500
   66POPC   C4A  788   5.420  30.061  17.409  0.0307 -0.2993  0.0650
   66POPC   C1B  789   5.254  29.809  18.444 -0.1092  0.0458 -0.1773
   66POPC   C2B  790   5.217  29.802  18.038 -0.0303  0.0830 -0.1101
   66POPC   C3B  791   5.022  29.955  17.619 -0.0912  0.0114  0.0852
   66POPC   C4B  792   4.969  30.238  17.282 -0.1148  0.4574  0.0646
   67POPC   NC3  793   5.956  16.427  19.297 -0.2175  0.2809 -0.1668
   67POPC   PO4  794   5.965  16.048  19.396 -0.0742 -0.3336 -0.1926
   67POPC   GL1  795   5.994  16.056  18.986 -0.1482 -0.3096 -0.4503
   67POPC   GL2  796   6.102  15.785  19.008 -0.1345  0.1891  0.3999
   67POPC   C1A  797   5.871  16.280  18.571  0.0595  0.1940  0.0348
   67POPC   D2A  798   5.949  16.697  18.345  0.0013 -0.0834  0.0552
   67POPC   C3A  799   5.877  16.833  17.885 -0.2389 -0.3724 -0.0501
   67POPC   C4A  800   6.040  16.926  17.432  0.0343 -0.1872  0.1339
   67POPC   C1B  801   6.283  15.989  18.642  0.2469 -0.0199 -0.0656
   67POPC   C2B  802   6.223  16.217  18.236 -0.4065 -0.0237 -0.0641
   67POPC   C3B  803   6.427  16.057  17.799  0.0649 -0.2544  0.0817
   67POPC   C4B  804   6.521  15.918  17.321 -0.0329  0.1704 -0.3445
   68POPC   NC3  805   0.694  18.703  19.222  0.1124  0.0782 -0.1442
   68POPC   PO4  806   0.753  19.065  19.194  0.0203  0.1417 -0.1750
   68POPC   GL1  807   0.804  18.988  18.792 -0.3569 -0.3808 -0.1792
   68POPC   GL2  808   0.842  18.721  18.684 -0.0416  0.0835 -0.0893
   68POPC   C1A  809   0.975  19.270  18.442 -0.1001 -0.1087 -0.0200
   68POPC   D2A  810   1.135  19.487  18.056 -0.0182  0.0936 -0.1160
   68POPC   C3A  811   1.039  19.332  17.652  0.2442 -0.2789  0.1831
   68POPC   C4A  812   0.791  19.024  17.490 -0.3120 -0.1174 -0.5384
   68POPC   C1B  813   1.027  18.622  18.253 -0.0091  0.0226 -0.0846
   68POPC   C2B  814   1.053  18.326  17.908  0.0435  0.0920 -0.0654
   68POPC   C3B  815   1.237  18.189  17.463 -0.0795 -0.2092 -0.2530
   68POPC   C4B  816   1.083  18.037  17.098 -0.0482 -0.1168  0.0640
   69POPC   NC3  817   1.570   7.805  20.152 -0.0128 -0.0796  0.2895
   69POPC   PO4  818   1.781   7.639  19.867 -0.0743  0.0437  0.0806
   69POPC   GL1  819   1.693   7.384  19.599  0.2504 -0.2498  0.1558
   69POPC   GL2  820   1.532   7.458  19.326 -0.3454  0.0795 -0.0881
   69POPC   C1A  821   1.468   6.966  19.516  0.2997 -0.2920 -0.0933
   69POPC   D2A  822   1.298   6.648  19.251  0.2234  0.1482  0.4440
   69POPC   C3A  823   1.002   6.692  18.908 -0.2192 -0.2225  0.2990
   69POPC   C4A  824   0.652   6.718  18.566  0.0049  0.1350 -0.0992
   69POPC   C1B  825   1.187   7.132  19.113  0.1507 -0.1736  0.0128
   69POPC   C2B  826   0.845   7.145  18.780  0.0512  0.2997  0.0298
   69POPC   C3B  827   0.646   7.174  18.371 -0.3032  0.0768 -0.2352
   69POPC   C4B  828   0.437   7.393  18.007  0.1817  0.2436  0.4384
   70POPC   NC3  829  11.678   3.009  19.198  0.1131 -0.0770  0.1748
   70POPC   PO4  830  11.396   3.103  19.416  0.2008  0.1305  0.1408
   70POPC   GL1  831  11.271   2.995  19.067 -0.1608  0.1497 -0.0861
   70POPC   GL2  832  11.194   3.191  18.878 -0.0202 -0.1145  0.3687
   70POPC   C1A  833  11.501   2.770  18.736 -0.0883 -0.0256 -0.0075
   70POPC   D2A  834  11.620   2.743  18.270 -0.2428  0.2910 -0.1643
   70POPC   C3A  835  11.762   2.398  18.013 -0.0167  0.3767  0.3405
   70POPC   C4A  836  11.855   2.325  17.555  0.0131  0.1831  0.2813
   70POPC   C1B  837  10.950   3.131  18.500  0.0297  0.3245  0.1311
   70POPC   C2B  838  10.916   3.136  18.013 -0.0769 -0.1348 -0.0423
   70POPC   C3B  839  10.680   3.171  17.589  0.0185 -0.2252  0.1641
   70POPC   C4B  840  10.436   3.380  17.185  0.2777 -0.2820  0.2632
   71POPC   NC3  841  11.355   9.645  19.272  0.1902  0.0820 -0.2671
   71POPC   PO4  842  11.632   9.378  19.226  0.1036 -0.0420 -0.1169
   71POPC   GL1  843  11.528   9.413  18.877 -0.0065  0.0411  0.1723
   71POPC   GL2  844  11.663   9.206  18.727 -0.3618 -0.1125  0.2666
   71POPC   C1A  845  11.525   9.633  18.482  0.0277 -0.0514  0.1175
   71POPC   D2A  846  11.673   9.907  18.173  0.0874 -0.1264  0.1298
   71POPC   C3A  847  11.610  10.355  18.082 -0.4056 -0.0083  0.0024
   71POPC   C4A  848  11.748  10.836  18.005 -0.1828  0.1819 -0.2377
   71POPC   C1B  849  11.527   9.087  18.360  0.0625  0.0924  0.0613
   71POPC   C2B  850  11.432   9.080  17.956  0.1007  0.0637  0.0790
   71POPC   C3B  851  11.154   9.106  17.583 -0.0479  0.2544  0.1733
   71POPC   C4B  852  10.824   9.064  17.308  0.0836  0.0099  0.3533
   72POPC   NC3  853   6.288  21.639  19.248 -0.1596 -0.0722 -0.0501
   72POPC   PO4  854   6.286  21.276  19.064  0.0357 -0.0545 -0.3529
   72POPC   GL1  855   6.413  21.328  18.682  0.0709 -0.4690 -0.0233
   72POPC   GL2  856   6.476  21.060  18.509  0.2392  0.0537  0.0755
   72POPC   C1A  857   6.368  21.478  18.264  0.0160 -0.1545  0.0850
   72POPC   D2A  858   6.422  21.521  17.842 -0.2519  0.0463  0.0687
   72POPC   C3A  859   6.749  21.782  17.580 -0.0886 -0.0023 -0.2408
   72POPC   C4A  860   7.105  21.835  17.280  0.1742 -0.4030 -0.1180
   72POPC   C1B  861   6.805  21.274  18.221  0.2438 -0.2060  0.1502
   72POPC   C2B  862   6.842  21.307  17.710 -0.1962 -0.0789  0.0668
   72POPC   C3B  863   6.993  21.294  17.256  0.4059  0.1032  0.1403
   72POPC   C4B  864   7.009  21.541  16.884  0.1253  0.0619  0.0308
   73POPC   NC3  865  13.750  29.466  18.914 -0.0748 -0.2027  0.2639
   73POPC   PO4  866  13.524  29.451  19.185 -0.1431 -0.1996 -0.0412
   73POPC   GL1  867  13.351  29.185  18.941 -0.0333  0.3628  0.2749
   73POPC   GL2  868  13.233  29.286  18.687  0.0445 -0.1734 -0.0199
   73POPC   C1A  869  13.268  28.792  18.680  0.0738 -0.0114 -0.2137
   73POPC   D2A  870  12.991  28.773  18.339 -0.1740  0.0207  0.0037
   73POPC   C3A  871  12.960  28.769  17.877  0.3045  0.1308 -0.1888
   73POPC   C4A  872  13.249  28.693  17.632 -0.2730 -0.0678  0.3185
   73POPC   C1B  873  13.353  29.168  18.254 -0.2021 -0.0533 -0.1411
   73POPC   C2B  874  13.413  29.226  17.807  0.0173  0.2252  0.0023
   73POPC   C3B  875  13.488  29.188  17.372 -0.0046  0.1104  0.0454
   73POPC   C4B  876  13.927  29.236  17.118  0.1026 -0.0041  0.0757
   74POPC   NC3  877  11.505  14.875  19.204  0.1732 -0.1265 -0.2290
   74POPC   PO4  878  11.544  14.563  18.968 -0.2659  0.5290 -0.0187
   74POPC   GL1  879  11.382  14.467  18.612  0.0559 -0.1021 -0.2321
   74POPC   GL2  880  11.319  14.183  18.681 -0.1640  0.0042 -0.1794
   74POPC   C1A  881  11.393  14.684  18.199 -0.1490  0.2319  0.2475
   74POPC   D2A  882  11.154  14.694  17.833  0.2574  0.0867 -0.2540
   74POPC   C3A  883  10.981  14.680  17.439  0.3261  0.1424  0.1317
   74POPC   C4A  884  10.887  14.829  16.994  0.0766  0.0086  0.2828
   74POPC   C1B  885  11.075  14.160  18.326  0.0166 -0.2143 -0.1739
   74POPC   C2B  886  10.928  14.102  17.863 -0.1615  0.1664 -0.0837
   74POPC   C3B  887  10.896  13.849  17.482 -0.0005 -0.1810  0.0288
   74POPC   C4B  888  11.027  13.671  17.097  0.1887 -0.0104 -0.0600
   75POPC   NC3  889  15.397  19.185  19.027  0.0349  0.1328 -0.0759
   75POPC   PO4  890  15.001  19.188  19.173  0.2319 -0.1881 -0.2522
   75POPC   GL1  891  15.025  19.382  18.876 -0.0670  0.1414 -0.2610
   75POPC   GL2  892  14.811  19.483  18.735  0.0136 -0.1631  0.0870
   75POPC   C1A  893  15.009  19.114  18.501 -0.1782  0.2588 -0.1519
   75POPC   D2A  894  14.894  18.957  18.091  0.1316 -0.2293  0.1829
   75POPC   C3A  895  14.642  18.983  17.715 -0.3835  0.0010  0.0240
   75POPC   C4A  896  14.308  18.835  17.355  0.2151 -0.1348  0.1862
   75POPC   C1B  897  14.535  19.331  18.387  0.0962 -0.2973  0.0664
   75POPC   C2B  898  14.333  19.334  17.970  0.1338  0.2379  0.2997
   75POPC   C3B  899  14.030  19.305  17.587  0.0580  0.2209  0.0339
   75POPC   C4B  900  13.579  19.224  17.516 -0.2610  0.0605  0.3051
   76POPC   NC3  901   1.112   9.744  19.067 -0.1631 -0.0220 -0.0604
   76POPC   PO4  902   0.767   9.672  19.114  0.1094  0.1967 -0.1870
   76POPC   GL1  903   0.810   9.509  18.755  0.1286 -0.0223  0.1837
   76POPC   GL2  904   1.014   9.586  18.591  0.2142 -0.2468  0.0531
   76POPC   C1A  905   0.583   9.513  18.330  0.0733 -0.3051 -0.0088
   76POPC   D2A  906   0.215   9.561  18.060  0.0644  0.0543  0.0161
   76POPC   C3A  907   0.162   9.593  17.593 -0.0755 -0.0284  0.0269
   76POPC   C4A  908  -0.159   9.650  17.249  0.2337 -0.1858 -0.2663
   76POPC   C1B  909   1.117   9.493  18.136  0.0342  0.0475  0.0231
   76POPC   C2B  910   1.142   9.702  17.746  0.0741 -0.0751  0.1443
   76POPC   C3B  911   1.237   9.803  17.300 -0.1175  0.2493 -0.1709
   76POPC   C4B  912   1.340  10.055  16.986 -0.0439  0.2479  0.5705
   77POPC   NC3  913  12.546  30.160  18.869 -0.0418  0.0605  0.2880
   77POPC   PO4  914  12.561  30.252  19.232 -0.1758  0.1877  0.0715
   77POPC   GL1  915  12.426  30.583  19.038  0.3022 -0.1336 -0.2090
   77POPC   GL2  916  12.174  30.476  18.889  0.0602  0.0127  0.1211
   77POPC   C1A  917  12.570  30.648  18.627  0.2943 -0.2812  0.0489
   77POPC   D2A  918  12.838  30.530  18.274 -0.0822 -0.0065 -0.0767
   77POPC   C3A  919  13.123  30.784  18.036  0.1364 -0.0461 -0.1041
   77POPC   C4A  920  13.015  31.232  17.874 -0.3389  0.2341 -0.3879
   77POPC   C1B  921  12.152  30.213  18.516  0.1234 -0.1115  0.2220
   77POPC   C2B  922  11.948  29.988  18.107  0.0674 -0.3728 -0.1505
   77POPC   C3B  923  11.565  29.897  17.855  0.1260 -0.2262  0.2220
   77POPC   C4B  924  11.173  30.029  17.725 -0.0567 -0.1687 -0.1287
   78POPC   NC3  925   5.104  23.182  19.453  0.0876  0.1262 -0.1698
   78POPC   PO4  926   4.739  22.990  19.449 -0.0330 -0.0434  0.4552
   78POPC   GL1  927   4.712  23.238  19.174  0.1299 -0.5152 -0.0559
   78POPC   GL2  928   4.449  23.411  19.169 -0.1853 -0.3036 -0.1181
   78POPC   C1A  929   4.732  23.446  18.771 -0.0651 -0.1642 -0.1457
   78POPC   D2A  930   4.674  23.700  18.384 -0.2000  0.2149  0.0907
   78POPC   C3A  931   4.690  23.519  17.990  0.2021  0.1751 -0.2343
   78POPC   C4A  932   4.551  23.286  17.659 -0.3007 -0.0132  0.0930
   78POPC   C1B  933   4.152  23.609  18.822  0.3658  0.3150  0.3000
   78POPC   C2B  934   4.133  23.815  18.393 -0.2735 -0.0261  0.1426
   78POPC   C3B  935   4.372  24.007  18.021 -0.0957  0.0390 -0.1784
   78POPC   C4B  936   4.377  24.018  17.592  0.1697 -0.3674 -0.0139
   79POPC   NC3  937   4.067  14.848  19.269 -0.1302 -0.0446 -0.0102
   79POPC   PO4  938   4.239  14.483  19.373 -0.0648 -0.3177 -0.0709
   79POPC   GL1  939   4.186  14.439  18.980  0.5282 -0.1741 -0.2351
   79POPC   GL2  940   4.281  14.203  18.754  0.3713  0.0813  0.1888
   79POPC   C1A  941   3.863  14.472  18.685 -0.0366  0.1937  0.2532
   79POPC   D2A  942   4.087  14.334  18.301 -0.3428  0.0092 -0.2878
   79POPC   C3A  943   3.974  13.928  18.305  0.3298  0.0607  0.2076
   79POPC   C4A  944   4.001  13.606  17.960  0.2072 -0.3173 -0.1155
   79POPC   C1B  945   4.632  14.301  18.415 -0.2007  0.2387 -0.2215
   79POPC   C2B  946   4.846  14.412  18.039  0.1127  0.1291 -0.0129
   79POPC   C3B  947   4.755  14.591  17.577 -0.0350 -0.0770 -0.0236
   79POPC   C4B  948   4.847  14.895  17.189  0.0834  0.0757  0.0412
   80POPC   NC3  949   1.364   7.065  20.440 -0.0201 -0.0158 -0.0758
   80POPC   PO4  950   1.661   7.323  20.265  0.2464  0.1353 -0.0701
   80POPC   GL1  951   1.368   7.237  19.977  0.3075  0.1047  0.0897
   80POPC   GL2  952   1.205   7.016  19.908 -0.2358  0.1540 -0.2336
   80POPC   C1A  953   1.134   7.463  19.656 -0.0876 -0.1426  0.0716
   80POPC   D2A  954   0.822   7.413  19.272 -0.0097 -0.1054  0.2303
   80POPC   C3A  955   0.557   7.568  18.952 -0.0438 -0.3335 -0.0071
   80POPC   C4A  956   0.394   7.588  18.522 -0.1615  0.1866 -0.0047
   80POPC   C1B  957   0.917   6.855  19.565 -0.0926 -0.0722  0.0981
   80POPC   C2B  958   0.667   6.540  19.287 -0.3480 -0.0212  0.1665
   80POPC   C3B  959   0.367   6.546  18.936  0.2236  0.0452 -0.0815
   80POPC   C4B  960   0.009   6.745  18.690  0.2230 -0.0485 -0.0762
   81POPC   NC3  961  15.199  18.822  19.444  0.1497  0.1946  0.1541
   81POPC   PO4  962  15.566  18.755  19.283 -0.2687  0.2935  0.1116
   81POPC   GL1  963  15.707  18.742  18.913  0.0813 -0.1958 -0.1348
   81POPC   GL2  964  15.631  18.486  18.776 -0.2171 -0.1602 -0.1957
   81POPC   C1A  965  15.521  18.927  18.514  0.0075  0.2091  0.2390
   81POPC   D2A  966  15.436  19.226  18.155 -0.2580 -0.0488 -0.0691
   81POPC   C3A  967  15.308  19.071  17.714  0.0479  0.0193 -0.3365
   81POPC   C4A  968  15.156  18.748  17.439 -0.2236  0.0828  0.2971
   81POPC   C1B  969  15.468  18.295  18.416 -0.1868 -0.1516 -0.0021
   81POPC   C2B  970  15.712  18.279  18.037 -0.4764 -0.1112  0.4127
   81POPC   C3B  971  16.045  18.332  17.635 -0.1066 -0.0591 -0.0716
   81POPC   C4B  972  16.239  18.437  17.274 -0.0587  0.1062  0.0156
   82POPC   NC3  973  14.273  23.904  19.558 -0.1594  0.1113 -0.4028
   82POPC   PO4  974  14.292  24.024  19.189  0.0925 -0.4238  0.4245
   82POPC   GL1  975  14.082  24.258  18.782 -0.2476 -0.1713  0.1316
   82POPC   GL2  976  14.217  24.477  18.845  0.1036  0.1192 -0.3594
   82POPC   C1A  977  14.027  24.440  18.316 -0.0089  0.0465 -0.1066
   82POPC   D2A  978  14.046  24.857  18.158 -0.1460  0.1530 -0.1209
   82POPC   C3A  979  13.980  25.052  17.680  0.1864  0.1144 -0.1372
   82POPC   C4A  980  13.633  25.090  17.366  0.0045  0.3220 -0.0028
   82POPC   C1B  981  14.108  24.854  18.650  0.1597 -0.1801  0.0203
   82POPC   C2B  982  13.976  25.254  18.414  0.1428 -0.2300 -0.0906
   82POPC   C3B  983  14.114  25.451  18.038 -0.0103 -0.1108  0.1843
   82POPC   C4B  984  14.222  25.916  17.843 -0.0014  0.2142  0.3411
   83POPC   NC3  985   7.120   0.295  19.281  0.0252  0.0934  0.1877
   83POPC   PO4  986   6.813   0.183  19.511 -0.0036 -0.4015 -0.0644
   83POPC   GL1  987   6.681   0.155  19.078  0.0459 -0.0915 -0.1516
   83POPC   GL2  988   6.419   0.180  18.934 -0.0810  0.0452 -0.1881
   83POPC   C1A  989   6.879   0.012  18.684  0.1852 -0.2476 -0.1394
   83POPC   D2A  990   7.245  -0.008  18.454  0.0473 -0.0924 -0.2734
   83POPC   C3A  991   7.574  -0.228  18.337  0.1531  0.1278 -0.0329
   83POPC   C4A  992   7.852  -0.604  18.426 -0.0556  0.1294 -0.0090
   83POPC   C1B  993   6.110   0.314  18.605 -0.1869 -0.0497  0.0647
   83POPC   C2B  994   5.801   0.423  18.329 -0.0048  0.0651  0.1963
   83POPC   C3B  995   5.798   0.471  17.868 -0.0717  0.2022 -0.0820
   83POPC   C4B  996   5.762   0.716  17.511  0.0501  0.2447  0.2787
   84POPC   NC3  997   6.441   5.482  19.193 -0.3492  0.0509  0.0012
   84POPC   PO4  998   6.763   5.430  18.963 -0.1061 -0.0473  0.0613
   84POPC   GL1  999   6.421   5.193  18.864  0.1456  0.1553  0.3124
   84POPC   GL2 1000   6.206   5.303  18.689 -0.1636  0.0545  0.1170
   84POPC   C1A 1001   6.283   4.816  18.669 -0.0267  0.3090  0.3134
   84POPC   D2A 1002   6.344   4.630  18.227  0.0546 -0.1638 -0.0891
   84POPC   C3A 1003   6.418   4.804  17.776 -0.1752 -0.2801 -0.2104
   84POPC   C4A 1004   6.291   4.815  17.368  0.2585  0.0484 -0.0210
   84POPC   C1B 1005   6.318   5.220  18.312 -0.1927 -0.2333 -0.0077
   84POPC   C2B 1006   6.308   5.279  17.825  0.0674 -0.0536  0.1344
   84POPC   C3B 1007   6.192   5.312  17.380  0.0251 -0.1052 -0.0148
   84POPC   C4B 1008   6.353   5.157  16.978 -0.1367 -0.1321  0.0420
   85POPC   NC3 1009   7.266   4.618  19.920  0.2828  0.2129 -0.0885
   85POPC   PO4 1010   7.522   4.532  19.619  0.0904 -0.0594  0.3353
   85POPC   GL1 1011   7.442   4.255  19.372  0.1213  0.2660  0.1502
   85POPC   GL2 1012   7.711   4.096  19.376 -0.0227 -0.3163 -0.1485
   85POPC   C1A 1013   7.120   4.224  19.033  0.3152  0.0618 -0.0426
   85POPC   D2A 1014   6.913   3.860  18.817 -0.1497  0.1691 -0.0198
   85POPC   C3A 1015   6.676   3.827  18.432  0.0707  0.0545  0.1839
   85POPC   C4A 1016   6.652   3.515  18.097 -0.0325  0.2505  0.0841
   85POPC   C1B 1017   7.407   3.786  19.259  0.0599  0.1926 -0.2253
   85POPC   C2B 1018   6.953   3.827  19.333 -0.0718  0.0883 -0.4903
   85POPC   C3B 1019   6.501   3.842  19.450  0.1561 -0.1131 -0.1586
   85POPC   C4B 1020   6.076   3.655  19.354  0.0033  0.3599 -0.3311
   86POPC   NC3 1021  12.905   6.486  18.794  0.2071  0.0349  0.0136
   86POPC   PO4 1022  12.665   6.385  19.109  0.0394  0.0698  0.0741
   86POPC   GL1 1023  12.551   6.123  18.851 -0.0977  0.1518  0.0581
   86POPC   GL2 1024  12.412   6.248  18.650  0.2287 -0.1288  0.0603
   86POPC   C1A 1025  12.942   5.975  18.639  0.1520  0.2326  0.3993
   86POPC   D2A 1026  13.279   5.695  18.648 -0.0647  0.1171 -0.1065
   86POPC   C3A 1027  13.732   5.694  18.514  0.0111  0.2143  0.1259
   86POPC   C4A 1028  14.147   5.763  18.408  0.0064  0.2098  0.1858
   86POPC   C1B 1029  12.657   6.282  18.278  0.0143 -0.0350  0.3540
   86POPC   C2B 1030  12.867   6.220  17.859  0.3407 -0.1731  0.2140
   86POPC   C3B 1031  12.787   5.813  17.596  0.2757  0.2229 -0.2090
   86POPC   C4B 1032  12.412   5.579  17.573  0.0172  0.1745  0.2768
   87POPC   NC3 1033   8.563   4.643  19.577  0.0701 -0.2095 -0.0346
   87POPC   PO4 1034   8.747   4.410  19.340 -0.2104  0.0735 -0.1878
   87POPC   GL1 1035   8.734   4.296  18.996 -0.0436  0.1875  0.1293
   87POPC   GL2 1036   9.039   4.333  18.950 -0.2518  0.0862  0.0965
   87POPC   C1A 1037   8.571   4.064  18.579 -0.1967  0.0614 -0.0140
   87POPC   D2A 1038   8.419   4.171  18.168  0.1273  0.1841 -0.0336
   87POPC   C3A 1039   8.081   3.861  18.099 -0.2566  0.2006 -0.2474
   87POPC   C4A 1040   7.790   3.892  17.789 -0.4024 -0.0425  0.0276
   87POPC   C1B 1041   9.072   4.030  18.601 -0.2510  0.1790 -0.1680
   87POPC   C2B 1042   8.934   3.977  18.151 -0.0066  0.2512  0.0369
   87POPC   C3B 1043   8.718   3.949  17.696  0.0684  0.1617 -0.1739
   87POPC   C4B 1044   8.627   4.140  17.256 -0.3993  0.0436 -0.1510
   88POPC   NC3 1045  12.355   4.548  19.211 -0.1482  0.1519  0.2938
   88POPC   PO4 1046  12.062   4.661  19.404  0.3504 -0.0943  0.2267
   88POPC   GL1 1047  12.118   4.832  18.910 -0.0097 -0.0127 -0.0722
   88POPC   GL2 1048  12.291   5.027  18.951 -0.1598  0.0827  0.0402
   88POPC   C1A 1049  12.254   4.766  18.457 -0.0217 -0.3594 -0.1363
   88POPC   D2A 1050  12.086   4.643  18.064 -0.1962 -0.0668 -0.1746
   88POPC   C3A 1051  12.327   4.742  17.662  0.1288 -0.0564 -0.2081
   88POPC   C4A 1052  12.640   4.669  17.278  0.0594 -0.3593 -0.1985
   88POPC   C1B 1053  12.272   5.253  18.547 -0.2282 -0.1609 -0.1655
   88POPC   C2B 1054  12.087   5.126  18.165 -0.0304 -0.1717 -0.1207
   88POPC   C3B 1055  12.018   5.131  17.681 -0.0070 -0.4680 -0.0908
   88POPC   C4B 1056  12.226   5.124  17.313  0.0632  0.1447 -0.0150
   89POPC   NC3 1057   7.337  24.579  19.598  0.1883 -0.0368  0.0514
   89POPC   PO4 1058   6.994  24.468  19.739 -0.2674 -0.1678 -0.1788
   89POPC   GL1 1059   7.023  24.317  19.386 -0.0794  0.0810  0.2572
   89POPC   GL2 1060   6.821  24.200  19.245  0.1008  0.0884  0.1287
   89POPC   C1A 1061   7.088  24.547  18.957  0.0914 -0.0658  0.1703
   89POPC   D2A 1062   7.406  24.589  18.587 -0.1736  0.0451  0.2546
   89POPC   C3A 1063   7.224  24.500  18.185  0.1610 -0.0379  0.2744
   89POPC   C4A 1064   7.024  24.390  17.798  0.4243  0.0500  0.0483
   89POPC   C1B 1065   7.177  23.984  19.008 -0.0428 -0.0779 -0.0546
   89POPC   C2B 1066   7.181  23.953  18.554  0.0772 -0.0873  0.0099
   89POPC   C3B 1067   6.966  23.907  18.130 -0.2503 -0.1885 -0.1735
   89POPC   C4B 1068   6.907  23.845  17.684  0.0804  0.1859  0.5127
   90POPC   NC3 1069   5.229  20.380  18.694  0.5730 -0.2016 -0.0072
   90POPC   PO4 1070   5.093  20.788  18.663  0.0784 -0.1890  0.0444
   90POPC   GL1 1071   5.414  20.951  18.413 -0.2810  0.0499 -0.0105
   90POPC   GL2 1072   5.381  20.674  18.220  0.0116 -0.2725 -0.1481
   90POPC   C1A 1073   5.144  21.103  18.094 -0.2655 -0.1368 -0.1203
   90POPC   D2A 1074   5.054  20.967  17.718  0.0182 -0.1010 -0.0797
   90POPC   C3A 1075   5.136  21.206  17.345 -0.1254 -0.0274 -0.2836
   90POPC   C4A 1076   4.961  21.352  16.926 -0.2213  0.1120  0.0754
   90POPC   C1B 1077   5.476  20.719  17.762  0.1954 -0.0589 -0.1161
   90POPC   C2B 1078   5.791  20.812  17.467  0.0445 -0.1056  0.4219
   90POPC   C3B 1079   6.249  20.834  17.248  0.0054 -0.1601 -0.0899
   90POPC   C4B 1080   6.527  20.491  17.029 -0.0279 -0.1857  0.0254
   91POPC   NC3 1081   5.813  26.711  19.862  0.0267  0.1026 -0.2143
   91POPC   PO4 1082   5.683  26.340  19.823  0.2240 -0.1993 -0.0652
   91POPC   GL1 1083   5.738  26.530  19.370 -0.2643  0.1346  0.3592
   91POPC   GL2 1084   5.687  26.285  19.208  0.1063  0.3090 -0.3334
   91POPC   C1A 1085   5.493  26.798  19.050 -0.2782 -0.1557  0.0008
   91POPC   D2A 1086   5.419  26.936  18.642  0.3878  0.0361 -0.0770
   91POPC   C3A 1087   5.428  26.929  18.192 -0.0185  0.0612 -0.3278
   91POPC   C4A 1088   5.576  27.227  17.856 -0.1413 -0.1210  0.0164
   91POPC   C1B 1089   5.783  26.398  18.744 -0.0354 -0.0783 -0.1830
   91POPC   C2B 1090   5.711  26.512  18.307  0.0035  0.0265 -0.1823
   91POPC   C3B 1091   5.697  26.642  17.876 -0.4070  0.2820  0.1189
   91POPC   C4B 1092   5.637  26.884  17.469 -0.1942 -0.0056 -0.1836
   92POPC   NC3 1093   3.919  28.013  19.418 -0.1899 -0.0650 -0.2167
   92POPC   PO4 1094   3.757  28.319  19.572  0.2805  0.1104  0.3862
   92POPC   GL1 1095   3.740  28.411  19.183  0.5110 -0.0047  0.2880
   92POPC   GL2 1096   3.483  28.193  19.121 -0.2047 -0.0387 -0.1766
   92POPC   C1A 1097   4.016  28.589  18.854  0.1569 -0.0701 -0.1524
   92POPC   D2A 1098   4.351  28.355  18.631 -0.1821 -0.1055 -0.1675
   92POPC   C3A 1099   4.577  27.972  18.537 -0.0832 -0.1085 -0.0773
   92POPC   C4A 1100   4.824  27.679  18.298 -0.0787 -0.1841 -0.0616
   92POPC   C1B 1101   3.437  27.861  18.798  0.2123 -0.0343 -0.2457
   92POPC   C2B 1102   3.518  27.886  18.319 -0.2302 -0.2861 -0.1765
   92POPC   C3B 1103   3.869  27.945  18.004  0.0265  0.0717  0.2272
   92POPC   C4B 1104   4.000  27.975  17.555 -0.2687 -0.1808  0.0587
   93POPC   NC3 1105   9.494  24.670  19.239  0.1696  0.2657 -0.2608
   93POPC   PO4 1106   9.867  24.718  19.232 -0.2108  0.0897 -0.0836
   93POPC   GL1 1107   9.863  24.581  18.944  0.0396  0.0700  0.1882
   93POPC   GL2 1108  10.076  24.320  18.843  0.0000  0.1594  0.1640
   93POPC   C1A 1109   9.762  24.568  18.482  0.0742  0.0690  0.2127
   93POPC   D2A 1110   9.673  24.484  17.996  0.1142 -0.1744  0.2794
   93POPC   C3A 1111   9.610  24.782  17.622 -0.1849  0.0990  0.0171
   93POPC   C4A 1112   9.433  25.141  17.407 -0.2461  0.2684  0.0314
   93POPC   C1B 1113   9.958  24.066  18.482  0.2189 -0.1297  0.0352
   93POPC   C2B 1114   9.786  23.855  18.098 -0.1469  0.2706 -0.1925
   93POPC   C3B 1115   9.960  24.048  17.710  0.2614  0.1445  0.1778
   93POPC   C4B 1116  10.166  24.333  17.421  0.0590  0.1828 -0.1470
   94POPC   NC3 1117   2.729  10.654  19.269 -0.0709  0.0960  0.1449
   94POPC   PO4 1118   2.926  10.782  19.583 -0.2799  0.2274  0.2433
   94POPC   GL1 1119   3.067  10.939  19.244  0.2888  0.0364  0.4257
   94POPC   GL2 1120   3.264  10.740  19.139  0.0641 -0.1892  0.1939
   94POPC   C1A 1121   3.465  11.209  19.117  0.1202  0.0777 -0.0099
   94POPC   D2A 1122   3.654  11.591  18.955 -0.4075  0.1295  0.0901
   94POPC   C3A 1123   3.797  11.678  18.519  0.0662  0.0659  0.1383
   94POPC   C4A 1124   3.784  11.514  18.105  0.5478  0.0158  0.2436
   94POPC   C1B 1125   3.242  10.979  18.743  0.0117 -0.2002 -0.1088
   94POPC   C2B 1126   3.126  11.074  18.247  0.1339 -0.2260 -0.0224
   94POPC   C3B 1127   2.996  10.892  17.816  0.0484 -0.2842  0.0004
   94POPC   C4B 1128   3.225  10.909  17.482  0.2241  0.1289  0.0052
   95POPC   NC3 1129   5.738   6.245  19.270 -0.1926  0.1479  0.5117
   95POPC   PO4 1130   5.458   6.527  19.233  0.0220  0.0024 -0.0861
   95POPC   GL1 1131   5.531   6.433  18.846  0.2127  0.0530  0.2653
   95POPC   GL2 1132   5.833   6.370  18.773 -0.1844  0.0667 -0.2983
   95POPC   C1A 1133   5.364   6.620  18.496 -0.0899  0.0492  0.2184
   95POPC   D2A 1134   5.029   6.468  18.171 -0.0297  0.1123 -0.1855
   95POPC   C3A 1135   4.878   6.697  17.837 -0.2400 -0.3274  0.2596
   95POPC   C4A 1136   4.718   6.689  17.447 -0.2382  0.1795  0.1268
   95POPC   C1B 1137   5.850   6.536  18.329  0.1054  0.1365 -0.1829
   95POPC   C2B 1138   5.631   6.640  17.915  0.3939 -0.1308 -0.0929
   95POPC   C3B 1139   5.499   6.719  17.498 -0.1590 -0.1957 -0.4765
   95POPC   C4B 1140   5.153   6.719  17.163 -0.1591 -0.0209  0.1108
   96POPC   NC3 1141  11.512   2.628  19.530  0.0882 -0.1106  0.0517
   96POPC   PO4 1142  11.197   2.438  19.637  0.0371  0.1999 -0.3063
   96POPC   GL1 1143  11.291   2.252  19.278 -0.1619  0.4479  0.2467
   96POPC   GL2 1144  11.237   2.471  19.098 -0.0534 -0.2093 -0.0106
   96POPC   C1A 1145  11.058   1.984  18.957 -0.0892 -0.1389 -0.0688
   96POPC   D2A 1146  10.853   1.564  18.785  0.0979 -0.3734  0.0447
   96POPC   C3A 1147  10.595   1.545  18.335 -0.0535 -0.0828 -0.1530
   96POPC   C4A 1148  10.529   1.640  17.922 -0.0016  0.2076 -0.0067
   96POPC   C1B 1149  11.362   2.247  18.686  0.2053  0.1017 -0.1755
   96POPC   C2B 1150  11.382   2.214  18.234  0.2481  0.0100  0.0724
   96POPC   C3B 1151  11.371   2.104  17.774  0.0758  0.0952 -0.2069
   96POPC   C4B 1152  11.294   2.044  17.270  0.0422 -0.0318 -0.0039
   97POPC   NC3 1153  10.355  18.815  20.298 -0.1894 -0.2142 -0.4253
   97POPC   PO4 1154  10.282  18.868  19.905  0.2629  0.0375  0.0430
   97POPC   GL1 1155  10.048  19.038  19.684 -0.1475 -0.1989  0.0314
   97POPC   GL2 1156   9.916  18.864  19.473 -0.0732  0.1235 -0.2112
   97POPC   C1A 1157  10.185  19.340  19.300  0.0918 -0.0726  0.1338
   97POPC   D2A 1158  10.083  19.698  18.998  0.2625  0.2523  0.1714
   97POPC   C3A 1159  10.195  19.776  18.547 -0.1169 -0.2035 -0.2475
   97POPC   C4A 1160  10.062  20.041  18.183  0.2614  0.3973 -0.0009
   97POPC   C1B 1161   9.676  19.002  19.152 -0.1631 -0.4177 -0.1029
   97POPC   C2B 1162   9.583  19.118  18.671 -0.0313  0.1700  0.2899
   97POPC   C3B 1163   9.780  19.087  18.274 -0.0085  0.0337 -0.1726
   97POPC   C4B 1164   9.673  19.191  17.840 -0.2577 -0.1897  0.1232
   98POPC   NC3 1165  13.024  23.426  19.509  0.3015 -0.1827 -0.3560
   98POPC   PO4 1166  12.949  23.834  19.448  0.3146  0.1136  0.0449
   98POPC   GL1 1167  13.053  23.708  19.125 -0.0438  0.2838  0.3914
   98POPC   GL2 1168  12.966  23.920  18.928  0.1051  0.0844  0.0902
   98POPC   C1A 1169  13.151  23.534  18.669 -0.2427 -0.1901  0.5073
   98POPC   D2A 1170  12.918  23.538  18.259  0.3325 -0.1972  0.0083
   98POPC   C3A 1171  13.106  23.317  17.966  0.0345 -0.0438  0.0007
   98POPC   C4A 1172  13.165  23.303  17.537  0.0207  0.0471  0.1307
   98POPC   C1B 1173  13.038  24.127  18.515  0.0837  0.0260  0.1157
   98POPC   C2B 1174  13.063  24.280  18.118 -0.1092  0.3285 -0.0119
   98POPC   C3B 1175  12.912  24.206  17.721  0.0758 -0.5151  0.1725
   98POPC   C4B 1176  12.859  23.988  17.296  0.1268  0.1943  0.2658
   99POPC   NC3 1177  15.723   1.497  19.859  0.0307 -0.0672 -0.1235
   99POPC   PO4 1178  15.770   1.767  19.563 -0.1255  0.2121 -0.1733
   99POPC   GL1 1179  15.653   1.814  19.169 -0.2065 -0.0473 -0.0173
   99POPC   GL2 1180  15.389   1.940  19.236  0.2169 -0.2019 -0.1428
   99POPC   C1A 1181  15.617   1.574  18.780 -0.1437  0.2312  0.1186
   99POPC   D2A 1182  15.606   1.330  18.367  0.0865 -0.0002  0.0995
   99POPC   C3A 1183  15.651   1.120  17.937 -0.0837 -0.0109  0.1737
   99POPC   C4A 1184  15.682   1.273  17.488  0.1868  0.1891  0.1873
   99POPC   C1B 1185  15.260   1.945  18.803  0.1389  0.2471 -0.1205
   99POPC   C2B 1186  15.484   1.803  18.402 -0.1031  0.2507  0.0292
   99POPC   C3B 1187  15.702   1.653  18.010 -0.1868 -0.0110 -0.0150
   99POPC   C4B 1188  16.055   1.566  17.685 -0.1015  0.0163  0.2024
  100POPC   NC3 1189   2.104   3.032  19.005 -0.1318 -0.0644  0.1469
  100POPC   PO4 1190   2.366   3.208  19.221  0.2054  0.1480 -0.0514
  100POPC   GL1 1191   2.543   3.211  18.896  0.1746 -0.2238 -0.0504
  100POPC   GL2 1192   2.367   3.277  18.638 -0.1136 -0.1484  0.0972
  100POPC   C1A 1193   2.734   2.939  18.564 -0.0066  0.0223  0.2220
  100POPC   D2A 1194   2.772   2.547  18.321  0.3626  0.2088  0.2856
  100POPC   C3A 1195   2.701   2.521  17.884 -0.3296 -0.1157  0.0833
  100POPC   C4A 1196   2.681   2.629  17.421 -0.1332  0.1227  0.3851
  100POPC   C1B 1197   2.072   3.048  18.415 -0.1226 -0.0298 -0.0982
  100POPC   C2B 1198   2.027   2.985  17.967 -0.0321  0.2218  0.0918
  100POPC   C3B 1199   1.780   2.851  17.625  0.2262  0.0539  0.3238
  100POPC   C4B 1200   1.727   2.770  17.198  0.2611  0.0528  0.3741
  101POPC   NC3 1201  11.632   8.070  19.434 -0.2729  0.0834 -0.0385
  101POPC   PO4 1202  11.563   7.715  19.329 -0.0265  0.0203 -0.1320
  101POPC   GL1 1203  11.723   7.872  19.014 -0.0026  0.5275  0.0680
  101POPC   GL2 1204  11.479   7.991  18.855  0.1607  0.0256  0.0733
  101POPC   C1A 1205  11.772   7.735  18.543 -0.1109 -0.4203  0.1717
  101POPC   D2A 1206  11.547   7.657  18.158 -0.2179 -0.1980  0.3735
  101POPC   C3A 1207  11.637   7.271  17.931 -0.1008 -0.0298  0.2750
  101POPC   C4A 1208  11.954   7.026  17.762 -0.1906 -0.1837 -0.0649
  101POPC   C1B 1209  11.578   8.216  18.450  0.1960  0.0925 -0.1570
  101POPC   C2B 1210  11.545   8.112  17.989  0.4625  0.2771 -0.2540
  101POPC   C3B 1211  11.540   7.779  17.651  0.1901  0.2352 -0.0039
  101POPC   C4B 1212  11.239   7.400  17.684 -0.1653 -0.3378 -0.0913
  102POPC   NC3 1213   7.552   1.315  19.276 -0.1330  0.1408 -0.0975
  102POPC   PO4 1214   7.667   0.967  19.091  0.1619 -0.0035  0.0562
  102POPC   GL1 1215   7.687   1.219  18.755  0.4250 -0.0854  0.0022
  102POPC   GL2 1216   7.501   1.104  18.555  0.2144 -0.2346  0.0446
  102POPC   C1A 1217   7.879   1.300  18.314 -0.0954  0.0479  0.0097
  102POPC   D2A 1218   7.859   1.495  17.882  0.0584 -0.2438  0.0900
  102POPC   C3A 1219   7.556   1.528  17.608  0.3359 -0.1058  0.0734
  102POPC   C4A 1220   7.312   1.689  17.258 -0.0691 -0.1678 -0.2774
  102POPC   C1B 1221   7.677   0.865  18.236  0.0057  0.2248 -0.0442
  102POPC   C2B 1222   7.961   1.021  17.834  0.0940  0.2258 -0.2671
  102POPC   C3B 1223   7.778   1.136  17.402  0.0329  0.2002 -0.0346
  102POPC   C4B 1224   7.703   1.128  16.958 -0.5634 -0.2281  0.2589
  103POPC   NC3 1225  14.448   0.667  19.745 -0.2786 -0.1419  0.1891
  103POPC   PO4 1226  14.727   0.486  19.555  0.2462  0.2201  0.0175
  103POPC   GL1 1227  14.907   0.621  19.137  0.1655 -0.2869  0.1265
  103POPC   GL2 1228  14.660   0.576  19.065  0.1747 -0.2013 -0.0687
  103POPC   C1A 1229  15.020   0.901  18.728  0.1291  0.1144  0.0919
  103POPC   D2A 1230  15.132   1.254  18.496  0.1740 -0.4126  0.2354
  103POPC   C3A 1231  15.197   1.343  18.038 -0.0858 -0.2817  0.1090
  103POPC   C4A 1232  15.221   1.501  17.655  0.1033 -0.2728  0.1176
  103POPC   C1B 1233  14.654   0.580  18.603  0.4450 -0.1364  0.1390
  103POPC   C2B 1234  14.695   0.451  18.148  0.1015  0.2324 -0.0426
  103POPC   C3B 1235  14.732   0.549  17.713  0.2176 -0.1789  0.1610
  103POPC   C4B 1236  14.641   0.662  17.239 -0.1103  0.2615 -0.1376
  104POPC   NC3 1237   7.359  23.028  19.176  0.1799  0.0711  0.1025
  104POPC   PO4 1238   7.577  22.889  19.449  0.1309 -0.1057 -0.1063
  104POPC   GL1 1239   7.773  22.914  19.015  0.2088  0.1660 -0.1288
  104POPC   GL2 1240   8.079  22.906  18.930  0.2982 -0.0056 -0.1486
  104POPC   C1A 1241   7.686  23.022  18.596  0.1324 -0.1985 -0.0633
  104POPC   D2A 1242   7.822  23.249  18.217  0.1352 -0.3112 -0.1567
  104POPC   C3A 1243   8.086  23.404  17.864 -0.2573 -0.0382 -0.2864
  104POPC   C4A 1244   8.107  23.508  17.452  0.4419  0.1098 -0.2379
  104POPC   C1B 1245   8.331  23.028  18.552  0.1231 -0.0868 -0.1221
  104POPC   C2B 1246   8.384  22.966  18.062  0.0260 -0.0028  0.0341
  104POPC   C3B 1247   8.523  22.956  17.649  0.0907  0.1611 -0.3256
  104POPC   C4B 1248   8.541  22.971  17.175  0.1355  0.1964 -0.0104
  105POPC   NC3 1249   1.006   4.799  19.907  0.0181  0.2299 -0.3999
  105POPC   PO4 1250   0.894   4.483  19.763  0.0574  0.1500 -0.1245
  105POPC   GL1 1251   0.823   4.514  19.414 -0.2029 -0.0329  0.2250
  105POPC   GL2 1252   1.071   4.482  19.222 -0.0380  0.2966 -0.1197
  105POPC   C1A 1253   0.776   4.833  19.142  0.0282  0.2352 -0.1150
  105POPC   D2A 1254   0.581   5.035  18.792 -0.1271  0.0262  0.0895
  105POPC   C3A 1255   0.444   5.149  18.388 -0.0228  0.4632  0.4929
  105POPC   C4A 1256   0.230   5.414  18.042 -0.0941  0.0924 -0.2422
  105POPC   C1B 1257   1.084   4.622  18.791 -0.3138 -0.0923  0.1032
  105POPC   C2B 1258   0.920   4.843  18.431  0.1398  0.0739 -0.0683
  105POPC   C3B 1259   0.706   4.890  17.995  0.4057  0.0227  0.0937
  105POPC   C4B 1260   0.379   4.989  17.667 -0.3107 -0.2512 -0.1268
  106POPC   NC3 1261   5.071  16.625  19.749 -0.4800  0.0323 -0.0760
  106POPC   PO4 1262   5.254  16.955  19.704  0.3292  0.1797 -0.1028
  106POPC   GL1 1263   4.988  16.942  19.385 -0.0010 -0.1109 -0.1635
  106POPC   GL2 1264   5.059  17.216  19.233 -0.1061 -0.1013  0.4098
  106POPC   C1A 1265   5.045  16.761  18.928 -0.4132 -0.3500  0.1595
  106POPC   D2A 1266   5.013  16.556  18.543  0.3787 -0.1116  0.0404
  106POPC   C3A 1267   5.452  16.541  18.369 -0.1206  0.0485 -0.1507
  106POPC   C4A 1268   5.781  16.329  18.057 -0.0226 -0.2506  0.0431
  106POPC   C1B 1269   5.263  17.304  18.808 -0.3541  0.1605  0.0719
  106POPC   C2B 1270   5.293  17.613  18.473  0.0389 -0.3547  0.0418
  106POPC   C3B 1271   5.363  17.580  18.012  0.0099 -0.1376  0.0834
  106POPC   C4B 1272   5.582  17.547  17.540 -0.0243  0.2703 -0.0008
  107POPC   NC3 1273  14.280   7.679  19.778  0.4280 -0.1978  0.0649
  107POPC   PO4 1274  14.338   7.943  19.493 -0.2256  0.2694  0.2035
  107POPC   GL1 1275  14.213   7.715  19.180 -0.2189 -0.0103 -0.0573
  107POPC   GL2 1276  14.417   7.552  19.160  0.0468  0.1578 -0.1334
  107POPC   C1A 1277  14.132   7.885  18.732  0.1878 -0.0645 -0.1048
  107POPC   D2A 1278  13.957   8.006  18.310 -0.2769 -0.2452  0.1965
  107POPC   C3A 1279  14.244   7.952  17.945 -0.0076  0.3149  0.0248
  107POPC   C4A 1280  14.482   8.201  17.621  0.1827  0.3787 -0.1182
  107POPC   C1B 1281  14.646   7.450  18.783 -0.0153 -0.1797  0.1018
  107POPC   C2B 1282  14.586   7.166  18.397 -0.2399  0.3083  0.1903
  107POPC   C3B 1283  14.696   7.191  17.960  0.0878  0.1191 -0.4171
  107POPC   C4B 1284  14.699   7.576  17.724 -0.0140  0.1779 -0.2574
  108POPC   NC3 1285   8.250  20.639  19.477 -0.0432  0.0116  0.3175
  108POPC   PO4 1286   8.185  21.049  19.404  0.0236 -0.0954 -0.0163
  108POPC   GL1 1287   8.277  21.230  19.082 -0.0449 -0.0813  0.1451
  108POPC   GL2 1288   8.502  21.430  19.150 -0.1271 -0.1190 -0.0092
  108POPC   C1A 1289   8.213  21.061  18.683 -0.1408  0.2010 -0.1294
  108POPC   D2A 1290   8.165  21.010  18.231 -0.2690 -0.1264  0.0786
  108POPC   C3A 1291   7.996  21.169  17.855 -0.1775 -0.0534  0.2156
  108POPC   C4A 1292   7.896  21.037  17.398 -0.0840 -0.0708 -0.0682
  108POPC   C1B 1293   8.641  21.255  18.763 -0.2614  0.1674  0.0243
  108POPC   C2B 1294   8.703  21.123  18.333  0.0032  0.2571 -0.0386
  108POPC   C3B 1295   8.750  20.750  18.090  0.1374 -0.0393  0.2149
  108POPC   C4B 1296   8.916  20.497  17.775 -0.1613 -0.2113  0.2758
  109POPC   NC3 1297  15.047  20.865  18.878  0.1242  0.0660 -0.0993
  109POPC   PO4 1298  14.724  20.589  18.959 -0.1205 -0.3378  0.0550
  109POPC   GL1 1299  14.613  20.696  18.557 -0.0010  0.0873  0.3236
  109POPC   GL2 1300  14.433  20.895  18.611  0.0875 -0.1407 -0.1985
  109POPC   C1A 1301  14.735  20.403  18.234 -0.1967  0.1729 -0.2582
  109POPC   D2A 1302  14.889  20.091  17.936  0.1065 -0.1052  0.0609
  109POPC   C3A 1303  14.963  20.341  17.650 -0.0199 -0.0027  0.3418
  109POPC   C4A 1304  14.746  20.609  17.326  0.1539  0.1807 -0.1456
  109POPC   C1B 1305  14.473  20.892  18.115  0.4848  0.3272  0.1381
  109POPC   C2B 1306  14.450  20.787  17.666  0.0235  0.2609 -0.0241
  109POPC   C3B 1307  14.539  21.062  17.321 -0.0890  0.1583 -0.4379
  109POPC   C4B 1308  14.235  21.268  17.084  0.0191 -0.1719 -0.1584
  110POPC   NC3 1309  13.285  13.511  19.341 -0.3699  0.5998  0.1196
  110POPC   PO4 1310  12.892  13.460  19.365  0.0054 -0.1665  0.0925
  110POPC   GL1 1311  12.961  13.619  19.024  0.0991  0.1386 -0.2556
  110POPC   GL2 1312  12.847  13.450  18.886 -0.0062 -0.0632 -0.0367
  110POPC   C1A 1313  13.025  13.879  18.568  0.3013 -0.1281 -0.2957
  110POPC   D2A 1314  13.029  13.837  18.115  0.0690  0.0727 -0.1277
  110POPC   C3A 1315  13.346  14.060  17.929  0.1220  0.1978 -0.5179
  110POPC   C4A 1316  13.792  14.014  17.752 -0.1014  0.1957 -0.4126
  110POPC   C1B 1317  12.824  13.073  18.588  0.1742 -0.1048 -0.0306
  110POPC   C2B 1318  12.875  12.826  18.251 -0.0893 -0.1873  0.3358
  110POPC   C3B 1319  12.800  12.564  17.856  0.0124 -0.2556  0.2899
  110POPC   C4B 1320  12.720  12.425  17.461  0.1233  0.0466  0.0340
  111POPC   NC3 1321   1.776  11.816  19.055  0.1937 -0.2393  0.1793
  111POPC   PO4 1322   2.015  11.950  19.349 -0.1195  0.1036 -0.1543
  111POPC   GL1 1323   2.207  12.031  19.028  0.0757 -0.2296  0.1757
  111POPC   GL2 1324   2.470  11.823  18.870  0.0771 -0.1642  0.1447
  111POPC   C1A 1325   2.058  11.894  18.599  0.2443 -0.0425 -0.1546
  111POPC   D2A 1326   1.810  11.907  18.186 -0.1233 -0.0501  0.3573
  111POPC   C3A 1327   1.671  12.013  17.731  0.0690  0.0728  0.0638
  111POPC   C4A 1328   1.611  12.209  17.302 -0.2749 -0.0033  0.0302
  111POPC   C1B 1329   2.640  11.703  18.467 -0.2545 -0.2855 -0.2069
  111POPC   C2B 1330   2.613  11.774  18.047  0.1218 -0.0009  0.4224
  111POPC   C3B 1331   2.833  11.608  17.655 -0.2364 -0.5014  0.0662
  111POPC   C4B 1332   3.161  11.412  17.398 -0.0022 -0.0191  0.0999
  112POPC   NC3 1333  10.945   0.815  19.012 -0.1271 -0.0062 -0.1417
  112POPC   PO4 1334  11.329   0.714  19.126  0.1036 -0.0860 -0.0784
  112POPC   GL1 1335  11.507   0.733  18.694  0.1330  0.2445  0.0178
  112POPC   GL2 1336  11.221   0.738  18.593  0.1990 -0.1025  0.0489
  112POPC   C1A 1337  11.492   0.952  18.306  0.2069  0.1728  0.2145
  112POPC   D2A 1338  11.517   0.915  17.838 -0.0241  0.0884 -0.0045
  112POPC   C3A 1339  11.970   0.977  17.758 -0.0594 -0.0889 -0.2675
  112POPC   C4A 1340  12.289   1.252  17.903 -0.1394  0.0182  0.0104
  112POPC   C1B 1341  11.108   0.706  18.123 -0.0585  0.1513 -0.1502
  112POPC   C2B 1342  11.133   0.379  17.766  0.2938  0.1519 -0.1845
  112POPC   C3B 1343  10.921   0.046  17.503  0.0871 -0.2025  0.0244
  112POPC   C4B 1344  10.892  -0.037  17.040  0.0107 -0.0053  0.1493
  113POPC   NC3 1345   2.751  24.332  19.377  0.0133 -0.2398  0.0313
  113POPC   PO4 1346   2.536  24.650  19.233 -0.0484  0.0636  0.0087
  113POPC   GL1 1347   2.439  24.653  18.828 -0.2776 -0.0774 -0.0413
  113POPC   GL2 1348   2.593  24.782  18.695 -0.4469 -0.1754 -0.1010
  113POPC   C1A 1349   2.421  24.479  18.399  0.0911 -0.1060  0.0084
  113POPC   D2A 1350   2.594  24.329  17.976 -0.1864  0.0248 -0.1164
  113POPC   C3A 1351   2.632  24.462  17.513 -0.0197 -0.0538 -0.1062
  113POPC   C4A 1352   2.583  24.632  17.065  0.0283 -0.0776 -0.3088
  113POPC   C1B 1353   2.653  25.086  18.320  0.0808  0.5210 -0.0661
  113POPC   C2B 1354   2.810  25.202  17.902  0.2807  0.0823  0.2154
  113POPC   C3B 1355   2.974  25.178  17.486  0.0733 -0.1295 -0.3129
  113POPC   C4B 1356   3.039  25.176  17.020  0.1117  0.2369 -0.1171
  114POPC   NC3 1357  12.885   8.785  19.347 -0.0885  0.1468  0.0308
  114POPC   PO4 1358  12.557   8.494  19.291  0.2382  0.2432 -0.0206
  114POPC   GL1 1359  12.668   8.688  18.955 -0.1164 -0.0241 -0.3593
  114POPC   GL2 1360  12.557   8.431  18.765  0.1735 -0.1455  0.0568
  114POPC   C1A 1361  12.699   8.853  18.576 -0.3572 -0.0643  0.2063
  114POPC   D2A 1362  12.820   8.772  18.139 -0.1574 -0.0165  0.0451
  114POPC   C3A 1363  12.451   8.841  17.834 -0.1952  0.4285 -0.0567
  114POPC   C4A 1364  12.145   8.574  17.684  0.0922  0.0158 -0.0481
  114POPC   C1B 1365  12.204   8.645  18.643  0.2797  0.1214 -0.2173
  114POPC   C2B 1366  12.111   8.911  18.286  0.0488  0.0090 -0.1185
  114POPC   C3B 1367  11.908   9.018  17.820  0.1199  0.2681  0.1211
  114POPC   C4B 1368  11.665   9.094  17.500 -0.2022  0.1765  0.1898
  115POPC   NC3 1369   6.780  18.935  20.000  0.0630 -0.1151  0.1759
  115POPC   PO4 1370   6.993  19.037  19.662 -0.0366 -0.0754 -0.1347
  115POPC   GL1 1371   7.105  18.823  19.217  0.2113  0.0945  0.1111
  115POPC   GL2 1372   7.000  18.517  19.186  0.1206 -0.0961  0.0004
  115POPC   C1A 1373   7.206  19.009  18.797  0.3016 -0.1182  0.0286
  115POPC   D2A 1374   7.379  19.282  18.450  0.1666 -0.2648  0.3199
  115POPC   C3A 1375   7.807  19.429  18.387  0.2295  0.0552  0.0433
  115POPC   C4A 1376   8.081  19.195  18.105  0.4381  0.0805 -0.0254
  115POPC   C1B 1377   7.259  18.514  18.763  0.0035 -0.2995  0.1551
  115POPC   C2B 1378   7.305  18.695  18.352  0.1012  0.0685  0.0623
  115POPC   C3B 1379   7.442  19.001  18.018  0.0141  0.1151  0.3173
  115POPC   C4B 1380   7.433  18.861  17.535  0.0070 -0.2073 -0.2774
  116POPC   NC3 1381   7.814   8.070  19.716  0.1916  0.1120  0.2465
  116POPC   PO4 1382   7.959   7.868  19.446  0.0406  0.1205 -0.2421
  116POPC   GL1 1383   8.303   7.607  19.475  0.2511  0.2162 -0.1282
  116POPC   GL2 1384   8.294   7.576  19.178 -0.3798 -0.1338 -0.0291
  116POPC   C1A 1385   8.721   7.581  19.386  0.1114  0.0618  0.0832
  116POPC   D2A 1386   9.200   7.598  19.295  0.2200 -0.1012  0.1488
  116POPC   C3A 1387   9.341   7.979  19.055 -0.0735  0.2106 -0.1207
  116POPC   C4A 1388   9.417   8.421  18.984  0.1927  0.0936 -0.0824
  116POPC   C1B 1389   8.438   7.824  18.838  0.0290  0.0435  0.1705
  116POPC   C2B 1390   8.629   8.049  18.459  0.0898 -0.1225  0.0612
  116POPC   C3B 1391   8.726   7.994  18.005  0.0306  0.0152  0.3971
  116POPC   C4B 1392   8.869   7.679  17.710 -0.3785  0.2095  0.0659
  117POPC   NC3 1393   3.300   8.291  19.041  0.0676 -0.3078 -0.0555
  117POPC   PO4 1394   3.138   8.604  19.172 -0.3281 -0.3009 -0.1062
  117POPC   GL1 1395   3.309   8.778  18.860 -0.0738  0.0121  0.1236
  117POPC   GL2 1396   3.379   9.071  18.818  0.1121 -0.4365 -0.1040
  117POPC   C1A 1397   3.507   8.600  18.477 -0.0490 -0.0628  0.2799
  117POPC   D2A 1398   3.165   8.664  18.166 -0.2499  0.0313  0.1428
  117POPC   C3A 1399   3.115   8.884  17.764  0.0474 -0.2132 -0.2822
  117POPC   C4A 1400   2.947   8.915  17.417 -0.1265  0.3857  0.2488
  117POPC   C1B 1401   3.526   9.163  18.372 -0.2213 -0.0786  0.0941
  117POPC   C2B 1402   3.365   9.279  17.912 -0.2486 -0.0483 -0.0455
  117POPC   C3B 1403   3.141   9.524  17.548  0.1644  0.0202 -0.1121
  117POPC   C4B 1404   3.346   9.899  17.377  0.0570 -0.0676  0.1859
  118POPC   NC3 1405  12.661  24.594  19.474 -0.0619 -0.2998 -0.1845
  118POPC   PO4 1406  12.453  24.827  19.764 -0.0283  0.0387 -0.0661
  118POPC   GL1 1407  12.365  24.979  19.417  0.0304  0.0163 -0.0358
  118POPC   GL2 1408  12.436  25.247  19.396 -0.1612  0.0776 -0.1512
  118POPC   C1A 1409  12.605  24.821  19.036 -0.3421  0.0875 -0.0593
  118POPC   D2A 1410  12.698  24.409  18.818  0.2003  0.3604  0.2786
  118POPC   C3A 1411  12.644  24.575  18.428 -0.3460  0.0849  0.0835
  118POPC   C4A 1412  12.711  24.681  17.944  0.0884 -0.0571  0.1609
  118POPC   C1B 1413  12.477  25.296  18.976  0.0693  0.1727  0.0507
  118POPC   C2B 1414  12.578  25.111  18.528  0.3677  0.0879  0.2270
  118POPC   C3B 1415  12.630  25.154  18.090  0.1233 -0.0697  0.4005
  118POPC   C4B 1416  12.710  25.095  17.615  0.2304  0.0791  0.0928
  119POPC   NC3 1417   5.985  27.460  19.740  0.0136 -0.1569  0.1070
  119POPC   PO4 1418   6.369  27.325  19.707  0.0080 -0.1322 -0.1590
  119POPC   GL1 1419   6.391  27.497  19.333 -0.1600 -0.0906 -0.7049
  119POPC   GL2 1420   6.598  27.637  19.413 -0.0232  0.1516  0.2095
  119POPC   C1A 1421   6.192  27.472  18.910  0.0246  0.0488  0.1356
  119POPC   D2A 1422   6.023  27.547  18.480 -0.0813  0.0120 -0.2171
  119POPC   C3A 1423   5.599  27.367  18.312 -0.0853  0.2401 -0.1472
  119POPC   C4A 1424   5.320  27.616  18.048  0.2375 -0.3769  0.0391
  119POPC   C1B 1425   6.671  27.739  19.007  0.0899 -0.1082 -0.1537
  119POPC   C2B 1426   6.542  27.787  18.538 -0.1184  0.1675  0.1466
  119POPC   C3B 1427   6.366  27.648  18.135  0.1246  0.1337 -0.1712
  119POPC   C4B 1428   5.958  27.615  18.001 -0.2073  0.2340 -0.0213
  120POPC   NC3 1429   1.636  21.805  19.512 -0.1868 -0.1084  0.0119
  120POPC   PO4 1430   1.822  21.507  19.397 -0.1651 -0.0971 -0.0311
  120POPC   GL1 1431   1.525  21.583  19.098  0.0606  0.3466  0.2466
  120POPC   GL2 1432   1.628  21.657  18.796  0.0309  0.1170  0.0735
  120POPC   C1A 1433   1.232  21.290  18.838  0.2911 -0.2006  0.1634
  120POPC   D2A 1434   1.144  21.061  18.392 -0.2171 -0.1047 -0.1771
  120POPC   C3A 1435   1.128  21.245  17.989  0.0858 -0.0946  0.0132
  120POPC   C4A 1436   0.944  21.114  17.650  0.0761  0.1237 -0.1032
  120POPC   C1B 1437   1.599  21.448  18.377 -0.2124 -0.0031  0.3797
  120POPC   C2B 1438   1.584  21.458  17.935  0.1768 -0.1800  0.1225
  120POPC   C3B 1439   1.352  21.415  17.569 -0.1016  0.0462  0.0682
  120POPC   C4B 1440   0.974  21.399  17.263 -0.4637 -0.4268  0.1963
  121POPC   NC3 1441  10.806  15.680  18.822 -0.1622  0.0200 -0.0612
  121POPC   PO4 1442  10.895  16.069  18.797 -0.3419 -0.1747  0.0311
  121POPC   GL1 1443  10.767  16.078  18.418  0.1897 -0.3929 -0.0886
  121POPC   GL2 1444  10.625  15.872  18.428 -0.0699 -0.2247 -0.1892
  121POPC   C1A 1445  10.884  15.987  17.995 -0.2331 -0.2533  0.3392
  121POPC   D2A 1446  10.816  16.006  17.557  0.2232  0.2504  0.3594
  121POPC   C3A 1447  10.546  15.923  17.202  0.2892  0.0377 -0.0989
  121POPC   C4A 1448  10.241  16.116  16.888 -0.0002 -0.2819  0.1792
  121POPC   C1B 1449  10.437  16.032  18.078  0.2297  0.0600 -0.1246
  121POPC   C2B 1450  10.134  16.293  17.961 -0.2127 -0.2315 -0.0765
  121POPC   C3B 1451  10.129  16.627  17.652  0.0739 -0.1282  0.0138
  121POPC   C4B 1452   9.777  16.786  17.384  0.1010 -0.0693 -0.0323
  122POPC   NC3 1453   8.779  14.199  19.564 -0.0486  0.2213  0.1355
  122POPC   PO4 1454   8.913  13.845  19.597 -0.0829 -0.2773  0.3477
  122POPC   GL1 1455   9.085  13.850  19.191 -0.1197  0.4182  0.1319
  122POPC   GL2 1456   8.837  13.931  19.015 -0.0846 -0.0049 -0.2198
  122POPC   C1A 1457   9.166  13.558  18.848 -0.1561  0.1018  0.0238
  122POPC   D2A 1458   9.389  13.723  18.444 -0.2769 -0.1459 -0.1048
  122POPC   C3A 1459   9.400  13.900  18.014 -0.1698  0.1478  0.2134
  122POPC   C4A 1460   9.317  13.869  17.549 -0.3511 -0.0380  0.0461
  122POPC   C1B 1461   8.890  13.860  18.518 -0.0834  0.1112 -0.0703
  122POPC   C2B 1462   8.876  13.884  18.070 -0.2273  0.0758 -0.0788
  122POPC   C3B 1463   8.843  14.038  17.581 -0.2557  0.0788 -0.1985
  122POPC   C4B 1464   8.565  14.330  17.304 -0.1177  0.0536  0.1383
  123POPC   NC3 1465  12.507  21.688  19.099 -0.0095  0.1397 -0.1324
  123POPC   PO4 1466  12.664  21.438  19.339 -0.1373 -0.0894 -0.1513
  123POPC   GL1 1467  12.685  21.234  19.027 -0.3457  0.3476 -0.2392
  123POPC   GL2 1468  12.894  21.066  18.954 -0.1728  0.1554 -0.3345
  123POPC   C1A 1469  12.366  21.336  18.718  0.0555  0.0626  0.3035
  123POPC   D2A 1470  12.073  21.576  18.436 -0.3201 -0.0954 -0.0059
  123POPC   C3A 1471  12.084  21.993  18.328 -0.2598  0.2902 -0.1450
  123POPC   C4A 1472  12.116  22.453  18.205 -0.3315  0.2771  0.0697
  123POPC   C1B 1473  12.902  21.440  18.605  0.0448  0.0007 -0.2008
  123POPC   C2B 1474  12.641  21.461  18.167 -0.0071  0.1709  0.2273
  123POPC   C3B 1475  12.305  21.675  17.961  0.0847  0.1065  0.1904
  123POPC   C4B 1476  11.923  21.755  17.698  0.0970  0.2292  0.1584
  124POPC   NC3 1477  15.030  23.696  18.774 -0.1657 -0.1776 -0.1885
  124POPC   PO4 1478  15.357  23.749  18.958 -0.0561  0.0171 -0.0729
  124POPC   GL1 1479  15.544  23.906  18.735  0.0182  0.2435  0.2450
  124POPC   GL2 1480  15.715  24.174  18.829  0.0919 -0.3483  0.2541
  124POPC   C1A 1481  15.729  23.803  18.320 -0.0078 -0.0894 -0.2038
  124POPC   D2A 1482  15.835  23.677  17.901 -0.0590 -0.0211 -0.0869
  124POPC   C3A 1483  15.666  23.883  17.545  0.0635  0.0137 -0.0231
  124POPC   C4A 1484  15.482  23.977  17.156  0.0315  0.1817  0.1121
  124POPC   C1B 1485  15.550  24.326  18.461 -0.2217  0.2109 -0.0179
  124POPC   C2B 1486  15.427  24.218  17.993 -0.3681  0.0080 -0.1716
  124POPC   C3B 1487  15.203  24.181  17.544  0.1415 -0.0441 -0.0306
  124POPC   C4B 1488  15.255  24.550  17.188  0.1667  0.2059 -0.2249
  125POPC   NC3 1489   4.137  15.475  19.794  0.0379 -0.3205  0.0300
  125POPC   PO4 1490   3.882  15.275  19.564 -0.1100  0.0503  0.0666
  125POPC   GL1 1491   4.210  15.417  19.301 -0.3137 -0.2102 -0.2999
  125POPC   GL2 1492   4.137  15.640  19.331 -0.0799  0.0850 -0.2106
  125POPC   C1A 1493   4.363  15.058  18.984 -0.3322 -0.1821 -0.3740
  125POPC   D2A 1494   4.293  14.724  18.624 -0.3428 -0.4394 -0.1439
  125POPC   C3A 1495   4.392  14.750  18.214  0.0053 -0.1449 -0.2502
  125POPC   C4A 1496   4.614  14.935  17.852 -0.0776 -0.1689 -0.1366
  125POPC   C1B 1497   3.935  15.865  18.977  0.0314 -0.0969 -0.0567
  125POPC   C2B 1498   3.859  15.868  18.566  0.0698 -0.0923 -0.0479
  125POPC   C3B 1499   4.012  15.846  18.123  0.1090  0.0520 -0.0568
  125POPC   C4B 1500   4.243  15.826  17.754 -0.2227  0.1126  0.1600
  126POPC   NC3 1501   3.044  20.261  19.277  0.2027  0.1849  0.3836
  126POPC   PO4 1502   2.985  19.952  19.004 -0.0388 -0.4918  0.1288
  126POPC   GL1 1503   2.840  20.233  18.714  0.2052  0.0680 -0.1039
  126POPC   GL2 1504   2.553  20.210  18.757  0.2474  0.4630  0.0140
  126POPC   C1A 1505   3.035  20.530  18.410 -0.0819 -0.4149  0.0355
  126POPC   D2A 1506   3.299  20.783  18.087 -0.0927 -0.0313  0.1396
  126POPC   C3A 1507   3.331  21.179  17.894 -0.0023 -0.2201 -0.1160
  126POPC   C4A 1508   3.492  21.230  17.436 -0.3706 -0.2373 -0.2906
  126POPC   C1B 1509   2.514  19.886  18.399 -0.1116 -0.0145  0.0998
  126POPC   C2B 1510   2.596  19.638  18.042 -0.2910  0.0633 -0.0166
  126POPC   C3B 1511   2.709  19.457  17.644  0.2085  0.0213 -0.1636
  126POPC   C4B 1512   2.918  19.081  17.583 -0.2383 -0.0648 -0.2059
  127POPC   NC3 1513  11.626  14.866  18.627  0.0758  0.0894  0.3189
  127POPC   PO4 1514  11.696  15.149  18.859  0.2230 -0.2096  0.3124
  127POPC   GL1 1515  11.364  15.238  18.627  0.1180  0.1922 -0.0989
  127POPC   GL2 1516  11.517  15.401  18.398  0.0418 -0.3646  0.0079
  127POPC   C1A 1517  11.219  15.150  18.190 -0.0773 -0.1585  0.0986
  127POPC   D2A 1518  11.394  15.158  17.777 -0.0352 -0.1286  0.0694
  127POPC   C3A 1519  11.206  15.154  17.339 -0.0652 -0.0245 -0.1601
  127POPC   C4A 1520  11.375  15.096  16.933 -0.3600  0.1117 -0.0584
  127POPC   C1B 1521  11.772  15.084  18.133  0.2823  0.0605  0.1982
  127POPC   C2B 1522  12.154  15.067  17.799  0.1938  0.1627  0.1978
  127POPC   C3B 1523  12.434  15.218  17.419 -0.0142 -0.1548 -0.0213
  127POPC   C4B 1524  12.463  15.576  17.110 -0.1447  0.0479 -0.0124
  128POPC   NC3 1525   1.583   9.265  18.953  0.3105  0.0831 -0.0087
  128POPC   PO4 1526   1.217   9.274  18.876  0.0211 -0.0459  0.0795
  128POPC   GL1 1527   1.208   8.981  18.591 -0.1287  0.0703  0.0549
  128POPC   GL2 1528   1.490   9.030  18.516 -0.1432 -0.2407  0.0412
  128POPC   C1A 1529   1.050   8.625  18.332 -0.0707 -0.0851 -0.0937
  128POPC   D2A 1530   1.067   8.555  17.867  0.0846 -0.0283  0.0450
  128POPC   C3A 1531   0.708   8.639  17.574  0.0646 -0.0009  0.5233
  128POPC   C4A 1532   0.433   8.478  17.211  0.0669 -0.0457 -0.2349
  128POPC   C1B 1533   1.382   8.933  18.149  0.1872 -0.0999 -0.3099
  128POPC   C2B 1534   1.522   8.749  17.729  0.1759  0.0588  0.0320
  128POPC   C3B 1535   1.905   8.532  17.506  0.1587 -0.1646  0.1684
  128POPC   C4B 1536   2.070   8.453  17.076  0.2925  0.1383  0.3102
  129POPC   NC3 1537   9.298   5.205  18.894 -0.2194 -0.2122  0.0893
  129POPC   PO4 1538   9.627   5.301  18.781 -0.1062  0.2664  0.0298
  129POPC   GL1 1539   9.542   5.586  18.567  0.0789 -0.1173 -0.1823
  129POPC   GL2 1540   9.247   5.671  18.603 -0.0737 -0.1231 -0.2679
  129POPC   C1A 1541   9.497   5.807  18.150 -0.2458 -0.0056  0.0280
  129POPC   D2A 1542   9.755   5.968  17.792 -0.0901 -0.2767 -0.1431
  129POPC   C3A 1543  10.185   6.120  17.840 -0.1240 -0.0604  0.1779
  129POPC   C4A 1544  10.680   6.232  17.823  0.0800  0.0340  0.2434
  129POPC   C1B 1545   9.132   5.414  18.290 -0.2310  0.0776  0.0691
  129POPC   C2B 1546   9.019   5.349  17.852  0.2468  0.3264  0.0740
  129POPC   C3B 1547   9.008   5.383  17.418 -0.0828  0.0274 -0.2995
  129POPC   C4B 1548   8.818   5.380  17.012 -0.0288 -0.3787  0.0986
  130POPC   NC3 1549   0.665  23.885  19.189  0.1365  0.0454  0.3559
  130POPC   PO4 1550   0.862  24.225  19.239  0.2498  0.0252  0.0926
  130POPC   GL1 1551   0.986  24.160  18.813  0.5616 -0.0253 -0.2184
  130POPC   GL2 1552   0.765  23.968  18.738  0.2019 -0.0849 -0.2141
  130POPC   C1A 1553   1.061  24.339  18.413  0.1632 -0.0786 -0.0868
  130POPC   D2A 1554   1.077  24.516  17.995 -0.0033  0.1082 -0.2396
  130POPC   C3A 1555   0.804  24.459  17.597  0.0442  0.0111 -0.2249
  130POPC   C4A 1556   0.427  24.272  17.457 -0.2650  0.4359 -0.0880
  130POPC   C1B 1557   0.648  24.009  18.292 -0.3337  0.1423 -0.0380
  130POPC   C2B 1558   0.649  23.908  17.847  0.1350  0.1603 -0.2859
  130POPC   C3B 1559   0.367  23.717  17.495 -0.2249 -0.3014  0.3793
  130POPC   C4B 1560   0.005  23.432  17.392  0.0425 -0.1380 -0.1389
  131POPC   NC3 1561  13.367  19.765  19.633  0.0027 -0.0358 -0.0124
  131POPC   PO4 1562  13.234  19.589  19.324  0.0322 -0.1073 -0.0793
  131POPC   GL1 1563  13.219  19.430  18.986  0.3867  0.2511 -0.2275
  131POPC   GL2 1564  13.101  19.656  18.815  0.0725 -0.1885 -0.0271
  131POPC   C1A 1565  13.208  19.118  18.676  0.3086  0.0159  0.1311
  131POPC   D2A 1566  12.906  19.017  18.312 -0.1324 -0.0134  0.0892
  131POPC   C3A 1567  12.959  19.167  17.911  0.1327  0.0202 -0.2013
  131POPC   C4A 1568  12.886  19.496  17.558  0.1519 -0.0294 -0.1230
  131POPC   C1B 1569  13.075  19.548  18.398 -0.2027 -0.0670 -0.1382
  131POPC   C2B 1570  13.347  19.524  18.008  0.1763  0.0304 -0.1383
  131POPC   C3B 1571  13.374  19.739  17.665  0.3444 -0.0410 -0.0147
  131POPC   C4B 1572  13.162  19.851  17.316  0.0742 -0.1438  0.0968
  132POPC   NC3 1573  13.927  21.530  19.458  0.1056  0.1126 -0.1551
  132POPC   PO4 1574  13.747  21.841  19.546  0.3824 -0.0606  0.1656
  132POPC   GL1 1575  13.657  21.888  19.170  0.0350  0.1863 -0.0113
  132POPC   GL2 1576  13.584  21.629  19.110  0.3112  0.2043  0.2992
  132POPC   C1A 1577  13.978  21.951  18.838  0.3054  0.0622  0.2353
  132POPC   D2A 1578  14.185  21.680  18.590  0.2094 -0.4714 -0.2634
  132POPC   C3A 1579  14.611  21.854  18.406 -0.0378  0.1088  0.0512
  132POPC   C4A 1580  14.808  21.775  18.004  0.4284 -0.1006  0.1504
  132POPC   C1B 1581  13.413  21.659  18.641  0.2005  0.1444  0.2429
  132POPC   C2B 1582  13.251  21.389  18.296  0.3206 -0.0531  0.0703
  132POPC   C3B 1583  13.007  21.275  17.854 -0.0517 -0.2954 -0.1902
  132POPC   C4B 1584  12.606  21.263  17.657  0.0700 -0.5759  0.0989
  133POPC   NC3 1585   0.146  11.335  19.045  0.1020  0.0232  0.2730
  133POPC   PO4 1586   0.087  10.983  19.259 -0.4918 -0.0555  0.1726
  133POPC   GL1 1587  -0.193  11.056  18.925  0.0797 -0.0389 -0.1468
  133POPC   GL2 1588  -0.230  10.745  18.911  0.0288  0.1343  0.0589
  133POPC   C1A 1589  -0.285  11.402  18.623 -0.1907 -0.0551 -0.2051
  133POPC   D2A 1590  -0.271  11.484  18.166  0.0838  0.0954  0.0772
  133POPC   C3A 1591   0.052  11.464  17.823  0.2232 -0.0031  0.2223
  133POPC   C4A 1592   0.324  11.362  17.460  0.0938 -0.0271 -0.0567
  133POPC   C1B 1593  -0.512  10.747  18.586 -0.0196 -0.0584 -0.2098
  133POPC   C2B 1594  -0.724  10.902  18.216  0.2733 -0.1290  0.0084
  133POPC   C3B 1595  -0.928  10.922  17.747 -0.1370  0.3463  0.1643
  133POPC   C4B 1596  -0.869  11.005  17.322  0.4986  0.1343 -0.0125
  134POPC   NC3 1597   0.712   1.076  19.552 -0.2150 -0.0773 -0.0526
  134POPC   PO4 1598   1.036   1.111  19.313  0.0742  0.0469 -0.1260
  134POPC   GL1 1599   1.321   1.073  19.036  0.0271  0.2553 -0.1412
  134POPC   GL2 1600   1.568   1.003  19.138  0.1148 -0.3376 -0.3027
  134POPC   C1A 1601   1.179   0.705  18.842 -0.1701  0.0648 -0.1995
  134POPC   D2A 1602   0.727   0.560  18.664  0.2962 -0.0996 -0.3325
  134POPC   C3A 1603   0.422   0.228  18.818  0.1073  0.1974  0.0102
  134POPC   C4A 1604   0.392  -0.155  18.557  0.1105 -0.1035 -0.1207
  134POPC   C1B 1605   1.552   0.947  18.642 -0.1098 -0.3431  0.0893
  134POPC   C2B 1606   1.636   0.878  18.193 -0.0808 -0.1371  0.2415
  134POPC   C3B 1607   1.432   0.627  17.853  0.0495 -0.4952 -0.1739
  134POPC   C4B 1608   1.477   0.205  17.597  0.2286  0.1566 -0.1002
  135POPC   NC3 1609   3.176  27.617  19.384 -0.0683  0.1802  0.2022
  135POPC   PO4 1610   3.465  27.882  19.544  0.0719 -0.0459 -0.2453
  135POPC   GL1 1611   3.716  27.572  19.427 -0.0157  0.1904  0.0503
  135POPC   GL2 1612   3.687  27.580  19.109 -0.1302  0.0161  0.0896
  135POPC   C1A 1613   4.147  27.541  19.252  0.2834  0.2273  0.0717
  135POPC   D2A 1614   4.401  27.507  18.849  0.0397 -0.2918  0.2383
  135POPC   C3A 1615   4.448  27.511  18.429  0.0691 -0.3983 -0.2532
  135POPC   C4A 1616   4.384  27.789  18.087 -0.4680 -0.0363  0.0054
  135POPC   C1B 1617   3.886  27.581  18.649  0.0486 -0.0561 -0.2503
  135POPC   C2B 1618   3.863  27.395  18.214 -0.0003 -0.1091 -0.3958
  135POPC   C3B 1619   3.970  27.522  17.751  0.1497 -0.1283 -0.2498
  135POPC   C4B 1620   4.328  27.440  17.518 -0.0578  0.0112  0.1965
  136POPC   NC3 1621  11.219  26.848  19.573 -0.1371 -0.1211  0.2219
  136POPC   PO4 1622  11.495  27.159  19.521  0.0708  0.0116  0.0021
  136POPC   GL1 1623  11.571  27.017  19.177  0.1403 -0.3372  0.0695
  136POPC   GL2 1624  11.731  26.754  19.081  0.1242 -0.2067 -0.0342
  136POPC   C1A 1625  11.447  27.064  18.740 -0.1116 -0.0502 -0.1034
  136POPC   D2A 1626  11.287  26.978  18.303 -0.4065 -0.1771  0.0690
  136POPC   C3A 1627  10.857  27.084  18.283  0.4280  0.0460  0.0354
  136POPC   C4A 1628  10.394  27.174  18.208  0.2164  0.0370 -0.1197
  136POPC   C1B 1629  11.465  26.505  18.714  0.0610  0.0002  0.0356
  136POPC   C2B 1630  11.478  26.466  18.230  0.0848  0.3873 -0.1082
  136POPC   C3B 1631  11.330  26.658  17.874  0.0813 -0.2256 -0.0963
  136POPC   C4B 1632  11.264  27.140  17.751  0.0711 -0.0758  0.1114
  137POPC   NC3 1633   0.848  17.526  19.156  0.1267  0.2500  0.4222
  137POPC   PO4 1634   1.211  17.454  19.173 -0.2877  0.2801 -0.2642
  137POPC   GL1 1635   1.259  17.341  18.766 -0.0679  0.1232  0.1834
  137POPC   GL2 1636   1.303  17.076  18.711  0.4735  0.1441 -0.0780
  137POPC   C1A 1637   0.996  17.234  18.368  0.1712  0.2543  0.2051
  137POPC   D2A 1638   0.765  17.262  18.006 -0.1390  0.4635  0.1186
  137POPC   C3A 1639   0.711  17.572  17.644 -0.1943  0.2761  0.0342
  137POPC   C4A 1640   0.297  17.823  17.527  0.0043  0.1107  0.0486
  137POPC   C1B 1641   1.546  16.838  18.368  0.2516  0.0455 -0.1658
  137POPC   C2B 1642   1.754  16.649  17.977  0.0349 -0.0385 -0.1079
  137POPC   C3B 1643   1.706  16.722  17.545  0.1843 -0.4807  0.4716
  137POPC   C4B 1644   1.747  16.950  17.144  0.1798 -0.1348 -0.1128
  138POPC   NC3 1645   5.280   6.093  19.473 -0.0067  0.1005 -0.0153
  138POPC   PO4 1646   5.516   5.824  19.333 -0.1930  0.2344 -0.0204
  138POPC   GL1 1647   5.468   5.478  19.072  0.2545  0.1264 -0.0072
  138POPC   GL2 1648   5.286   5.545  18.890 -0.2172 -0.1547 -0.3963
  138POPC   C1A 1649   5.734   5.350  18.761  0.4654 -0.0791  0.1847
  138POPC   D2A 1650   5.868   5.111  18.417  0.3878  0.2073  0.0035
  138POPC   C3A 1651   5.475   5.127  18.118  0.1270 -0.0357  0.1862
  138POPC   C4A 1652   5.175   5.149  17.771 -0.1506 -0.0844 -0.2502
  138POPC   C1B 1653   5.023   5.288  18.619  0.3006  0.0226  0.1854
  138POPC   C2B 1654   4.866   5.050  18.265 -0.1305 -0.2573 -0.2043
  138POPC   C3B 1655   4.654   4.929  17.852  0.1570 -0.3427 -0.3082
  138POPC   C4B 1656   4.856   4.907  17.432 -0.0095  0.1590 -0.2266
  139POPC   NC3 1657  11.019   5.249  19.076  0.1573  0.0061 -0.2736
  139POPC   PO4 1658  10.785   5.028  18.858  0.1175  0.3460  0.3600
  139POPC   GL1 1659  10.782   4.929  18.435  0.1406 -0.1787 -0.1032
  139POPC   GL2 1660  10.461   4.815  18.465  0.1506 -0.0793 -0.1556
  139POPC   C1A 1661  10.764   4.850  17.966 -0.0607  0.0863 -0.2810
  139POPC   D2A 1662  11.084   5.076  17.779  0.1601 -0.0337 -0.0258
  139POPC   C3A 1663  11.314   4.974  17.392  0.0621 -0.0174  0.0024
  139POPC   C4A 1664  11.062   4.739  17.037  0.2075 -0.1034  0.0283
  139POPC   C1B 1665  10.033   4.664  18.323  0.0263  0.0683  0.1223
  139POPC   C2B 1666   9.855   4.572  17.935 -0.0854 -0.4217 -0.2363
  139POPC   C3B 1667   9.733   4.363  17.520 -0.2963  0.1881  0.0634
  139POPC   C4B 1668   9.857   4.285  17.109  0.2592  0.1826  0.1310
  140POPC   NC3 1669   3.075   1.244  19.368  0.0667 -0.0296  0.1326
  140POPC   PO4 1670   3.413   1.029  19.253  0.3122  0.2418  0.0923
  140POPC   GL1 1671   3.380   1.142  18.862 -0.1685  0.7487  0.3623
  140POPC   GL2 1672   3.444   1.384  18.775 -0.0649  0.2001  0.0425
  140POPC   C1A 1673   3.303   0.842  18.540 -0.0768  0.2299 -0.1661
  140POPC   D2A 1674   3.143   0.759  18.131  0.3473 -0.0965  0.4446
  140POPC   C3A 1675   3.252   1.077  17.895  0.0836 -0.0022  0.0363
  140POPC   C4A 1676   3.173   1.141  17.420 -0.1001 -0.0409 -0.1484
  140POPC   C1B 1677   3.315   1.300  18.334 -0.1951 -0.0899 -0.1031
  140POPC   C2B 1678   3.612   1.403  17.931  0.2515  0.1172  0.1996
  140POPC   C3B 1679   3.657   1.224  17.479 -0.0751 -0.0831  0.1494
  140POPC   C4B 1680   3.632   1.115  17.044  0.0008 -0.0333 -0.3170
  141POPC   NC3 1681   3.395   6.541  19.503 -0.0172  0.1216 -0.3264
  141POPC   PO4 1682   3.801   6.584  19.539 -0.1613 -0.1756  0.3094
  141POPC   GL1 1683   3.679   6.877  19.297 -0.0402 -0.1059 -0.0461
  141POPC   GL2 1684   3.912   6.844  19.059  0.1015  0.1755  0.1993
  141POPC   C1A 1685   3.408   7.118  19.038 -0.0086  0.2293 -0.2534
  141POPC   D2A 1686   3.160   7.352  18.697  0.2685  0.3335 -0.0560
  141POPC   C3A 1687   2.785   7.250  18.444  0.0215  0.2770 -0.0887
  141POPC   C4A 1688   2.353   7.137  18.418 -0.0457 -0.0157 -0.1328
  141POPC   C1B 1689   3.783   6.979  18.600  0.0003  0.2723 -0.1144
  141POPC   C2B 1690   3.718   6.926  18.175  0.1196  0.0938 -0.0328
  141POPC   C3B 1691   3.859   6.590  17.874  0.2068  0.0331 -0.0442
  141POPC   C4B 1692   4.178   6.640  17.534  0.4145  0.2234  0.1378
  142POPC   NC3 1693   0.151  18.739  19.565  0.1385 -0.1629 -0.2591
  142POPC   PO4 1694   0.208  18.945  19.194 -0.1356  0.0721 -0.1631
  142POPC   GL1 1695   0.396  18.906  18.844  0.0529  0.3126  0.2244
  142POPC   GL2 1696   0.240  18.732  18.702 -0.0479  0.0357 -0.1737
  142POPC   C1A 1697   0.491  19.126  18.472  0.0822  0.1342  0.1752
  142POPC   D2A 1698   0.718  19.052  18.036 -0.2338 -0.1851 -0.1208
  142POPC   C3A 1699   1.144  18.853  17.819  0.1494 -0.2624  0.3330
  142POPC   C4A 1700   1.500  18.573  17.684  0.3351  0.0089  0.1562
  142POPC   C1B 1701   0.529  18.627  18.275 -0.1232 -0.1502  0.1158
  142POPC   C2B 1702   0.599  18.636  17.820 -0.0933 -0.0530 -0.1556
  142POPC   C3B 1703   0.849  18.570  17.444 -0.1811 -0.1851 -0.2331
  142POPC   C4B 1704   1.286  18.654  17.259 -0.1402  0.3605  0.0237
  143POPC   NC3 1705  11.413  19.118  19.190 -0.0220  0.1857  0.2126
  143POPC   PO4 1706  11.752  19.037  19.313  0.1886  0.4075 -0.2821
  143POPC   GL1 1707  11.876  19.079  18.919 -0.0255 -0.3183 -0.1673
  143POPC   GL2 1708  11.820  18.790  18.831  0.0462 -0.0349 -0.0883
  143POPC   C1A 1709  11.768  19.214  18.501  0.1527  0.0994  0.1198
  143POPC   D2A 1710  11.512  19.053  18.182  0.1753  0.1757 -0.0030
  143POPC   C3A 1711  11.237  19.272  17.845  0.1892  0.0082 -0.0604
  143POPC   C4A 1712  11.011  19.105  17.475  0.2241  0.2046 -0.1578
  143POPC   C1B 1713  12.046  18.823  18.397  0.1376  0.1412  0.0204
  143POPC   C2B 1714  11.948  18.928  17.954 -0.1995  0.0243  0.0927
  143POPC   C3B 1715  11.780  18.842  17.591 -0.1010  0.0708  0.0122
  143POPC   C4B 1716  11.700  18.572  17.210 -0.1327  0.1863  0.2036
  144POPC   NC3 1717   6.562  20.897  18.973  0.0825 -0.1586  0.1498
  144POPC   PO4 1718   6.530  20.495  18.951  0.1929  0.2115  0.2214
  144POPC   GL1 1719   6.778  20.383  18.658 -0.1213 -0.1342  0.0088
  144POPC   GL2 1720   6.576  20.205  18.497 -0.0714  0.1514  0.0556
  144POPC   C1A 1721   6.693  20.684  18.283 -0.1091 -0.0785 -0.0765
  144POPC   D2A 1722   6.516  20.949  17.923  0.2104 -0.0687 -0.0792
  144POPC   C3A 1723   6.702  20.778  17.504  0.0997 -0.0835  0.0621
  144POPC   C4A 1724   7.051  20.669  17.229  0.0442 -0.0643  0.0033
  144POPC   C1B 1725   6.935  20.243  18.224 -0.0315 -0.0168  0.1023
  144POPC   C2B 1726   7.032  20.030  17.773 -0.3159  0.1456 -0.0749
  144POPC   C3B 1727   7.136  19.856  17.376  0.1628 -0.1431  0.0932
  144POPC   C4B 1728   7.552  19.793  17.205  0.0012 -0.0570 -0.2888
  145POPC   NC3 1729   7.233  25.825  19.248 -0.1495  0.1660  0.1264
  145POPC   PO4 1730   6.992  25.864  19.529  0.0459 -0.0200 -0.0301
  145POPC   GL1 1731   6.893  26.151  19.233 -0.1440 -0.1586  0.1568
  145POPC   GL2 1732   7.166  26.364  19.207  0.3028  0.2097 -0.2127
  145POPC   C1A 1733   6.936  26.132  18.780  0.0844  0.0960  0.0669
  145POPC   D2A 1734   6.792  26.152  18.340  0.0260 -0.1695 -0.1885
  145POPC   C3A 1735   6.938  26.275  17.926  0.1201  0.1694  0.2929
  145POPC   C4A 1736   6.896  26.483  17.534  0.3035  0.3276 -0.0365
  145POPC   C1B 1737   7.181  26.596  18.802 -0.2276  0.0652  0.0953
  145POPC   C2B 1738   7.080  26.564  18.352 -0.1650  0.2339 -0.2344
  145POPC   C3B 1739   7.265  26.696  17.904  0.0324  0.0389 -0.0179
  145POPC   C4B 1740   7.469  26.765  17.529 -0.1097 -0.0406  0.0255
  146POPC   NC3 1741   5.039   0.719  19.506 -0.0845 -0.1795  0.0830
  146POPC   PO4 1742   4.966   0.489  19.202  0.1877  0.3338  0.3553
  146POPC   GL1 1743   4.962   0.556  18.783  0.2920  0.2754 -0.1250
  146POPC   GL2 1744   4.868   0.792  18.654  0.0081  0.1612  0.0624
  146POPC   C1A 1745   4.955   0.227  18.429  0.0595 -0.1511  0.1528
  146POPC   D2A 1746   4.883   0.176  17.967 -0.0127  0.0318  0.0013
  146POPC   C3A 1747   4.817   0.569  17.722 -0.0700  0.2103 -0.2016
  146POPC   C4A 1748   4.496   0.763  17.411 -0.1438  0.1519  0.1878
  146POPC   C1B 1749   5.023   1.136  18.382  0.1545 -0.0354 -0.1648
  146POPC   C2B 1750   5.151   1.041  17.946  0.2929 -0.3080 -0.3544
  146POPC   C3B 1751   5.334   1.014  17.528  0.2079  0.0089  0.1247
  146POPC   C4B 1752   5.725   1.173  17.587 -0.2623  0.0801  0.1005
  147POPC   NC3 1753  13.539  25.492  19.669 -0.0138  0.2854 -0.2399
  147POPC   PO4 1754  13.277  25.211  19.852 -0.1347 -0.0335  0.0680
  147POPC   GL1 1755  13.102  25.565  19.667 -0.4414  0.6732  0.0403
  147POPC   GL2 1756  13.138  25.346  19.400  0.4243 -0.2489 -0.0588
  147POPC   C1A 1757  12.689  25.693  19.601  0.1284 -0.2666 -0.0461
  147POPC   D2A 1758  12.369  25.924  19.466  0.1407  0.1005  0.0567
  147POPC   C3A 1759  12.385  26.172  19.088  0.4848 -0.1484  0.0413
  147POPC   C4A 1760  12.595  26.546  18.985  0.3611  0.1422 -0.2980
  147POPC   C1B 1761  13.197  25.633  19.107 -0.0632  0.2695  0.1847
  147POPC   C2B 1762  13.149  25.930  18.818 -0.0523  0.3302  0.0957
  147POPC   C3B 1763  13.026  25.995  18.410  0.2255 -0.0573 -0.0673
  147POPC   C4B 1764  12.799  26.054  18.005 -0.0065 -0.0931  0.2149
  148POPC   NC3 1765  15.604   4.364  19.310  0.0612 -0.1688  0.4840
  148POPC   PO4 1766  15.752   4.491  19.625 -0.0183 -0.0188 -0.1770
  148POPC   GL1 1767  15.732   4.846  19.765  0.1208 -0.0284 -0.2098
  148POPC   GL2 1768  15.607   4.941  19.540 -0.0182  0.2620  0.2584
  148POPC   C1A 1769  15.924   5.259  19.741  0.2372 -0.1632 -0.0735
  148POPC   D2A 1770  16.143   5.511  19.456  0.0114  0.3260 -0.1336
  148POPC   C3A 1771  15.967   5.849  19.185 -0.3502  0.1493 -0.0882
  148POPC   C4A 1772  16.104   6.040  18.838 -0.5910  0.0165 -0.1193
  148POPC   C1B 1773  15.739   5.304  19.299  0.3188 -0.0377  0.2721
  148POPC   C2B 1774  15.862   5.447  18.909  0.1387 -0.1752  0.0806
  148POPC   C3B 1775  15.654   5.848  18.745 -0.0469 -0.1263 -0.3453
  148POPC   C4B 1776  15.383   6.125  18.492  0.0626 -0.1359  0.3566
  149POPC   NC3 1777   5.674  20.199  18.560  0.1777 -0.3025  0.0059
  149POPC   PO4 1778   5.824  19.930  18.740  0.0525  0.0329 -0.0709
  149POPC   GL1 1779   5.933  19.582  18.418  0.2038 -0.1129 -0.0089
  149POPC   GL2 1780   5.930  19.354  18.430  0.1078 -0.0046 -0.0283
  149POPC   C1A 1781   5.785  19.384  17.979  0.0307  0.1295  0.0337
  149POPC   D2A 1782   6.028  19.225  17.587 -0.1805 -0.1559  0.2004
  149POPC   C3A 1783   6.412  19.407  17.442  0.2238 -0.0799 -0.2881
  149POPC   C4A 1784   6.771  19.568  17.598  0.0389 -0.0496  0.2105
  149POPC   C1B 1785   6.274  19.336  18.112 -0.3089 -0.2459 -0.0572
  149POPC   C2B 1786   6.511  19.076  17.842 -0.1473 -0.1661 -0.2663
  149POPC   C3B 1787   6.486  18.847  17.491 -0.1645  0.1840 -0.4202
  149POPC   C4B 1788   6.547  18.550  17.159  0.1907 -0.0982 -0.1338
  150POPC   NC3 1789   2.147  11.389  19.490 -0.0051 -0.0085  0.1328
  150POPC   PO4 1790   2.173  11.425  19.099  0.1551  0.1292 -0.0940
  150POPC   GL1 1791   2.046  11.429  18.713  0.2089  0.0473  0.0839
  150POPC   GL2 1792   1.770  11.462  18.680  0.1008 -0.4013  0.0851
  150POPC   C1A 1793   2.255  11.518  18.304  0.0282  0.3138  0.4315
  150POPC   D2A 1794   2.162  11.754  17.890  0.1381 -0.1136 -0.2389
  150POPC   C3A 1795   2.205  11.680  17.444  0.0932  0.1815  0.0251
  150POPC   C4A 1796   2.155  11.482  17.051  0.0158 -0.3691  0.2867
  150POPC   C1B 1797   1.637  11.359  18.282 -0.1115  0.1484 -0.0606
  150POPC   C2B 1798   1.702  11.477  17.802  0.1369 -0.1772  0.0883
  150POPC   C3B 1799   1.848  11.166  17.454  0.2180 -0.0827 -0.0479
  150POPC   C4B 1800   1.841  10.953  17.104  0.0104 -0.1459  0.3101
  151POPC   NC3 1801   9.893  28.054  19.588  0.3134  0.0000  0.0649
  151POPC   PO4 1802   9.995  27.879  19.234 -0.1272 -0.1657  0.2038
  151POPC   GL1 1803   9.941  28.129  18.921 -0.1649 -0.2131  0.1071
  151POPC   GL2 1804   9.699  28.047  18.855 -0.2177  0.1805 -0.0831
  151POPC   C1A 1805   9.980  28.387  18.568 -0.0161 -0.0583 -0.0475
  151POPC   D2A 1806   9.826  28.376  18.185  0.0295 -0.1129  0.0498
  151POPC   C3A 1807   9.735  28.447  17.754  0.2006 -0.0730 -0.1159
  151POPC   C4A 1808   9.679  28.368  17.314 -0.0095  0.0024 -0.1036
  151POPC   C1B 1809   9.678  27.897  18.440 -0.2188  0.2671  0.1173
  151POPC   C2B 1810   9.437  28.056  18.068  0.3320 -0.1404  0.0377
  151POPC   C3B 1811   9.192  27.952  17.735  0.3220 -0.1242 -0.0859
  151POPC   C4B 1812   8.956  28.067  17.296 -0.0890  0.3917 -0.0509
  152POPC   NC3 1813   3.640  12.449  18.984 -0.1079 -0.2886  0.0696
  152POPC   PO4 1814   3.663  12.071  19.148 -0.0766 -0.2286  0.0728
  152POPC   GL1 1815   3.780  12.072  18.779  0.0420  0.0469  0.1324
  152POPC   GL2 1816   4.089  12.130  18.637 -0.0067  0.0100  0.2185
  152POPC   C1A 1817   3.709  12.410  18.473 -0.0711  0.1304 -0.2809
  152POPC   D2A 1818   3.494  12.606  18.094 -0.1070  0.0825  0.3604
  152POPC   C3A 1819   3.230  12.378  17.822  0.0265 -0.4824  0.3790
  152POPC   C4A 1820   3.391  12.133  17.444  0.0870 -0.0733 -0.0628
  152POPC   C1B 1821   4.069  12.021  18.190 -0.0326 -0.0290 -0.1478
  152POPC   C2B 1822   4.157  11.778  17.815  0.1149 -0.0502 -0.1072
  152POPC   C3B 1823   3.925  11.392  17.625 -0.0862 -0.1735  0.1496
  152POPC   C4B 1824   3.612  11.202  17.353  0.0546  0.0876 -0.2616
  153POPC   NC3 1825   1.148  12.406  18.812 -0.2555 -0.0053  0.1508
  153POPC   PO4 1826   1.285  12.046  18.926 -0.1471  0.0089 -0.0698
  153POPC   GL1 1827   1.343  12.080  18.543  0.0224 -0.3122  0.0681
  153POPC   GL2 1828   1.409  11.777  18.455  0.1957  0.1008 -0.0954
  153POPC   C1A 1829   1.002  12.171  18.244  0.3246  0.1971  0.0167
  153POPC   D2A 1830   0.647  11.929  18.203 -0.0038  0.0544 -0.0024
  153POPC   C3A 1831   0.341  12.167  18.370  0.2457  0.1537 -0.1282
  153POPC   C4A 1832   0.135  12.392  18.685  0.2162  0.2073 -0.0565
  153POPC   C1B 1833   1.356  11.790  17.971  0.0557 -0.1452 -0.1323
  153POPC   C2B 1834   0.957  11.894  17.776  0.1221  0.1051  0.2188
  153POPC   C3B 1835   0.703  12.218  17.517  0.0306 -0.0976 -0.1003
  153POPC   C4B 1836   0.302  12.425  17.478 -0.4565  0.1741  0.1070
  154POPC   NC3 1837  12.967   1.585  19.552 -0.0838  0.0800 -0.1929
  154POPC   PO4 1838  13.002   1.167  19.505 -0.1283 -0.2218 -0.0987
  154POPC   GL1 1839  13.038   1.163  19.156 -0.6173  0.2046  0.3807
  154POPC   GL2 1840  13.167   1.430  19.071  0.1324 -0.1231 -0.0047
  154POPC   C1A 1841  13.086   1.173  18.706  0.2403  0.0233 -0.0193
  154POPC   D2A 1842  13.048   1.374  18.312 -0.3298 -0.1071  0.0191
  154POPC   C3A 1843  13.139   1.603  17.890  0.0800 -0.1613  0.1766
  154POPC   C4A 1844  13.248   1.359  17.496 -0.0531 -0.1017 -0.2771
  154POPC   C1B 1845  13.407   1.582  18.647  0.0187 -0.0531 -0.0078
  154POPC   C2B 1846  13.600   1.624  18.224  0.1829 -0.3807 -0.1324
  154POPC   C3B 1847  13.682   1.439  17.812 -0.1584  0.1528  0.3917
  154POPC   C4B 1848  13.763   1.194  17.409 -0.3231  0.0854 -0.1061
  155POPC   NC3 1849  14.742   2.280  19.556 -0.1076  0.0753 -0.1332
  155POPC   PO4 1850  14.488   2.316  19.237 -0.1500 -0.1830 -0.0758
  155POPC   GL1 1851  14.236   2.135  19.034 -0.0247 -0.2023  0.0144
  155POPC   GL2 1852  14.332   1.901  18.934 -0.2798 -0.0005  0.0612
  155POPC   C1A 1853  14.199   2.351  18.604  0.2211 -0.0098 -0.0496
  155POPC   D2A 1854  14.413   2.557  18.302  0.1790 -0.1222  0.1427
  155POPC   C3A 1855  14.228   2.529  17.890  0.1435 -0.0288  0.3244
  155POPC   C4A 1856  14.173   2.319  17.518 -0.0288 -0.1604 -0.2983
  155POPC   C1B 1857  14.259   1.533  18.699 -0.3108 -0.3190 -0.1851
  155POPC   C2B 1858  14.134   1.599  18.226  0.0833  0.0090  0.0163
  155POPC   C3B 1859  14.256   1.681  17.782  0.1186  0.0600 -0.1208
  155POPC   C4B 1860  14.082   1.869  17.337  0.1993 -0.1301 -0.1828
  156POPC   NC3 1861  12.977  15.601  19.514  0.0204 -0.0639 -0.1644
  156POPC   PO4 1862  13.316  15.629  19.708 -0.0229 -0.1947 -0.1991
  156POPC   GL1 1863  13.333  15.803  19.297  0.2104 -0.1112  0.3353
  156POPC   GL2 1864  13.636  15.956  19.295 -0.1057  0.0837 -0.0207
  156POPC   C1A 1865  13.294  15.801  18.813 -0.2784  0.1152  0.2015
  156POPC   D2A 1866  13.290  15.782  18.357 -0.0832  0.0078 -0.1276
  156POPC   C3A 1867  13.427  16.126  18.070 -0.3835  0.0331  0.0780
  156POPC   C4A 1868  13.303  16.548  17.966 -0.0005  0.3474 -0.0517
  156POPC   C1B 1869  13.672  16.053  18.839 -0.0611 -0.3331 -0.0763
  156POPC   C2B 1870  13.798  16.187  18.395  0.1383  0.2507 -0.1397
  156POPC   C3B 1871  13.694  16.596  18.271 -0.0887 -0.1279  0.2276
  156POPC   C4B 1872  13.819  17.070  18.306 -0.2684 -0.1028  0.2164
  157POPC   NC3 1873  11.553  21.908  19.318 -0.0993  0.0267 -0.3558
  157POPC   PO4 1874  11.842  22.116  19.200 -0.2757  0.3060  0.0332
  157POPC   GL1 1875  11.923  22.021  18.793  0.1793  0.0296 -0.0398
  157POPC   GL2 1876  11.964  21.721  18.916 -0.1068  0.3104 -0.0609
  157POPC   C1A 1877  11.643  22.183  18.450  0.0875 -0.0809  0.1103
  157POPC   D2A 1878  11.287  22.214  18.179 -0.0478 -0.3078  0.2121
  157POPC   C3A 1879  10.908  22.372  18.439 -0.4001 -0.1347  0.2272
  157POPC   C4A 1880  10.621  22.643  18.659  0.2611 -0.2263 -0.0314
  157POPC   C1B 1881  11.638  21.607  18.606  0.1668  0.0498  0.0418
  157POPC   C2B 1882  11.660  21.793  18.169  0.1141  0.0213  0.0214
  157POPC   C3B 1883  11.734  22.171  17.936 -0.1052  0.0038  0.2548
  157POPC   C4B 1884  11.752  22.231  17.519  0.0704 -0.0780  0.0214
  158POPC   NC3 1885   1.871   6.486  19.569  0.0315  0.0673  0.0698
  158POPC   PO4 1886   2.176   6.244  19.439 -0.1342  0.1487  0.2862
  158POPC   GL1 1887   1.916   6.360  19.112 -0.3747  0.1866  0.0668
  158POPC   GL2 1888   2.033   6.271  18.874  0.0027  0.2846 -0.1263
  158POPC   C1A 1889   1.507   6.192  19.126  0.2875  0.0908  0.2294
  158POPC   D2A 1890   1.212   6.246  18.761 -0.4084 -0.1176  0.1032
  158POPC   C3A 1891   1.035   6.426  18.425 -0.0086 -0.2558  0.0938
  158POPC   C4A 1892   0.934   6.664  18.050  0.4489 -0.1110  0.1164
  158POPC   C1B 1893   2.000   6.378  18.439 -0.2506  0.0138  0.1417
  158POPC   C2B 1894   1.855   6.422  18.040  0.2174  0.0172 -0.0280
  158POPC   C3B 1895   1.694   6.338  17.597 -0.0607  0.0199 -0.0849
  158POPC   C4B 1896   1.435   6.117  17.309  0.2673  0.1163 -0.1155
  159POPC   NC3 1897   8.023  27.703  19.400 -0.1857 -0.2578 -0.0159
  159POPC   PO4 1898   7.681  27.823  19.294 -0.1622  0.1605 -0.1405
  159POPC   GL1 1899   7.658  27.820  18.903 -0.0068 -0.0174 -0.0423
  159POPC   GL2 1900   7.391  27.774  18.841  0.0020  0.3355 -0.0062
  159POPC   C1A 1901   7.899  28.067  18.589  0.2574  0.2053  0.0889
  159POPC   D2A 1902   8.072  28.291  18.229  0.1127 -0.0654 -0.0089
  159POPC   C3A 1903   7.778  28.361  17.839 -0.0576  0.2621  0.0410
  159POPC   C4A 1904   7.391  28.105  17.785 -0.4127  0.1528 -0.4006
  159POPC   C1B 1905   7.013  27.935  18.658 -0.0622 -0.0248 -0.0606
  159POPC   C2B 1906   6.948  28.061  18.190  0.2494 -0.0145 -0.0771
  159POPC   C3B 1907   6.885  28.205  17.771 -0.1751  0.0589  0.1553
  159POPC   C4B 1908   7.098  28.127  17.337 -0.0094 -0.1165  0.2439
  160POPC   NC3 1909   3.266  12.149  19.577 -0.0902  0.0311  0.2012
  160POPC   PO4 1910   2.849  12.128  19.590 -0.0573  0.1294  0.1792
  160POPC   GL1 1911   2.993  11.921  19.274 -0.0602  0.1295  0.0996
  160POPC   GL2 1912   3.143  12.105  19.029  0.2135 -0.0903 -0.0050
  160POPC   C1A 1913   3.020  11.661  18.858  0.0919 -0.3250 -0.0139
  160POPC   D2A 1914   3.358  11.466  18.585  0.0726  0.1693 -0.2084
  160POPC   C3A 1915   3.197  11.583  18.125 -0.1239 -0.4445 -0.4431
  160POPC   C4A 1916   3.387  11.712  17.765 -0.2286 -0.2426 -0.0615
  160POPC   C1B 1917   2.868  12.126  18.666  0.2281  0.2881 -0.0214
  160POPC   C2B 1918   2.968  12.085  18.183  0.1176  0.2874  0.0457
  160POPC   C3B 1919   2.884  12.063  17.686  0.1589 -0.0537 -0.0346
  160POPC   C4B 1920   3.016  11.881  17.257 -0.1174 -0.1153 -0.2860
  161POPC   NC3 1921   7.906   6.448  19.051 -0.0185 -0.3184  0.2706
  161POPC   PO4 1922   8.022   6.114  19.179  0.0002 -0.1939  0.2128
  161POPC   GL1 1923   7.975   6.127  18.737 -0.1973  0.3864 -0.2671
  161POPC   GL2 1924   7.778   6.260  18.616 -0.1679  0.2818  0.2063
  161POPC   C1A 1925   8.243   5.892  18.408  0.0665 -0.2991  0.2297
  161POPC   D2A 1926   8.626   6.101  18.214  0.1876  0.2332 -0.0433
  161POPC   C3A 1927   8.854   6.512  18.148 -0.0828 -0.2314 -0.2511
  161POPC   C4A 1928   9.056   6.615  17.760  0.1740  0.2181 -0.1755
  161POPC   C1B 1929   7.918   6.261  18.200 -0.0377  0.0729  0.0689
  161POPC   C2B 1930   8.034   6.229  17.704  0.1180  0.0936 -0.0011
  161POPC   C3B 1931   8.380   6.124  17.449 -0.2201  0.0911  0.0838
  161POPC   C4B 1932   8.607   5.790  17.246  0.3148 -0.0438  0.0413
  162POPC   NC3 1933   7.118  13.793  19.348  0.0664  0.3618 -0.0145
  162POPC   PO4 1934   7.279  13.531  19.070  0.0410  0.0437  0.0478
  162POPC   GL1 1935   7.224  13.545  18.749  0.0642 -0.3988  0.1288
  162POPC   GL2 1936   7.458  13.352  18.601 -0.0577 -0.2188 -0.0637
  162POPC   C1A 1937   7.364  13.786  18.366  0.1569 -0.1933  0.2210
  162POPC   D2A 1938   7.405  14.143  18.064  0.2994 -0.0190  0.2322
  162POPC   C3A 1939   7.567  14.279  17.645 -0.1483 -0.0042 -0.0627
  162POPC   C4A 1940   7.754  14.674  17.446 -0.2231  0.3798 -0.3060
  162POPC   C1B 1941   7.530  13.351  18.148  0.0828 -0.1355  0.1795
  162POPC   C2B 1942   7.538  13.005  17.826  0.2628 -0.0452  0.1771
  162POPC   C3B 1943   7.638  13.028  17.417 -0.0202  0.1390  0.0761
  162POPC   C4B 1944   7.784  13.060  16.976 -0.1003 -0.2758  0.0046
  163POPC   NC3 1945   1.521  28.501  19.564 -0.1992  0.1158 -0.1932
  163POPC   PO4 1946   1.151  28.613  19.470 -0.3782  0.0283 -0.1574
  163POPC   GL1 1947   1.278  28.617  19.108 -0.3741  0.3804 -0.4988
  163POPC   GL2 1948   1.387  28.345  19.067 -0.2233 -0.1038  0.0175
  163POPC   C1A 1949   1.608  28.669  18.787  0.0717 -0.2338 -0.1668
  163POPC   D2A 1950   2.002  28.689  18.571  0.1033  0.0111  0.2860
  163POPC   C3A 1951   2.164  28.557  18.188 -0.3817  0.2346 -0.3372
  163POPC   C4A 1952   2.398  28.432  17.780 -0.1193 -0.4516  0.2152
  163POPC   C1B 1953   1.442  28.181  18.628 -0.0835 -0.2968 -0.0111
  163POPC   C2B 1954   1.668  28.042  18.222  0.1573  0.1231 -0.0590
  163POPC   C3B 1955   1.863  28.239  17.853 -0.1623  0.3090 -0.1126
  163POPC   C4B 1956   1.677  28.341  17.419  0.2868  0.1534  0.0388
  164POPC   NC3 1957  14.758  24.934  19.548  0.2910  0.0888 -0.0741
  164POPC   PO4 1958  14.941  24.690  19.274 -0.0626 -0.1365 -0.2082
  164POPC   GL1 1959  14.700  24.819  18.928 -0.1295 -0.1984 -0.2134
  164POPC   GL2 1960  14.515  25.040  18.899 -0.2089 -0.1793  0.0409
  164POPC   C1A 1961  14.546  24.622  18.519 -0.2839  0.0378 -0.2626
  164POPC   D2A 1962  14.489  24.500  18.084 -0.1440  0.0318 -0.2162
  164POPC   C3A 1963  14.424  24.931  17.849  0.0941 -0.0050 -0.1504
  164POPC   C4A 1964  14.391  25.049  17.432  0.2990  0.0660  0.0543
  164POPC   C1B 1965  14.532  25.081  18.381  0.1749 -0.0033  0.1501
  164POPC   C2B 1966  14.861  25.053  18.087 -0.1576  0.0472  0.1947
  164POPC   C3B 1967  14.884  25.079  17.596 -0.1112  0.2891  0.0285
  164POPC   C4B 1968  15.248  25.102  17.419  0.1657  0.1771 -0.2837
  165POPC   NC3 1969   8.996   6.498  19.453  0.2077 -0.4294  0.0292
  165POPC   PO4 1970   8.691   6.741  19.292  0.0053  0.2395 -0.0618
  165POPC   GL1 1971   9.009   6.840  19.077 -0.1427 -0.1769  0.6265
  165POPC   GL2 1972   9.102   7.028  19.349  0.1461 -0.2011 -0.1546
  165POPC   C1A 1973   8.991   7.030  18.625 -0.1078 -0.0456 -0.4151
  165POPC   D2A 1974   8.737   7.076  18.190 -0.0128 -0.0171  0.0235
  165POPC   C3A 1975   8.759   7.183  17.742  0.3270  0.3966 -0.2998
  165POPC   C4A 1976   9.002   7.138  17.316 -0.3853 -0.1573  0.0083
  165POPC   C1B 1977   9.324   7.236  18.995 -0.2417 -0.3707  0.0621
  165POPC   C2B 1978   9.621   7.546  18.828  0.3300 -0.0327  0.2308
  165POPC   C3B 1979   9.666   7.746  18.462 -0.2290  0.0429 -0.0959
  165POPC   C4B 1980   9.728   7.571  18.023 -0.1386  0.0672  0.2318
  166POPC   NC3 1981   0.261  31.511  19.681 -0.0017 -0.1019 -0.0450
  166POPC   PO4 1982   0.629  31.518  19.583  0.1428  0.0267  0.2235
  166POPC   GL1 1983   0.727  31.351  19.252 -0.0921  0.2425  0.0238
  166POPC   GL2 1984   0.899  31.097  19.186  0.0089  0.0659  0.1849
  166POPC   C1A 1985   0.844  31.486  18.813 -0.4304 -0.1853 -0.0881
  166POPC   D2A 1986   0.812  31.417  18.401 -0.1863 -0.0814  0.1071
  166POPC   C3A 1987   0.562  31.469  18.009 -0.1616  0.3358  0.0042
  166POPC   C4A 1988   0.554  31.474  17.521 -0.4291  0.0033 -0.1976
  166POPC   C1B 1989   0.668  30.807  18.911  0.3107  0.2266  0.0861
  166POPC   C2B 1990   0.860  30.552  18.575 -0.1506  0.4548  0.1327
  166POPC   C3B 1991   0.902  30.468  18.122 -0.2687 -0.1809 -0.1441
  166POPC   C4B 1992   1.099  30.632  17.704 -0.0357 -0.2563  0.1181
  167POPC   NC3 1993   4.615  29.176  19.231 -0.0356 -0.0525 -0.2265
  167POPC   PO4 1994   4.957  29.314  19.315 -0.3030  0.1027  0.0484
  167POPC   GL1 1995   4.972  29.284  18.946 -0.1338  0.1834 -0.0290
  167POPC   GL2 1996   4.935  29.048  18.797  0.2339  0.4164 -0.1573
  167POPC   C1A 1997   4.845  29.604  18.598 -0.0476  0.1526  0.0627
  167POPC   D2A 1998   4.756  29.776  18.213 -0.1922 -0.1523  0.3792
  167POPC   C3A 1999   4.679  29.634  17.786  0.1494  0.0579  0.1932
  167POPC   C4A 2000   4.753  29.626  17.289  0.3850 -0.1167  0.0731
  167POPC   C1B 2001   5.130  28.856  18.394  0.2033 -0.0793 -0.0747
  167POPC   C2B 2002   5.064  28.790  17.942 -0.1829  0.2008  0.1645
  167POPC   C3B 2003   4.818  28.593  17.658 -0.0035 -0.3046 -0.0701
  167POPC   C4B 2004   4.551  28.749  17.363 -0.3432  0.2496  0.1099
  168POPC   NC3 2005   9.716  27.533  18.938  0.1071 -0.2202  0.0465
  168POPC   PO4 2006   9.794  27.218  19.110  0.1593 -0.0804 -0.3844
  168POPC   GL1 2007   9.818  27.030  18.797  0.2226 -0.0640 -0.3155
  168POPC   GL2 2008   9.582  26.989  18.692  0.0838  0.0236  0.1868
  168POPC   C1A 2009  10.000  26.946  18.400  0.0189 -0.0119  0.1996
  168POPC   D2A 2010  10.005  27.015  17.936 -0.1905 -0.0318 -0.1135
  168POPC   C3A 2011  10.012  26.755  17.570  0.0190  0.4304  0.0764
  168POPC   C4A 2012  10.358  26.628  17.287  0.3135 -0.3022 -0.0761
  168POPC   C1B 2013   9.562  27.059  18.205  0.2473  0.1555  0.1039
  168POPC   C2B 2014   9.522  26.990  17.687  0.1655  0.2949 -0.2830
  168POPC   C3B 2015   9.585  27.002  17.188 -0.5735  0.0434 -0.0438
  168POPC   C4B 2016   9.675  26.719  16.873 -0.1422 -0.0277  0.2187
  169POPC   NC3 2017  14.928  13.118  19.139  0.0984 -0.0447  0.2769
  169POPC   PO4 2018  14.913  13.487  19.061 -0.1257 -0.1139 -0.2999
  169POPC   GL1 2019  14.820  13.529  18.732 -0.1872  0.2229 -0.0972
  169POPC   GL2 2020  14.614  13.627  18.587  0.1929  0.0832  0.3110
  169POPC   C1A 2021  15.061  13.398  18.379 -0.2035 -0.0214  0.0835
  169POPC   D2A 2022  14.958  13.335  17.950 -0.0066 -0.0496  0.1678
  169POPC   C3A 2023  15.162  13.233  17.541  0.0851 -0.2884 -0.0663
  169POPC   C4A 2024  15.349  12.993  17.145  0.2998  0.0939  0.2597
  169POPC   C1B 2025  14.520  13.605  18.156 -0.0960  0.0438  0.3339
  169POPC   C2B 2026  14.280  13.592  17.741  0.1193  0.0320 -0.1983
  169POPC   C3B 2027  14.181  13.413  17.343 -0.1978  0.1013 -0.0788
  169POPC   C4B 2028  14.143  13.416  16.870  0.0062 -0.3706 -0.4121
  170POPC   NC3 2029  11.199  31.392  19.404 -0.3271  0.2558 -0.1752
  170POPC   PO4 2030  11.136  31.772  19.497 -0.1810 -0.0847 -0.1734
  170POPC   GL1 2031  11.218  31.979  19.158  0.0486 -0.0392 -0.1215
  170POPC   GL2 2032  11.048  32.098  18.895  0.1872  0.0970 -0.3159
  170POPC   C1A 2033  11.409  31.812  18.793 -0.0474  0.1583  0.0030
  170POPC   D2A 2034  11.262  31.658  18.396  0.5829  0.3003  0.2671
  170POPC   C3A 2035  11.204  31.593  17.903  0.0363 -0.3336 -0.2358
  170POPC   C4A 2036  11.231  31.428  17.449  0.0179 -0.1721 -0.1617
  170POPC   C1B 2037  10.949  32.091  18.428  0.0177 -0.0019  0.4835
  170POPC   C2B 2038  10.715  31.790  18.148  0.1459  0.1372  0.1048
  170POPC   C3B 2039  10.524  31.660  17.776 -0.0397  0.0283  0.1745
  170POPC   C4B 2040  10.461  31.723  17.302  0.1486 -0.4365 -0.0163
  171POPC   NC3 2041   2.690  22.429  19.050 -0.3730  0.0586  0.3204
  171POPC   PO4 2042   2.542  22.089  19.211 -0.1271  0.2595 -0.2731
  171POPC   GL1 2043   2.368  22.168  18.749  0.0977 -0.2095  0.2427
  171POPC   GL2 2044   2.107  22.103  18.715  0.2155 -0.0903  0.0174
  171POPC   C1A 2045   2.304  22.080  18.262  0.1024  0.2220  0.0634
  171POPC   D2A 2046   2.211  21.913  17.839  0.0891  0.1885 -0.1754
  171POPC   C3A 2047   2.324  21.902  17.404  0.1419  0.0421  0.0385
  171POPC   C4A 2048   2.035  22.108  17.118 -0.3178  0.2530 -0.0525
  171POPC   C1B 2049   1.785  21.929  18.441  0.0595  0.0260  0.2392
  171POPC   C2B 2050   1.689  22.009  18.002  0.0698  0.1799 -0.0254
  171POPC   C3B 2051   1.385  21.951  17.672 -0.1038 -0.3475 -0.1480
  171POPC   C4B 2052   1.027  21.915  17.348  0.0912  0.0035 -0.0564
  172POPC   NC3 2053   4.510  12.147  19.033  0.0918 -0.0057 -0.1655
  172POPC   PO4 2054   4.708  11.868  19.278  0.0559  0.1250  0.1770
  172POPC   GL1 2055   4.708  11.767  18.864  0.2136  0.2648  0.0152
  172POPC   GL2 2056   4.709  11.971  18.609 -0.0104  0.2660 -0.0292
  172POPC   C1A 2057   4.871  11.537  18.440  0.0327 -0.3612 -0.0671
  172POPC   D2A 2058   4.918  11.546  17.955  0.0704 -0.0131 -0.0816
  172POPC   C3A 2059   4.596  11.692  17.612 -0.2573 -0.0244  0.1808
  172POPC   C4A 2060   4.433  11.623  17.161  0.1312  0.2159  0.0667
  172POPC   C1B 2061   4.880  11.990  18.174 -0.0933  0.2007  0.0734
  172POPC   C2B 2062   5.053  11.999  17.746  0.2721 -0.1743 -0.0252
  172POPC   C3B 2063   5.343  12.125  17.400  0.0574  0.2570  0.1257
  172POPC   C4B 2064   5.615  12.047  17.069  0.0822 -0.0013  0.0533
  173POPC   NC3 2065   6.678   9.803  19.026  0.0450  0.1607  0.2184
  173POPC   PO4 2066   6.261   9.779  19.056 -0.3391 -0.1230 -0.0890
  173POPC   GL1 2067   6.056   9.786  18.722 -0.0224  0.0136 -0.0452
  173POPC   GL2 2068   6.255   9.954  18.517 -0.3781 -0.0431  0.1667
  173POPC   C1A 2069   5.911   9.850  18.255 -0.0099 -0.1077 -0.0427
  173POPC   D2A 2070   5.704   9.868  17.857  0.2004 -0.0896 -0.4457
  173POPC   C3A 2071   5.411   9.997  17.494 -0.0656  0.0930  0.0454
  173POPC   C4A 2072   5.142  10.278  17.291  0.0441 -0.1272 -0.0293
  173POPC   C1B 2073   6.388  10.016  18.059  0.1103  0.1074  0.1752
  173POPC   C2B 2074   6.173  10.037  17.589 -0.1004 -0.0199 -0.3237
  173POPC   C3B 2075   6.158  10.061  17.130  0.0381  0.2432  0.1934
  173POPC   C4B 2076   6.106   9.939  16.700  0.1702 -0.0913 -0.2901
  174POPC   NC3 2077  11.138  25.173  19.833 -0.3778 -0.2255  0.1876
  174POPC   PO4 2078  10.810  25.239  19.669  0.0308  0.1377  0.0313
  174POPC   GL1 2079  11.007  25.257  19.337 -0.0606  0.1023 -0.3406
  174POPC   GL2 2080  10.871  25.002  19.208  0.0994  0.0108 -0.3445
  174POPC   C1A 2081  11.410  25.329  19.114 -0.0573  0.0180 -0.4039
  174POPC   D2A 2082  11.635  25.669  18.822 -0.1089 -0.1572  0.0981
  174POPC   C3A 2083  11.971  25.477  18.601 -0.3486 -0.2789 -0.0525
  174POPC   C4A 2084  12.359  25.509  18.313 -0.0432 -0.1791 -0.4597
  174POPC   C1B 2085  10.906  25.181  18.790 -0.0963 -0.0517 -0.2480
  174POPC   C2B 2086  10.724  24.989  18.403  0.2138 -0.0516  0.1677
  174POPC   C3B 2087  10.460  24.801  18.047  0.0174 -0.1264  0.2718
  174POPC   C4B 2088  10.077  24.705  17.746  0.0149  0.0161 -0.1303
  175POPC   NC3 2089  10.687  21.653  19.685  0.0118 -0.2076 -0.0319
  175POPC   PO4 2090  10.426  21.400  19.837 -0.0650  0.1243  0.0704
  175POPC   GL1 2091  10.303  21.251  19.464  0.1803 -0.1417 -0.0821
  175POPC   GL2 2092  10.556  21.342  19.298 -0.5215  0.3498 -0.3065
  175POPC   C1A 2093   9.980  20.948  19.343 -0.1699 -0.3092 -0.0065
  175POPC   D2A 2094   9.907  20.522  19.143 -0.0905  0.1634 -0.0145
  175POPC   C3A 2095   9.660  20.528  18.850  0.3704  0.1366  0.1902
  175POPC   C4A 2096   9.478  20.689  18.510 -0.1712  0.0982 -0.0760
  175POPC   C1B 2097  10.291  21.187  19.003 -0.2715  0.1655  0.0514
  175POPC   C2B 2098  10.270  20.909  18.651  0.2564  0.1349 -0.1706
  175POPC   C3B 2099  10.008  20.535  18.480 -0.0120  0.3874 -0.2567
  175POPC   C4B 2100   9.776  20.535  18.108  0.0108 -0.1608 -0.0055
  176POPC   NC3 2101   3.618  31.211  19.408 -0.1010  0.4505 -0.0936
  176POPC   PO4 2102   3.867  31.415  19.107 -0.0521 -0.3055  0.2998
  176POPC   GL1 2103   3.713  31.496  18.718 -0.3644 -0.1356 -0.0652
  176POPC   GL2 2104   3.570  31.317  18.677 -0.1953  0.0503 -0.1386
  176POPC   C1A 2105   3.607  31.668  18.296 -0.0493 -0.2792 -0.1938
  176POPC   D2A 2106   3.432  31.720  17.943 -0.0152 -0.1895  0.1135
  176POPC   C3A 2107   3.410  31.736  17.469 -0.0848  0.0863  0.0167
  176POPC   C4A 2108   3.184  31.660  17.086  0.2248 -0.3277 -0.1532
  176POPC   C1B 2109   3.430  31.160  18.300 -0.1269 -0.0033  0.2728
  176POPC   C2B 2110   3.202  30.879  17.976  0.0506 -0.2256 -0.2523
  176POPC   C3B 2111   3.242  30.708  17.538 -0.2230  0.0042  0.1913
  176POPC   C4B 2112   3.476  30.405  17.243 -0.0991 -0.1154 -0.0994
  177POPC   NC3 2113   9.183  13.460  19.482  0.0390 -0.0172 -0.0625
  177POPC   PO4 2114   8.935  13.175  19.500 -0.0146 -0.0982  0.1319
  177POPC   GL1 2115   9.067  13.197  19.113 -0.3985 -0.1234 -0.1440
  177POPC   GL2 2116   8.789  13.159  18.937  0.1174 -0.0256 -0.0469
  177POPC   C1A 2117   9.265  13.017  18.722  0.0347  0.1065 -0.1181
  177POPC   D2A 2118   9.544  12.741  18.511  0.3788  0.2984 -0.1227
  177POPC   C3A 2119   9.974  12.604  18.667  0.4767 -0.0523 -0.0666
  177POPC   C4A 2120  10.402  12.615  18.473  0.0415  0.3259  0.2810
  177POPC   C1B 2121   8.877  13.192  18.491 -0.0718 -0.1168 -0.0245
  177POPC   C2B 2122   9.114  13.382  18.151  0.0686 -0.0904 -0.2093
  177POPC   C3B 2123   9.056  13.522  17.736 -0.0770  0.1251  0.2845
  177POPC   C4B 2124   8.999  13.482  17.323 -0.3221  0.0349 -0.0226
  178POPC   NC3 2125   9.429  11.110  19.629  0.3255 -0.1823  0.1274
  178POPC   PO4 2126   9.105  11.113  19.462  0.2283  0.0610  0.2066
  178POPC   GL1 2127   9.320  10.818  19.230 -0.0965  0.1545 -0.2381
  178POPC   GL2 2128   9.118  10.611  19.188  0.0542 -0.0592 -0.2208
  178POPC   C1A 2129   9.629  10.591  19.021  0.2691 -0.2360  0.1692
  178POPC   D2A 2130   9.897  10.305  18.734  0.0875 -0.2543  0.1211
  178POPC   C3A 2131  10.096  10.440  18.352 -0.2279  0.0488 -0.1548
  178POPC   C4A 2132  10.062  10.672  17.974 -0.0195  0.1086 -0.0285
  178POPC   C1B 2133   9.240  10.285  18.901  0.1367  0.2077  0.2704
  178POPC   C2B 2134   9.467  10.157  18.547  0.0312 -0.0113  0.1800
  178POPC   C3B 2135   9.702  10.156  18.094 -0.2226  0.0108 -0.1836
  178POPC   C4B 2136   9.769  10.201  17.642  0.0869  0.0435  0.2186
  179POPC   NC3 2137   5.126  23.934  19.521  0.0157  0.0885  0.2310
  179POPC   PO4 2138   4.884  23.678  19.378  0.0263 -0.0927  0.0133
  179POPC   GL1 2139   5.187  23.595  19.159 -0.2501 -0.0403  0.3159
  179POPC   GL2 2140   5.328  23.383  19.015  0.0301  0.0444  0.0214
  179POPC   C1A 2141   5.162  23.794  18.701  0.0125  0.3182  0.2045
  179POPC   D2A 2142   5.267  24.024  18.343 -0.2710 -0.0794 -0.0492
  179POPC   C3A 2143   5.593  24.123  18.050  0.1827 -0.3080 -0.2100
  179POPC   C4A 2144   5.915  24.275  17.792  0.1082 -0.0096  0.0348
  179POPC   C1B 2145   5.606  23.481  18.640  0.1733  0.1962 -0.0139
  179POPC   C2B 2146   5.922  23.722  18.357 -0.1028  0.1602  0.1991
  179POPC   C3B 2147   5.911  23.733  17.910  0.0795 -0.0274 -0.1381
  179POPC   C4B 2148   6.032  23.626  17.462  0.0016  0.2735 -0.0330
  180POPC   NC3 2149   5.070  15.171  19.497  0.2923  0.1674 -0.0672
  180POPC   PO4 2150   5.199  14.770  19.500  0.1650  0.0058  0.0488
  180POPC   GL1 2151   5.093  14.823  19.126  0.3943 -0.0767  0.2249
  180POPC   GL2 2152   5.387  14.800  18.979 -0.0430  0.1212  0.1375
  180POPC   C1A 2153   4.985  14.804  18.707  0.2936  0.0340 -0.3025
  180POPC   D2A 2154   5.002  14.894  18.281  0.3199  0.0897  0.1949
  180POPC   C3A 2155   4.978  15.241  18.006  0.1529  0.0932 -0.1212
  180POPC   C4A 2156   5.056  15.684  17.923  0.0728  0.0210  0.2669
  180POPC   C1B 2157   5.332  15.106  18.628 -0.2428 -0.0963  0.0480
  180POPC   C2B 2158   5.401  15.425  18.266  0.1673  0.0733 -0.3587
  180POPC   C3B 2159   5.576  15.441  17.841 -0.3759  0.0018 -0.1476
  180POPC   C4B 2160   5.487  15.577  17.394 -0.0085  0.1620  0.0946
  181POPC   NC3 2161   3.367   7.637  19.194  0.1026 -0.1782 -0.1391
  181POPC   PO4 2162   3.070   7.820  19.098 -0.1298  0.1842 -0.0494
  181POPC   GL1 2163   3.019   7.974  18.824  0.0438  0.1693 -0.0089
  181POPC   GL2 2164   2.839   7.842  18.646 -0.1754 -0.0355  0.1727
  181POPC   C1A 2165   3.135   8.229  18.457  0.0164  0.0054 -0.1856
  181POPC   D2A 2166   3.206   8.136  18.020 -0.0612  0.3594  0.3665
  181POPC   C3A 2167   3.000   7.997  17.592  0.2599  0.2360 -0.0306
  181POPC   C4A 2168   2.680   7.874  17.314  0.0172 -0.0350 -0.0353
  181POPC   C1B 2169   2.725   7.947  18.201 -0.1758 -0.1885 -0.1540
  181POPC   C2B 2170   2.520   7.949  17.804  0.1195  0.3040  0.0100
  181POPC   C3B 2171   2.276   7.701  17.589 -0.4216  0.0429 -0.1556
  181POPC   C4B 2172   2.234   7.237  17.712  0.2073 -0.0109 -0.0139
  182POPC   NC3 2173   2.095  30.396  19.274 -0.0155  0.3997 -0.0218
  182POPC   PO4 2174   1.961  30.037  19.189 -0.2114 -0.0899 -0.3585
  182POPC   GL1 2175   2.141  30.112  18.821  0.2463 -0.2697 -0.2588
  182POPC   GL2 2176   2.079  29.803  18.778 -0.0114 -0.2745  0.2169
  182POPC   C1A 2177   2.398  30.261  18.467 -0.1465 -0.0686  0.0336
  182POPC   D2A 2178   2.357  30.277  18.007 -0.0266  0.0133  0.2265
  182POPC   C3A 2179   2.195  30.407  17.588 -0.3029 -0.2810  0.0270
  182POPC   C4A 2180   1.892  30.726  17.375  0.1472  0.2980 -0.0576
  182POPC   C1B 2181   2.159  29.801  18.329  0.0298  0.4561 -0.1253
  182POPC   C2B 2182   1.909  29.575  18.032  0.0089  0.0740  0.2484
  182POPC   C3B 2183   1.769  29.204  17.757 -0.0927 -0.0648 -0.2430
  182POPC   C4B 2184   1.912  29.138  17.340 -0.0964 -0.2067  0.0678
  183POPC   NC3 2185   5.752  25.234  19.556 -0.1514  0.0985  0.1205
  183POPC   PO4 2186   5.877  25.116  19.208  0.0332  0.0895  0.1963
  183POPC   GL1 2187   5.935  25.192  18.786 -0.1497 -0.2828 -0.0749
  183POPC   GL2 2188   6.168  25.384  18.885  0.0184 -0.0261  0.0917
  183POPC   C1A 2189   5.988  25.088  18.306 -0.1598  0.0658 -0.2061
  183POPC   D2A 2190   5.979  25.079  17.855  0.2380 -0.0554  0.1715
  183POPC   C3A 2191   6.190  24.813  17.566 -0.2892 -0.1912  0.4447
  183POPC   C4A 2192   6.221  24.819  17.120 -0.3728  0.3224  0.0254
  183POPC   C1B 2193   6.219  25.586  18.417 -0.1220 -0.0335 -0.2321
  183POPC   C2B 2194   6.179  25.642  17.957 -0.2348  0.1083  0.0229
  183POPC   C3B 2195   5.889  25.591  17.592  0.0853 -0.2691 -0.1688
  183POPC   C4B 2196   5.876  25.183  17.371 -0.1758  0.0052 -0.0174
  184POPC   NC3 2197   5.344  18.530  18.997  0.0264  0.4432  0.0309
  184POPC   PO4 2198   5.103  18.211  19.163  0.0775  0.1436  0.0150
  184POPC   GL1 2199   5.089  18.218  18.774 -0.1339  0.0111 -0.1779
  184POPC   GL2 2200   5.207  18.055  18.661  0.1343 -0.2755 -0.0366
  184POPC   C1A 2201   4.771  18.245  18.439 -0.0928 -0.2404  0.2853
  184POPC   D2A 2202   4.744  18.309  17.979  0.0682 -0.0077  0.0933
  184POPC   C3A 2203   4.476  18.002  17.777 -0.4837 -0.0878 -0.0993
  184POPC   C4A 2204   4.269  17.742  17.467 -0.2686 -0.0707  0.4431
  184POPC   C1B 2205   5.315  18.030  18.245  0.0879 -0.1156 -0.1162
  184POPC   C2B 2206   5.171  18.064  17.826  0.1244 -0.1437 -0.1509
  184POPC   C3B 2207   4.855  18.136  17.471  0.3285 -0.3022  0.0356
  184POPC   C4B 2208   4.539  18.072  17.117 -0.0469  0.1440 -0.1097
  185POPC   NC3 2209   4.816   2.834  19.165  0.2143 -0.0960  0.2966
  185POPC   PO4 2210   4.430   2.797  19.185 -0.1830  0.2126 -0.2768
  185POPC   GL1 2211   4.381   2.646  18.841 -0.0696 -0.2924 -0.4070
  185POPC   GL2 2212   4.565   2.835  18.614 -0.1903  0.1843  0.2833
  185POPC   C1A 2213   4.011   2.439  18.593 -0.0641 -0.1069  0.1662
  185POPC   D2A 2214   3.916   2.082  18.287 -0.0132 -0.0782  0.3195
  185POPC   C3A 2215   4.042   1.910  17.868 -0.0472 -0.2076  0.0254
  185POPC   C4A 2216   3.984   1.679  17.502 -0.0091  0.3588  0.2420
  185POPC   C1B 2217   4.124   2.854  18.362 -0.1415  0.0456  0.0828
  185POPC   C2B 2218   3.910   2.973  18.012 -0.2134 -0.1185  0.0465
  185POPC   C3B 2219   3.896   2.900  17.535 -0.0969 -0.2979 -0.0784
  185POPC   C4B 2220   3.937   2.991  17.046  0.0901 -0.1496 -0.0681
  186POPC   NC3 2221   9.869   3.419  19.209 -0.0019  0.3347 -0.0012
  186POPC   PO4 2222  10.278   3.478  19.361 -0.0449 -0.0007 -0.1394
  186POPC   GL1 2223  10.309   3.257  19.045  0.0965  0.3425 -0.0906
  186POPC   GL2 2224  10.467   3.026  19.176  0.2921 -0.2026  0.0107
  186POPC   C1A 2225  10.417   3.004  18.655  0.1341 -0.1053 -0.0678
  186POPC   D2A 2226  10.559   2.750  18.266  0.0462  0.0694  0.0159
  186POPC   C3A 2227  10.772   2.708  17.891  0.0282  0.1767 -0.1391
  186POPC   C4A 2228  10.886   2.720  17.400  0.0130 -0.2067  0.0400
  186POPC   C1B 2229  10.814   2.805  18.966 -0.5041 -0.1204  0.2258
  186POPC   C2B 2230  11.060   2.669  18.642 -0.3625 -0.0077 -0.0991
  186POPC   C3B 2231  11.112   2.710  18.206 -0.3615  0.1877 -0.0230
  186POPC   C4B 2232  11.279   2.611  17.785 -0.0162  0.0383 -0.0613
  187POPC   NC3 2233   2.166  14.966  19.282 -0.1055 -0.1965 -0.0342
  187POPC   PO4 2234   2.359  14.610  19.221 -0.1781 -0.0889 -0.1499
  187POPC   GL1 2235   2.674  14.496  19.047  0.0920 -0.0395 -0.3141
  187POPC   GL2 2236   2.687  14.200  18.852  0.0259  0.0594  0.0496
  187POPC   C1A 2237   2.666  14.612  18.545 -0.4002  0.3621  0.2692
  187POPC   D2A 2238   2.408  14.366  18.227  0.0601  0.4941  0.1179
  187POPC   C3A 2239   2.562  14.216  17.850 -0.0763 -0.2084  0.1510
  187POPC   C4A 2240   2.435  14.002  17.404  0.0168 -0.0090 -0.0185
  187POPC   C1B 2241   2.789  14.129  18.408 -0.3015  0.1706  0.0879
  187POPC   C2B 2242   3.047  14.286  18.084 -0.5174 -0.0713  0.2099
  187POPC   C3B 2243   3.201  14.567  17.712 -0.0963  0.0907  0.0260
  187POPC   C4B 2244   3.547  14.384  17.531  0.0453 -0.2031 -0.2766
  188POPC   NC3 2245   2.488  25.673  19.036  0.0156  0.0197 -0.1852
  188POPC   PO4 2246   2.886  25.717  19.083 -0.0103  0.0718  0.3722
  188POPC   GL1 2247   3.024  25.787  18.815 -0.3517 -0.0589  0.1115
  188POPC   GL2 2248   3.145  26.092  18.880  0.1413  0.1078 -0.0011
  188POPC   C1A 2249   2.788  26.003  18.436  0.1034  0.4076 -0.0712
  188POPC   D2A 2250   2.642  26.226  18.012 -0.0897 -0.1283  0.1012
  188POPC   C3A 2251   2.658  26.257  17.513 -0.3456 -0.1227 -0.0921
  188POPC   C4A 2252   2.999  26.221  17.250 -0.0320  0.1708  0.4371
  188POPC   C1B 2253   3.359  26.440  18.701 -0.2474  0.1794 -0.0263
  188POPC   C2B 2254   3.630  26.672  18.375  0.2374  0.0963  0.0246
  188POPC   C3B 2255   3.549  26.724  17.903  0.0494 -0.1230  0.0240
  188POPC   C4B 2256   3.367  26.910  17.461  0.0682  0.3643 -0.1090
  189POPC   NC3 2257   5.718  31.563  19.537 -0.1459  0.1542  0.0101
  189POPC   PO4 2258   5.465  31.798  19.416  0.2064 -0.1714 -0.2012
  189POPC   GL1 2259   5.250  31.884  19.020 -0.3666  0.1700  0.1128
  189POPC   GL2 2260   5.096  31.585  18.943 -0.0486 -0.0866 -0.1569
  189POPC   C1A 2261   5.414  32.182  18.669 -0.1244 -0.0386 -0.0070
  189POPC   D2A 2262   5.346  32.551  18.414 -0.0127  0.0531  0.0596
  189POPC   C3A 2263   5.643  32.759  18.088  0.1612 -0.1519 -0.0844
  189POPC   C4A 2264   6.016  32.679  17.872 -0.3148 -0.1044  0.0702
  189POPC   C1B 2265   5.353  31.655  18.592  0.0125 -0.1629  0.0491
  189POPC   C2B 2266   5.499  31.804  18.151 -0.0517 -0.2570 -0.0052
  189POPC   C3B 2267   5.548  31.860  17.704 -0.4168  0.2879 -0.0189
  189POPC   C4B 2268   5.846  31.982  17.401 -0.2304 -0.2379  0.1619
  190POPC   NC3 2269  10.661  26.683  19.512  0.0907 -0.2323  0.0081
  190POPC   PO4 2270  10.276  26.751  19.498  0.0117 -0.0004  0.2738
  190POPC   GL1 2271  10.139  26.876  19.201 -0.0351  0.1832 -0.0723
  190POPC   GL2 2272  10.115  26.601  19.016  0.0024  0.1260  0.4554
  190POPC   C1A 2273  10.372  27.008  18.838 -0.0787 -0.0913 -0.0801
  190POPC   D2A 2274  10.504  26.733  18.441  0.2334 -0.1940 -0.3602
  190POPC   C3A 2275  10.432  26.716  17.987 -0.1174  0.0413 -0.0621
  190POPC   C4A 2276  10.418  27.017  17.640 -0.0260 -0.0003  0.0979
  190POPC   C1B 2277  10.149  26.447  18.553 -0.0875 -0.1309  0.1971
  190POPC   C2B 2278   9.878  26.587  18.116  0.2241  0.3793 -0.0697
  190POPC   C3B 2279   9.561  26.487  17.795  0.2428 -0.1626 -0.1835
  190POPC   C4B 2280   9.478  26.530  17.360  0.1137 -0.0322 -0.0558
  191POPC   NC3 2281   1.123  23.332  19.524 -0.1659  0.1109  0.3418
  191POPC   PO4 2282   0.696  23.289  19.528 -0.4491 -0.1163 -0.0449
  191POPC   GL1 2283   0.695  23.099  19.178  0.1766  0.1032 -0.4871
  191POPC   GL2 2284   0.709  23.375  19.069 -0.0534 -0.2932  0.0573
  191POPC   C1A 2285   0.664  23.019  18.720 -0.1169  0.0406 -0.1301
  191POPC   D2A 2286   0.516  23.143  18.279 -0.2017 -0.0141  0.0813
  191POPC   C3A 2287   0.472  22.903  17.946  0.1310 -0.0923 -0.2102
  191POPC   C4A 2288   0.770  22.693  17.670 -0.0018  0.1033  0.1543
  191POPC   C1B 2289   0.534  23.515  18.637  0.1155  0.3928 -0.2211
  191POPC   C2B 2290   0.262  23.548  18.272  0.3771 -0.0907  0.1655
  191POPC   C3B 2291   0.344  23.400  17.852  0.1651  0.0055 -0.0774
  191POPC   C4B 2292   0.475  23.121  17.469 -0.3727 -0.2664 -0.0577
  192POPC   NC3 2293  13.207  18.904  19.151 -0.0564 -0.0267 -0.2705
  192POPC   PO4 2294  13.524  18.673  19.281 -0.0202 -0.2899  0.1012
  192POPC   GL1 2295  13.798  18.612  18.967 -0.0405  0.2581  0.0367
  192POPC   GL2 2296  13.742  18.934  18.912 -0.5130  0.1065 -0.0754
  192POPC   C1A 2297  13.917  18.133  18.797 -0.1897 -0.2261  0.0987
  192POPC   D2A 2298  13.899  17.957  18.356  0.2384 -0.0595  0.0165
  192POPC   C3A 2299  13.723  17.969  17.923  0.3059  0.0949  0.3189
  192POPC   C4A 2300  13.337  17.838  17.704 -0.0998  0.2428  0.2442
  192POPC   C1B 2301  13.789  18.775  18.482 -0.1533  0.3124  0.1662
  192POPC   C2B 2302  13.848  18.547  18.050 -0.0177 -0.0652 -0.2991
  192POPC   C3B 2303  13.906  18.693  17.631  0.0101  0.1720 -0.1460
  192POPC   C4B 2304  13.849  18.932  17.255 -0.0712 -0.0259 -0.1164
  193POPC   NC3 2305   1.800  20.695  20.017  0.1700 -0.1196  0.4003
  193POPC   PO4 2306   1.626  20.646  19.635 -0.0939  0.0862 -0.3804
  193POPC   GL1 2307   1.422  20.434  19.344  0.5394  0.1388  0.1522
  193POPC   GL2 2308   1.133  20.266  19.252  0.0942  0.2690 -0.1819
  193POPC   C1A 2309   1.304  20.686  18.970  0.0132 -0.0493  0.1624
  193POPC   D2A 2310   1.570  20.878  18.703  0.1161 -0.1607 -0.0247
  193POPC   C3A 2311   1.555  20.849  18.238 -0.1277 -0.0400 -0.2017
  193POPC   C4A 2312   1.484  20.966  17.758  0.1138  0.0754  0.2684
  193POPC   C1B 2313   1.075  20.316  18.773 -0.2627  0.2712 -0.1311
  193POPC   C2B 2314   1.019  20.390  18.304  0.4116  0.0231 -0.1046
  193POPC   C3B 2315   1.020  20.763  18.016  0.0644  0.0073 -0.2709
  193POPC   C4B 2316   0.576  20.860  17.889 -0.0336  0.1637  0.3729
  194POPC   NC3 2317   4.017  30.412  19.152  0.3244 -0.2289 -0.1381
  194POPC   PO4 2318   3.843  30.109  19.306  0.2431  0.0967 -0.1188
  194POPC   GL1 2319   3.926  30.045  18.850 -0.1788  0.2479 -0.3557
  194POPC   GL2 2320   4.217  30.081  18.841  0.0667  0.0570  0.0199
  194POPC   C1A 2321   3.969  30.181  18.404  0.2555  0.0988 -0.0826
  194POPC   D2A 2322   4.019  30.455  18.062  0.1063 -0.2777  0.0956
  194POPC   C3A 2323   4.159  30.516  17.648 -0.4256  0.1220 -0.0585
  194POPC   C4A 2324   4.218  30.537  17.220  0.0854  0.2661  0.1515
  194POPC   C1B 2325   4.333  29.757  18.540 -0.3752 -0.2650 -0.0772
  194POPC   C2B 2326   4.321  29.884  18.079 -0.1446 -0.2351 -0.0713
  194POPC   C3B 2327   4.093  29.742  17.702 -0.0280 -0.1052 -0.1367
  194POPC   C4B 2328   3.770  29.701  17.389  0.2484  0.0099 -0.0402
  195POPC   NC3 2329   1.684  25.534  18.602 -0.1061 -0.0051  0.1175
  195POPC   PO4 2330   1.728  25.164  18.700  0.1442  0.0522 -0.2471
  195POPC   GL1 2331   1.575  25.100  18.411 -0.1699 -0.2919 -0.3637
  195POPC   GL2 2332   1.339  25.179  18.349 -0.3278  0.3620  0.3528
  195POPC   C1A 2333   1.750  25.256  18.026  0.0998  0.0457 -0.0656
  195POPC   D2A 2334   1.886  25.198  17.564  0.0810 -0.0446 -0.0034
  195POPC   C3A 2335   1.728  24.890  17.261 -0.1173  0.0425 -0.0036
  195POPC   C4A 2336   1.706  24.459  17.203  0.1377  0.1947  0.2438
  195POPC   C1B 2337   1.249  25.023  17.924  0.1428 -0.1887 -0.0732
  195POPC   C2B 2338   1.144  24.928  17.522 -0.0148 -0.2842 -0.1311
  195POPC   C3B 2339   1.223  24.787  17.071  0.0443 -0.2278 -0.0241
  195POPC   C4B 2340   1.377  24.433  16.823  0.0594  0.2698  0.4881
  196POPC   NC3 2341  13.139  29.203  19.450 -0.0101 -0.2580  0.3631
  196POPC   PO4 2342  13.026  29.462  19.202  0.0069  0.0708  0.1552
  196POPC   GL1 2343  12.818  29.352  18.995 -0.0806 -0.1119  0.7955
  196POPC   GL2 2344  12.509  29.288  19.012  0.1701  0.1789  0.0390
  196POPC   C1A 2345  12.723  29.134  18.605 -0.2247  0.1392  0.2175
  196POPC   D2A 2346  12.531  29.152  18.196  0.2351  0.0855 -0.1214
  196POPC   C3A 2347  12.772  29.237  17.819 -0.2025  0.1142  0.1652
  196POPC   C4A 2348  13.029  29.332  17.426  0.1648  0.1316  0.0865
  196POPC   C1B 2349  12.237  29.112  18.657  0.6414  0.2341 -0.1140
  196POPC   C2B 2350  12.037  28.965  18.223 -0.0638 -0.1251 -0.2029
  196POPC   C3B 2351  12.168  29.195  17.828 -0.3463  0.2385  0.0214
  196POPC   C4B 2352  12.334  29.355  17.375  0.1848  0.0977  0.0341
  197POPC   NC3 2353  12.090   3.815  19.133 -0.0857  0.1601 -0.2780
  197POPC   PO4 2354  12.123   4.142  19.324  0.2142 -0.5215 -0.1094
  197POPC   GL1 2355  11.828   4.372  19.111 -0.2592  0.1307 -0.1429
  197POPC   GL2 2356  11.958   4.417  18.894  0.0101 -0.2423  0.0052
  197POPC   C1A 2357  11.611   4.084  18.811  0.1424 -0.1406  0.0776
  197POPC   D2A 2358  11.569   3.770  18.512 -0.0239 -0.2358  0.1374
  197POPC   C3A 2359  11.702   3.762  18.121 -0.0838 -0.2621  0.2915
  197POPC   C4A 2360  12.032   3.617  17.835 -0.1996  0.2387 -0.0196
  197POPC   C1B 2361  12.017   4.146  18.542  0.1386 -0.1973  0.0425
  197POPC   C2B 2362  12.068   4.104  18.113 -0.0267 -0.2954  0.2552
  197POPC   C3B 2363  12.062   4.223  17.703  0.1550 -0.0816 -0.0724
  197POPC   C4B 2364  11.971   4.367  17.252 -0.1546  0.0495 -0.1554
  198POPC   NC3 2365   1.954   9.808  19.302 -0.0637  0.0437  0.0883
  198POPC   PO4 2366   1.575   9.715  19.203  0.2162 -0.1981 -0.0569
  198POPC   GL1 2367   1.676   9.742  18.869 -0.0571  0.0506 -0.0159
  198POPC   GL2 2368   2.005   9.651  18.760  0.0374 -0.1527 -0.4218
  198POPC   C1A 2369   1.459  10.060  18.608 -0.1390  0.0397 -0.1317
  198POPC   D2A 2370   1.288   9.919  18.234 -0.2726  0.1917  0.0125
  198POPC   C3A 2371   1.580  10.006  17.878  0.1203 -0.4376 -0.0530
  198POPC   C4A 2372   1.868   9.919  17.492 -0.1616  0.0114 -0.0790
  198POPC   C1B 2373   1.681   9.505  18.496  0.1811 -0.2981  0.1843
  198POPC   C2B 2374   1.603   9.402  18.084  0.0830  0.1861 -0.4081
  198POPC   C3B 2375   1.586   9.443  17.639  0.0800 -0.0095 -0.1460
  198POPC   C4B 2376   1.521   9.109  17.342 -0.2037  0.3923  0.0253
  199POPC   NC3 2377   0.522  30.756  19.378 -0.1562  0.1694  0.0368
  199POPC   PO4 2378   0.349  31.131  19.370  0.1931  0.1020  0.1822
  199POPC   GL1 2379   0.241  31.091  18.987 -0.1743 -0.0882  0.4358
  199POPC   GL2 2380   0.180  30.833  18.961 -0.0758 -0.0220 -0.1320
  199POPC   C1A 2381   0.527  31.128  18.568 -0.3187 -0.1723 -0.2009
  199POPC   D2A 2382   0.744  30.959  18.215  0.2947  0.3285  0.2474
  199POPC   C3A 2383   0.584  30.974  17.750 -0.0919  0.3092 -0.2008
  199POPC   C4A 2384   0.331  30.973  17.431  0.1723  0.0458  0.1523
  199POPC   C1B 2385   0.351  30.694  18.521 -0.0877 -0.0276  0.0913
  199POPC   C2B 2386   0.400  30.536  18.034 -0.0082 -0.1448  0.2014
  199POPC   C3B 2387   0.556  30.434  17.597  0.4117 -0.1321 -0.2810
  199POPC   C4B 2388   0.344  30.540  17.149  0.1690  0.0341  0.1594
  200POPC   NC3 2389   7.308  28.447  19.423  0.2106  0.0039 -0.2745
  200POPC   PO4 2390   6.961  28.557  19.473 -0.1632 -0.0375  0.0305
  200POPC   GL1 2391   7.022  28.425  19.084 -0.1427 -0.1445  0.3060
  200POPC   GL2 2392   6.806  28.225  18.997  0.1551 -0.2775  0.1919
  200POPC   C1A 2393   7.356  28.256  18.783  0.0434  0.2830 -0.0104
  200POPC   D2A 2394   7.404  28.152  18.338 -0.3769 -0.0099  0.3160
  200POPC   C3A 2395   7.749  27.897  18.129 -0.0619 -0.0232  0.3900
  200POPC   C4A 2396   7.872  27.518  17.890 -0.1877 -0.3122 -0.0316
  200POPC   C1B 2397   6.676  28.291  18.586 -0.1855 -0.0096  0.0876
  200POPC   C2B 2398   6.642  28.643  18.248  0.1090  0.0905  0.1000
  200POPC   C3B 2399   6.786  28.748  17.808 -0.1566  0.0759 -0.1373
  200POPC   C4B 2400   6.875  28.921  17.365 -0.2487 -0.1618 -0.1661
  201POPC   NC3 2401  13.958  23.603  19.347  0.1727  0.2944 -0.0681
  201POPC   PO4 2402  13.774  23.993  19.353  0.2389  0.0052 -0.0600
  201POPC   GL1 2403  13.732  23.905  19.002  0.2676  0.1913  0.4755
  201POPC   GL2 2404  13.493  23.949  18.807  0.3257 -0.0102  0.0900
  201POPC   C1A 2405  13.891  23.830  18.526  0.0090 -0.2499  0.2876
  201POPC   D2A 2406  13.819  24.009  18.114 -0.0971  0.1114  0.1115
  201POPC   C3A 2407  13.986  24.384  17.832 -0.1405  0.0600 -0.1290
  201POPC   C4A 2408  14.313  24.522  17.537  0.4346  0.1326 -0.1582
  201POPC   C1B 2409  13.434  23.893  18.388  0.3849  0.3066 -0.0951
  201POPC   C2B 2410  13.261  23.845  17.968  0.1313  0.0146  0.3323
  201POPC   C3B 2411  12.837  23.739  17.789  0.2749 -0.0460 -0.0029
  201POPC   C4B 2412  12.440  23.707  18.046  0.0835 -0.2354  0.0481
  202POPC   NC3 2413  12.236  21.336  19.758 -0.0774  0.0314  0.1453
  202POPC   PO4 2414  11.849  21.363  19.646 -0.0579  0.2078  0.1226
  202POPC   GL1 2415  11.972  21.063  19.344  0.1849  0.6772 -0.1829
  202POPC   GL2 2416  12.172  21.250  19.239  0.1363  0.2328 -0.0160
  202POPC   C1A 2417  11.802  20.630  19.214  0.2145  0.4407  0.0078
  202POPC   D2A 2418  11.714  20.503  18.788 -0.1185 -0.0491  0.1822
  202POPC   C3A 2419  11.939  20.524  18.378  0.1325 -0.1421 -0.3417
  202POPC   C4A 2420  11.909  20.340  17.957  0.0341 -0.0976  0.3210
  202POPC   C1B 2421  11.887  21.213  18.893  0.0176 -0.2666  0.0406
  202POPC   C2B 2422  11.803  21.039  18.501 -0.1512  0.1170 -0.1022
  202POPC   C3B 2423  11.825  20.870  18.096 -0.2028  0.0459 -0.1582
  202POPC   C4B 2424  11.846  20.875  17.701 -0.3099 -0.0780 -0.0976
  203POPC   NC3 2425   4.185   2.284  19.023 -0.0060  0.1550  0.0385
  203POPC   PO4 2426   4.002   1.994  19.212 -0.2179  0.1212 -0.4009
  203POPC   GL1 2427   3.819   1.982  18.798 -0.1589 -0.1422  0.0866
  203POPC   GL2 2428   3.659   1.862  18.905  0.2126  0.1203  0.1613
  203POPC   C1A 2429   3.543   2.321  18.613  0.0007 -0.0714 -0.0416
  203POPC   D2A 2430   3.203   2.667  18.555  0.2422  0.0963 -0.0190
  203POPC   C3A 2431   3.058   2.895  18.156 -0.0676  0.0441 -0.4451
  203POPC   C4A 2432   2.938   2.930  17.729  0.1381  0.1952 -0.1799
  203POPC   C1B 2433   3.475   1.734  18.470  0.1918  0.0820 -0.3090
  203POPC   C2B 2434   3.546   1.858  18.034  0.1666  0.1658  0.2277
  203POPC   C3B 2435   3.698   2.184  17.692 -0.0646 -0.3452  0.3396
  203POPC   C4B 2436   3.984   2.387  17.416 -0.2716 -0.0459 -0.1487
  204POPC   NC3 2437   8.097  25.488  19.089 -0.1010  0.0298  0.0528
  204POPC   PO4 2438   8.333  25.340  18.831 -0.2922 -0.0201  0.1103
  204POPC   GL1 2439   8.204  25.384  18.447 -0.2393 -0.4246 -0.0899
  204POPC   GL2 2440   8.516  25.329  18.333 -0.0860 -0.0441 -0.1321
  204POPC   C1A 2441   8.021  25.529  18.063 -0.1201 -0.1043  0.2369
  204POPC   D2A 2442   7.945  25.480  17.602  0.1226 -0.2106  0.2005
  204POPC   C3A 2443   7.762  25.820  17.297 -0.1405 -0.0484 -0.2027
  204POPC   C4A 2444   7.573  25.950  16.846  0.0662 -0.3896  0.0190
  204POPC   C1B 2445   8.368  25.121  17.980 -0.4676 -0.0436 -0.1613
  204POPC   C2B 2446   8.369  25.083  17.530 -0.1580 -0.2389 -0.2638
  204POPC   C3B 2447   8.268  25.421  17.245 -0.3163 -0.1843 -0.1359
  204POPC   C4B 2448   8.465  25.847  17.384  0.0687 -0.2678 -0.1205
  205POPC   NC3 2449  10.010   5.641  18.843  0.3153  0.1162 -0.0644
  205POPC   PO4 2450  10.357   5.703  18.881  0.0970  0.2469  0.1434
  205POPC   GL1 2451  10.287   5.915  18.554  0.3560 -0.1721  0.1958
  205POPC   GL2 2452  10.203   6.149  18.708  0.0552 -0.2259 -0.2187
  205POPC   C1A 2453  10.537   5.840  18.153  0.1876  0.1522  0.2867
  205POPC   D2A 2454  10.486   5.728  17.690  0.0396 -0.4436  0.1018
  205POPC   C3A 2455  10.602   6.036  17.384 -0.1521  0.2113 -0.0691
  205POPC   C4A 2456  10.582   6.346  17.019 -0.0566  0.1306  0.1035
  205POPC   C1B 2457  10.279   6.280  18.267  0.0086 -0.0652  0.0344
  205POPC   C2B 2458  10.352   6.574  17.954  0.1396  0.0528 -0.0307
  205POPC   C3B 2459  10.133   6.912  17.694  0.1855 -0.0984 -0.1903
  205POPC   C4B 2460   9.994   7.201  17.385 -0.1805  0.0309  0.1513
  206POPC   NC3 2461   5.886  21.060  18.879 -0.0410  0.0738 -0.0135
  206POPC   PO4 2462   5.642  20.732  18.812  0.1298 -0.1218 -0.2204
  206POPC   GL1 2463   5.833  20.625  18.527  0.2622  0.1117 -0.2626
  206POPC   GL2 2464   6.133  20.671  18.599  0.1824 -0.2464  0.3100
  206POPC   C1A 2465   5.854  20.400  18.100 -0.2951  0.0020 -0.4144
  206POPC   D2A 2466   5.764  20.264  17.727  0.3185  0.0977 -0.1386
  206POPC   C3A 2467   5.495  20.415  17.376 -0.1779 -0.3687  0.0091
  206POPC   C4A 2468   5.314  20.342  16.957  0.6695  0.1336  0.1521
  206POPC   C1B 2469   6.240  20.676  18.167 -0.0384 -0.0185  0.1841
  206POPC   C2B 2470   6.206  20.612  17.719 -0.0104  0.1364 -0.4509
  206POPC   C3B 2471   6.085  20.389  17.308  0.0972  0.0538 -0.4195
  206POPC   C4B 2472   5.940  20.218  16.905 -0.0098 -0.4443 -0.0393
  207POPC   NC3 2473   3.670   0.120  18.939  0.0434 -0.1138  0.0120
  207POPC   PO4 2474   3.347  -0.106  19.091  0.0974  0.2010  0.1611
  207POPC   GL1 2475   3.242   0.098  18.816  0.2031 -0.0609  0.0555
  207POPC   GL2 2476   3.149   0.380  18.703  0.1134  0.0475 -0.0355
  207POPC   C1A 2477   3.059  -0.084  18.411  0.2667  0.0017 -0.0516
  207POPC   D2A 2478   3.071  -0.297  18.023 -0.2208  0.3773 -0.0580
  207POPC   C3A 2479   2.950  -0.270  17.561 -0.0259  0.0087 -0.0495
  207POPC   C4A 2480   2.709  -0.268  17.146 -0.0738  0.0746  0.3261
  207POPC   C1B 2481   3.395   0.373  18.310 -0.0466  0.0457 -0.1657
  207POPC   C2B 2482   3.606   0.567  17.924  0.0724 -0.0811  0.2964
  207POPC   C3B 2483   3.384   0.690  17.535 -0.0207  0.2619 -0.1083
  207POPC   C4B 2484   3.365   0.713  17.093 -0.1093  0.1074 -0.0626
  208POPC   NC3 2485   1.097  27.710  19.428  0.1441  0.0155  0.0930
  208POPC   PO4 2486   1.237  28.068  19.449  0.0730 -0.0129  0.0152
  208POPC   GL1 2487   1.108  28.020  18.981  0.5622 -0.0205  0.0887
  208POPC   GL2 2488   1.369  27.846  18.948 -0.0475  0.1717 -0.1418
  208POPC   C1A 2489   0.915  27.698  18.672  0.1176 -0.1780 -0.3106
  208POPC   D2A 2490   0.961  27.741  18.245  0.2177  0.1318  0.0985
  208POPC   C3A 2491   1.222  28.018  18.007  0.1042 -0.0937  0.3983
  208POPC   C4A 2492   1.391  28.452  17.886 -0.1208 -0.1244  0.1376
  208POPC   C1B 2493   1.788  27.986  18.853  0.2818 -0.1001  0.1260
  208POPC   C2B 2494   2.065  28.180  18.530  0.2642 -0.0303  0.1088
  208POPC   C3B 2495   2.346  28.117  18.151 -0.0996 -0.0009  0.3595
  208POPC   C4B 2496   2.739  28.006  17.912  0.0304  0.2242  0.1631
  209POPC   NC3 2497   4.149   0.424  19.133 -0.2069  0.0203 -0.2984
  209POPC   PO4 2498   4.206   0.070  19.114 -0.1798 -0.1466 -0.0966
  209POPC   GL1 2499   4.101  -0.045  18.750 -0.0424 -0.1902  0.4319
  209POPC   GL2 2500   4.059   0.189  18.491 -0.4106  0.0244 -0.3508
  209POPC   C1A 2501   4.042  -0.342  18.397  0.3728 -0.1673 -0.1959
  209POPC   D2A 2502   3.913  -0.306  17.951  0.5841 -0.0555  0.3272
  209POPC   C3A 2503   3.535  -0.476  17.663 -0.1594  0.0832 -0.2979
  209POPC   C4A 2504   3.581  -0.440  17.186 -0.0319 -0.1882  0.0613
  209POPC   C1B 2505   3.988   0.252  18.047  0.1551  0.0059 -0.2465
  209POPC   C2B 2506   3.869   0.054  17.601  0.1624  0.1980 -0.1105
  209POPC   C3B 2507   3.908  -0.025  17.153 -0.0802 -0.0216  0.2630
  209POPC   C4B 2508   3.995   0.236  16.747 -0.0180 -0.3070 -0.1728
  210POPC   NC3 2509  10.432   6.174  19.138 -0.1512  0.3227  0.0472
  210POPC   PO4 2510  10.711   6.085  18.868  0.1153  0.1492 -0.1834
  210POPC   GL1 2511  10.738   6.083  18.436  0.0270  0.0332  0.2952
  210POPC   GL2 2512  10.818   6.356  18.401 -0.2091 -0.3875 -0.0885
  210POPC   C1A 2513  11.061   5.865  18.133  0.0587 -0.0808 -0.0804
  210POPC   D2A 2514  11.001   5.575  17.715 -0.3566 -0.0472 -0.0096
  210POPC   C3A 2515  11.001   5.726  17.305 -0.1522  0.4074  0.4231
  210POPC   C4A 2516  10.995   6.024  17.027 -0.0679 -0.4162 -0.0313
  210POPC   C1B 2517  10.856   6.640  18.049 -0.1880  0.0971  0.0723
  210POPC   C2B 2518  10.925   6.859  17.651 -0.0213  0.0713  0.0068
  210POPC   C3B 2519  10.979   7.183  17.334  0.0599 -0.0292  0.1622
  210POPC   C4B 2520  11.183   7.125  16.945  0.0804 -0.0667  0.2504
  211POPC   NC3 2521  12.995  31.019  19.430 -0.0275 -0.1494  0.0893
  211POPC   PO4 2522  12.998  31.408  19.411 -0.0762 -0.0380  0.1687
  211POPC   GL1 2523  13.068  31.698  19.140  0.4602 -0.0341  0.2245
  211POPC   GL2 2524  13.041  31.996  19.205 -0.2461 -0.1383 -0.0376
  211POPC   C1A 2525  12.962  31.765  18.694  0.0497  0.0239 -0.3111
  211POPC   D2A 2526  12.852  31.981  18.310  0.0100 -0.1082 -0.1491
  211POPC   C3A 2527  12.869  32.291  18.005  0.1914 -0.0186  0.4423
  211POPC   C4A 2528  12.987  32.540  17.641 -0.1120 -0.1075  0.3989
  211POPC   C1B 2529  13.393  32.084  18.921 -0.0938 -0.2710 -0.2879
  211POPC   C2B 2530  13.349  32.255  18.505 -0.1059  0.2014 -0.0359
  211POPC   C3B 2531  13.397  32.293  18.062 -0.0455  0.1364 -0.1028
  211POPC   C4B 2532  13.461  32.444  17.606 -0.3664 -0.1155 -0.3424
  212POPC   NC3 2533  14.027  22.229  19.541  0.1111  0.0737 -0.0040
  212POPC   PO4 2534  14.406  22.286  19.659  0.2668  0.1862  0.1695
  212POPC   GL1 2535  14.573  22.282  19.200  0.3266 -0.1659  0.1240
  212POPC   GL2 2536  14.866  22.300  19.025  0.0650  0.1078 -0.3429
  212POPC   C1A 2537  14.451  22.269  18.729 -0.0623 -0.0307 -0.0584
  212POPC   D2A 2538  14.152  22.246  18.433 -0.1700  0.2952 -0.1738
  212POPC   C3A 2539  13.861  22.633  18.374 -0.4410 -0.1837  0.1865
  212POPC   C4A 2540  13.741  22.930  18.669  0.2995  0.2179 -0.1046
  212POPC   C1B 2541  14.694  21.858  18.923  0.0361 -0.1548 -0.0133
  212POPC   C2B 2542  14.586  21.491  18.675  0.2082  0.0214  0.0487
  212POPC   C3B 2543  14.680  21.288  18.242 -0.0247 -0.1408 -0.3231
  212POPC   C4B 2544  14.773  21.241  17.788 -0.0013 -0.0716 -0.1756
  213POPC   NC3 2545  11.730   3.536  19.782 -0.1186  0.3085  0.1878
  213POPC   PO4 2546  11.899   3.458  19.395 -0.1222  0.2105 -0.1769
  213POPC   GL1 2547  11.831   3.401  19.052  0.3807  0.2561 -0.1324
  213POPC   GL2 2548  11.589   3.510  18.984 -0.3190  0.1723 -0.1506
  213POPC   C1A 2549  12.020   3.585  18.710 -0.0930  0.0075 -0.0391
  213POPC   D2A 2550  12.348   3.803  18.392  0.0378  0.0491  0.0280
  213POPC   C3A 2551  12.512   3.888  17.948  0.0530  0.0696 -0.1659
  213POPC   C4A 2552  12.885   4.046  17.694  0.0715  0.0095 -0.1314
  213POPC   C1B 2553  11.601   3.273  18.563  0.1915 -0.1185  0.0343
  213POPC   C2B 2554  11.906   3.252  18.140  0.2449 -0.2361  0.1145
  213POPC   C3B 2555  12.309   3.210  17.807 -0.0704  0.0503 -0.1538
  213POPC   C4B 2556  12.595   3.289  17.473  0.2825 -0.2828  0.0312
  214POPC   NC3 2557  11.078  17.700  19.129 -0.0842  0.2846  0.1682
  214POPC   PO4 2558  11.025  17.980  19.384 -0.2350 -0.2360  0.0161
  214POPC   GL1 2559  11.001  18.133  18.990 -0.0995  0.2416  0.1365
  214POPC   GL2 2560  10.893  18.258  18.826  0.0494 -0.0530  0.0244
  214POPC   C1A 2561  11.285  18.067  18.593 -0.0875 -0.1762  0.4503
  214POPC   D2A 2562  11.415  18.104  18.196  0.5720 -0.0694  0.2676
  214POPC   C3A 2563  11.401  17.949  17.791 -0.0448  0.2477  0.0097
  214POPC   C4A 2564  11.608  18.147  17.461  0.1154  0.0543  0.2072
  214POPC   C1B 2565  10.733  18.058  18.442  0.1088  0.0528  0.0208
  214POPC   C2B 2566  10.957  18.238  18.089 -0.1426 -0.1284  0.3890
  214POPC   C3B 2567  10.806  18.342  17.642  0.3873 -0.0174  0.4362
  214POPC   C4B 2568  10.979  18.154  17.265  0.0421  0.0753 -0.2204
  215POPC   NC3 2569   6.123  10.534  19.733 -0.0709 -0.2028  0.0308
  215POPC   PO4 2570   6.260  10.467  19.383 -0.1735 -0.1665 -0.1026
  215POPC   GL1 2571   6.514  10.480  19.085  0.1778 -0.1871  0.1102
  215POPC   GL2 2572   6.375  10.251  18.903 -0.0398  0.0186  0.0023
  215POPC   C1A 2573   6.565  10.724  18.684  0.2922  0.1904  0.2780
  215POPC   D2A 2574   6.341  10.985  18.314  0.0539 -0.0147 -0.1668
  215POPC   C3A 2575   6.120  10.915  17.940  0.2879  0.0318 -0.1738
  215POPC   C4A 2576   5.881  11.052  17.559 -0.3674 -0.0284  0.0290
  215POPC   C1B 2577   6.738  10.280  18.649  0.0850 -0.0884 -0.4258
  215POPC   C2B 2578   6.829  10.211  18.197  0.0125  0.2433  0.0403
  215POPC   C3B 2579   6.734  10.223  17.747  0.1600  0.1370  0.0476
  215POPC   C4B 2580   6.677   9.966  17.347  0.3762 -0.0186  0.1416
  216POPC   NC3 2581   4.881   5.193  19.082 -0.0500  0.0873  0.1557
  216POPC   PO4 2582   5.177   5.048  19.292 -0.1440  0.1804  0.0131
  216POPC   GL1 2583   5.328   5.071  18.907 -0.1493 -0.2956 -0.2482
  216POPC   GL2 2584   5.563   4.935  18.924  0.1846  0.0208  0.0463
  216POPC   C1A 2585   5.319   4.858  18.505  0.1008 -0.0293 -0.0822
  216POPC   D2A 2586   5.527   4.624  18.157 -0.2494  0.1575  0.3434
  216POPC   C3A 2587   5.769   4.815  17.875  0.0434 -0.2933  0.0164
  216POPC   C4A 2588   5.777   5.061  17.507 -0.4330  0.1387 -0.1455
  216POPC   C1B 2589   5.775   4.691  18.629  0.1038  0.2021  0.2432
  216POPC   C2B 2590   5.966   4.353  18.279  0.2177 -0.1821  0.0663
  216POPC   C3B 2591   6.110   4.401  17.861  0.2371  0.1367 -0.0722
  216POPC   C4B 2592   6.370   4.323  17.496 -0.3062  0.1627 -0.0007
  217POPC   NC3 2593  12.041  14.787  18.949 -0.0737 -0.0136 -0.0890
  217POPC   PO4 2594  12.338  14.672  19.174 -0.0816 -0.0365 -0.3920
  217POPC   GL1 2595  12.525  14.658  18.920  0.1062 -0.2955 -0.1315
  217POPC   GL2 2596  12.572  14.417  18.771  0.0262  0.3001 -0.0086
  217POPC   C1A 2597  12.427  14.715  18.464 -0.2616  0.1495  0.1097
  217POPC   D2A 2598  12.485  14.703  18.000 -0.2591 -0.0341 -0.0100
  217POPC   C3A 2599  12.240  14.539  17.662 -0.2043 -0.2286 -0.3397
  217POPC   C4A 2600  12.154  14.751  17.269 -0.1742  0.0389 -0.1369
  217POPC   C1B 2601  12.656  14.255  18.356 -0.0651 -0.0835 -0.0247
  217POPC   C2B 2602  12.605  14.195  17.872  0.2490  0.0220 -0.0300
  217POPC   C3B 2603  12.785  13.955  17.466 -0.1834 -0.2075 -0.0934
  217POPC   C4B 2604  12.784  13.608  17.129  0.0506 -0.2950 -0.0669
  218POPC   NC3 2605   5.096   8.593  19.000  0.0597 -0.1684  0.0769
  218POPC   PO4 2606   5.244   8.962  19.095 -0.0680 -0.5079  0.1580
  218POPC   GL1 2607   5.364   8.939  18.707  0.1992 -0.3809  0.0560
  218POPC   GL2 2608   5.613   8.978  18.562  0.0384 -0.0329  0.0446
  218POPC   C1A 2609   5.320   8.625  18.374 -0.1081 -0.0249  0.2563
  218POPC   D2A 2610   5.382   8.504  17.929  0.0993  0.0196  0.0476
  218POPC   C3A 2611   5.133   8.554  17.537 -0.1205 -0.2617  0.3213
  218POPC   C4A 2612   4.953   8.877  17.304 -0.0063  0.0796 -0.1734
  218POPC   C1B 2613   5.650   8.904  18.109  0.0543  0.0139 -0.0151
  218POPC   C2B 2614   5.667   8.753  17.658 -0.0126 -0.1585 -0.1690
  218POPC   C3B 2615   5.562   8.640  17.200  0.1270  0.3587  0.1642
  218POPC   C4B 2616   5.753   8.471  16.792 -0.0243 -0.0822 -0.3933
  219POPC   NC3 2617   3.079   9.079  19.230 -0.0019 -0.0774 -0.0100
  219POPC   PO4 2618   3.136   9.462  19.149 -0.2903  0.0883  0.1576
  219POPC   GL1 2619   3.114   9.435  18.799  0.0041  0.1281 -0.1876
  219POPC   GL2 2620   3.321   9.541  18.636  0.0408  0.0269 -0.0178
  219POPC   C1A 2621   2.878   9.621  18.415 -0.0033 -0.3386  0.0913
  219POPC   D2A 2622   2.564   9.950  18.288 -0.0376  0.1909 -0.0332
  219POPC   C3A 2623   2.696  10.266  17.966  0.0948  0.4179 -0.4271
  219POPC   C4A 2624   2.615  10.463  17.566  0.1991  0.0789  0.0441
  219POPC   C1B 2625   3.325   9.687  18.192 -0.1239  0.0301 -0.1042
  219POPC   C2B 2626   3.571   9.820  17.787 -0.0297  0.0745 -0.0786
  219POPC   C3B 2627   3.806   9.904  17.426 -0.0115 -0.2711  0.1983
  219POPC   C4B 2628   4.214   9.981  17.224  0.2453  0.1344  0.1654
  220POPC   NC3 2629  13.477  12.941  19.256 -0.1876  0.1806  0.1846
  220POPC   PO4 2630  13.325  12.616  19.116  0.3757 -0.3426 -0.0942
  220POPC   GL1 2631  13.163  12.538  18.725 -0.0320 -0.4383 -0.5934
  220POPC   GL2 2632  13.052  12.236  18.738  0.1584 -0.0776 -0.0235
  220POPC   C1A 2633  12.705  12.555  18.631  0.2755 -0.1642 -0.1076
  220POPC   D2A 2634  12.284  12.652  18.562 -0.0050 -0.2912 -0.1929
  220POPC   C3A 2635  12.354  12.596  18.098 -0.2295  0.0938 -0.0707
  220POPC   C4A 2636  12.281  12.517  17.661  0.1116 -0.0346 -0.0370
  220POPC   C1B 2637  12.991  12.225  18.228  0.2176 -0.1058 -0.3519
  220POPC   C2B 2638  13.016  12.132  17.741 -0.1099 -0.0558  0.0635
  220POPC   C3B 2639  13.135  12.230  17.338  0.4445 -0.2675  0.1383
  220POPC   C4B 2640  13.187  12.433  16.857 -0.0088  0.1369 -0.2447
  221POPC   NC3 2641   4.091  12.774  19.347 -0.1253  0.1174 -0.2344
  221POPC   PO4 2642   4.114  12.517  19.038  0.3340  0.2357  0.0069
  221POPC   GL1 2643   4.017  12.675  18.660 -0.0412  0.6023 -0.2891
  221POPC   GL2 2644   4.093  12.917  18.689 -0.2024 -0.1062 -0.1472
  221POPC   C1A 2645   4.071  12.510  18.202 -0.1115  0.0198  0.2932
  221POPC   D2A 2646   3.913  12.655  17.714 -0.1136 -0.0035  0.0143
  221POPC   C3A 2647   3.482  12.739  17.537  0.2592 -0.1729 -0.3171
  221POPC   C4A 2648   3.052  12.808  17.641  0.1234  0.1807  0.0875
  221POPC   C1B 2649   4.386  12.881  18.336 -0.1765 -0.1818  0.0140
  221POPC   C2B 2650   4.413  12.824  17.830 -0.5642  0.0890 -0.2046
  221POPC   C3B 2651   4.295  12.582  17.444  0.0137 -0.0725  0.1143
  221POPC   C4B 2652   3.911  12.452  17.165  0.3754  0.0254 -0.1952
  222POPC   NC3 2653  11.027   6.461  18.937 -0.1420 -0.2486  0.5468
  222POPC   PO4 2654  11.407   6.502  19.129 -0.1795 -0.0276  0.0279
  222POPC   GL1 2655  11.451   6.669  18.808 -0.2810 -0.2478  0.1395
  222POPC   GL2 2656  11.508   6.929  18.744  0.2469  0.0114 -0.0541
  222POPC   C1A 2657  11.190   6.771  18.431  0.1225  0.2350  0.2272
  222POPC   D2A 2658  11.217   7.003  18.042  0.0879  0.2923  0.2068
  222POPC   C3A 2659  11.432   6.979  17.597  0.2105 -0.0734  0.0637
  222POPC   C4A 2660  11.769   6.994  17.307 -0.1923 -0.0245  0.0367
  222POPC   C1B 2661  11.436   7.247  18.431  0.2835  0.1388 -0.1121
  222POPC   C2B 2662  11.138   7.470  18.204  0.2055  0.3282 -0.1542
  222POPC   C3B 2663  11.083   7.796  17.927 -0.0861  0.0829 -0.1292
  222POPC   C4B 2664  11.249   8.177  17.617 -0.1985 -0.1317 -0.0501
  223POPC   NC3 2665  13.083  31.266  18.926  0.0724 -0.3752 -0.0093
  223POPC   PO4 2666  13.474  31.251  18.883  0.1499 -0.2032 -0.2260
  223POPC   GL1 2667  13.390  31.511  18.609  0.2434  0.0680 -0.0682
  223POPC   GL2 2668  13.342  31.253  18.408  0.1313  0.2992 -0.1630
  223POPC   C1A 2669  13.259  31.732  18.227 -0.0497 -0.0063 -0.0576
  223POPC   D2A 2670  13.000  31.808  17.845 -0.1459  0.0681 -0.0109
  223POPC   C3A 2671  13.311  31.985  17.551  0.3146  0.1395 -0.1561
  223POPC   C4A 2672  13.795  31.976  17.574 -0.1783  0.0324 -0.0874
  223POPC   C1B 2673  13.494  31.142  17.992  0.1213 -0.0982 -0.0313
  223POPC   C2B 2674  13.424  31.028  17.604 -0.1698  0.2909 -0.1068
  223POPC   C3B 2675  13.351  30.992  17.154  0.0558  0.3666 -0.3269
  223POPC   C4B 2676  13.120  30.790  16.753  0.1560 -0.1031 -0.1286
  224POPC   NC3 2677  10.332  18.539  19.569  0.1198  0.1644 -0.1636
  224POPC   PO4 2678  10.115  18.212  19.504  0.2363  0.1405 -0.0853
  224POPC   GL1 2679  10.221  18.300  19.091  0.1744 -0.1117  0.0884
  224POPC   GL2 2680  10.059  18.542  19.097 -0.2012  0.0917 -0.0944
  224POPC   C1A 2681  10.293  18.413  18.649  0.3395  0.2007  0.0061
  224POPC   D2A 2682  10.006  18.490  18.337  0.0561  0.1281 -0.3649
  224POPC   C3A 2683   9.747  18.682  18.002 -0.0859 -0.0996 -0.2528
  224POPC   C4A 2684   9.433  18.686  17.650 -0.0096 -0.0532  0.0270
  224POPC   C1B 2685   9.894  18.788  18.780  0.0092  0.4208  0.1138
  224POPC   C2B 2686   9.539  18.666  18.505  0.0417  0.0027  0.1007
  224POPC   C3B 2687   9.167  18.697  18.305  0.2071  0.0837 -0.0442
  224POPC   C4B 2688   8.996  18.536  17.922  0.1311  0.0270  0.1922
  225POPC   NC3 2689  14.292  28.453  19.612 -0.0025 -0.0834  0.5211
  225POPC   PO4 2690  14.292  28.156  19.340 -0.2482  0.2429  0.1029
  225POPC   GL1 2691  14.258  28.370  19.121  0.1445 -0.0353  0.0642
  225POPC   GL2 2692  14.086  28.336  18.875 -0.0619 -0.0062  0.1468
  225POPC   C1A 2693  14.506  28.687  18.843 -0.0289 -0.4592 -0.1251
  225POPC   D2A 2694  14.659  29.088  18.621  0.0583  0.1450 -0.1077
  225POPC   C3A 2695  14.470  29.353  18.318 -0.2760  0.0619 -0.2116
  225POPC   C4A 2696  14.406  29.474  17.849  0.1913 -0.0609  0.0732
  225POPC   C1B 2697  14.164  28.324  18.406 -0.1236  0.0153  0.1359
  225POPC   C2B 2698  13.950  28.349  17.995 -0.0495  0.0403  0.4710
  225POPC   C3B 2699  13.615  28.305  17.609  0.2993  0.2476 -0.1251
  225POPC   C4B 2700  13.365  28.381  17.234  0.0955  0.1457  0.0512
  226POPC   NC3 2701   0.292   0.795  19.572 -0.0250  0.0519  0.0797
  226POPC   PO4 2702   0.300   1.008  19.240 -0.0648  0.0147 -0.1120
  226POPC   GL1 2703   0.521   1.083  18.909  0.0378 -0.0077 -0.1010
  226POPC   GL2 2704   0.526   1.435  19.033  0.3549  0.0272  0.0316
  226POPC   C1A 2705   0.844   1.043  18.578  0.1579  0.0822  0.1708
  226POPC   D2A 2706   1.112   0.779  18.297  0.1680  0.0309 -0.3149
  226POPC   C3A 2707   0.971   0.513  17.970 -0.0369 -0.1152 -0.1070
  226POPC   C4A 2708   0.592   0.277  17.809  0.1513 -0.2029  0.2947
  226POPC   C1B 2709   0.298   1.481  18.619 -0.0321  0.0963 -0.0135
  226POPC   C2B 2710   0.219   1.375  18.192  0.1456  0.0003 -0.0628
  226POPC   C3B 2711   0.263   1.042  17.879 -0.3393 -0.1842 -0.1716
  226POPC   C4B 2712   0.211   0.586  17.686 -0.0214 -0.3328  0.0951
  227POPC   NC3 2713   1.990   4.530  19.707  0.1350  0.2335 -0.0814
  227POPC   PO4 2714   2.126   4.290  19.423 -0.1315 -0.0930  0.1046
  227POPC   GL1 2715   1.894   4.247  19.034 -0.1400  0.1628  0.1715
  227POPC   GL2 2716   2.001   4.454  18.932  0.1312 -0.0441  0.1028
  227POPC   C1A 2717   2.003   3.991  18.692 -0.1652 -0.4448  0.0687
  227POPC   D2A 2718   2.182   3.662  18.391 -0.0012 -0.0835  0.0891
  227POPC   C3A 2719   2.378   3.500  17.956 -0.0527 -0.1217  0.3142
  227POPC   C4A 2720   2.418   3.465  17.488  0.0220  0.0293  0.0299
  227POPC   C1B 2721   1.909   4.494  18.463 -0.1196 -0.1382 -0.2288
  227POPC   C2B 2722   1.815   4.479  18.023  0.1424 -0.0901  0.1600
  227POPC   C3B 2723   1.949   4.691  17.643  0.2541  0.2975  0.1692
  227POPC   C4B 2724   1.595   4.670  17.344 -0.2481 -0.0963 -0.2258
  228POPC   NC3 2725   7.940  26.912  19.140  0.2896  0.2041  0.1658
  228POPC   PO4 2726   8.222  27.170  19.202 -0.0842 -0.2724  0.0490
  228POPC   GL1 2727   8.251  27.175  18.765  0.0017 -0.0331 -0.0060
  228POPC   GL2 2728   8.351  27.389  18.604  0.2903  0.1657 -0.1185
  228POPC   C1A 2729   8.016  27.023  18.391 -0.0931 -0.0216  0.0967
  228POPC   D2A 2730   7.848  26.750  18.024  0.2348  0.1792  0.2418
  228POPC   C3A 2731   7.848  27.059  17.659 -0.3782 -0.0219 -0.0752
  228POPC   C4A 2732   7.920  27.365  17.317  0.1145 -0.0824 -0.5233
  228POPC   C1B 2733   8.355  27.425  18.126  0.0469 -0.2892  0.0800
  228POPC   C2B 2734   8.303  27.451  17.641 -0.0639 -0.0428 -0.1036
  228POPC   C3B 2735   8.425  27.467  17.230  0.2313  0.2149  0.2567
  228POPC   C4B 2736   8.785  27.499  16.982 -0.0938  0.1517 -0.1508
  229POPC   NC3 2737   9.022  15.460  19.410 -0.1500  0.0788  0.1894
  229POPC   PO4 2738   8.902  15.108  19.484  0.1435 -0.1087 -0.0888
  229POPC   GL1 2739   8.823  15.236  19.074 -0.0013 -0.3546 -0.4972
  229POPC   GL2 2740   8.781  15.043  18.934 -0.0114  0.1454 -0.1902
  229POPC   C1A 2741   9.026  15.507  18.784 -0.0799  0.0790 -0.0178
  229POPC   D2A 2742   9.279  15.806  18.558  0.0107  0.3026  0.3183
  229POPC   C3A 2743   9.322  15.703  18.122  0.0871 -0.2846  0.0388
  229POPC   C4A 2744   9.204  16.083  17.851  0.0785  0.0967 -0.3037
  229POPC   C1B 2745   8.913  15.090  18.482 -0.0045  0.0070  0.0905
  229POPC   C2B 2746   8.896  15.349  18.103 -0.0817 -0.2888  0.0404
  229POPC   C3B 2747   8.945  15.588  17.707  0.2503  0.0911 -0.0622
  229POPC   C4B 2748   8.852  15.608  17.286 -0.1244  0.1234  0.0156
  230POPC   NC3 2749   4.919  21.415  19.723 -0.0832 -0.2042 -0.2457
  230POPC   PO4 2750   5.164  21.667  19.466  0.0453 -0.1426 -0.0785
  230POPC   GL1 2751   5.061  21.654  19.029  0.0567  0.2280  0.1226
  230POPC   GL2 2752   4.841  21.821  18.932  0.1242  0.0140  0.0160
  230POPC   C1A 2753   5.181  21.576  18.589  0.0499 -0.2218  0.1620
  230POPC   D2A 2754   5.353  21.740  18.263  0.0252  0.3335  0.0506
  230POPC   C3A 2755   5.554  21.555  17.974 -0.1141 -0.1320 -0.0501
  230POPC   C4A 2756   5.546  21.223  17.636 -0.0959 -0.2552 -0.2455
  230POPC   C1B 2757   4.892  21.972  18.501  0.0110 -0.2289  0.0299
  230POPC   C2B 2758   4.931  21.968  18.042 -0.0575 -0.1922  0.2846
  230POPC   C3B 2759   4.924  22.073  17.544  0.1651 -0.0012  0.2062
  230POPC   C4B 2760   4.862  22.322  17.134  0.0581  0.2471  0.2432
  231POPC   NC3 2761   5.030  24.828  19.481  0.0790 -0.0767  0.0584
  231POPC   PO4 2762   5.357  25.000  19.387 -0.1721  0.3073 -0.0117
  231POPC   GL1 2763   5.263  24.860  19.068  0.1252  0.2295  0.3904
  231POPC   GL2 2764   5.005  24.852  18.915  0.0613 -0.2210  0.3196
  231POPC   C1A 2765   5.447  25.002  18.671  0.0854 -0.1883  0.1225
  231POPC   D2A 2766   5.496  25.074  18.206  0.0091  0.0814  0.3052
  231POPC   C3A 2767   5.237  25.445  18.126 -0.0785 -0.1305  0.0324
  231POPC   C4A 2768   4.873  25.764  17.987 -0.0407  0.0438  0.2770
  231POPC   C1B 2769   4.759  24.650  18.551 -0.2118  0.2460 -0.0558
  231POPC   C2B 2770   4.842  24.721  18.113  0.4220  0.1675 -0.1103
  231POPC   C3B 2771   5.102  24.916  17.794  0.0327 -0.0129 -0.0043
  231POPC   C4B 2772   5.453  25.268  17.612 -0.0177 -0.0786 -0.0362
  232POPC   NC3 2773   9.536  19.865  20.311 -0.0711  0.3851  0.0019
  232POPC   PO4 2774   9.695  19.591  20.065 -0.0539 -0.0312  0.1364
  232POPC   GL1 2775   9.729  19.401  19.671 -0.1078  0.1291 -0.0099
  232POPC   GL2 2776   9.755  19.624  19.468  0.2177 -0.0192 -0.0145
  232POPC   C1A 2777   9.369  19.186  19.476 -0.2225  0.0274  0.0591
  232POPC   D2A 2778   8.954  18.984  19.350 -0.3672 -0.3575 -0.2391
  232POPC   C3A 2779   8.701  19.080  18.973  0.2189 -0.0387  0.0762
  232POPC   C4A 2780   8.599  19.478  18.775 -0.0189  0.0439  0.2006
  232POPC   C1B 2781   9.639  19.527  19.032 -0.1743 -0.0984 -0.2427
  232POPC   C2B 2782   9.704  19.591  18.545 -0.1741 -0.4724 -0.1311
  232POPC   C3B 2783   9.712  19.677  18.040 -0.1044  0.0297 -0.2594
  232POPC   C4B 2784   9.594  19.675  17.593 -0.0898  0.0854  0.1724
  233POPC   NC3 2785   5.922   5.448  19.229  0.3227 -0.0511  0.1471
  233POPC   PO4 2786   6.065   5.814  19.216  0.0422 -0.2030 -0.1195
  233POPC   GL1 2787   5.898   5.788  18.895 -0.0473  0.2295 -0.0825
  233POPC   GL2 2788   5.618   5.874  18.842 -0.4145 -0.0847  0.1536
  233POPC   C1A 2789   5.938   5.679  18.454 -0.0152  0.0386 -0.2761
  233POPC   D2A 2790   5.846   5.513  17.991  0.1728  0.1543 -0.0694
  233POPC   C3A 2791   5.815   5.709  17.665  0.0405  0.2267  0.0106
  233POPC   C4A 2792   6.034   5.958  17.305 -0.0987 -0.1115  0.2271
  233POPC   C1B 2793   5.497   6.081  18.524 -0.0919  0.1388  0.1282
  233POPC   C2B 2794   5.521   6.189  18.085  0.0961  0.0155 -0.0953
  233POPC   C3B 2795   5.654   6.200  17.626  0.0570  0.0906 -0.1635
  233POPC   C4B 2796   5.473   6.335  17.161 -0.3140  0.0392 -0.0225
  234POPC   NC3 2797   1.428  30.403  20.024  0.0158 -0.3283  0.2337
  234POPC   PO4 2798   1.090  30.505  19.846  0.1523  0.1991 -0.0659
  234POPC   GL1 2799   0.948  30.567  19.478 -0.2299 -0.1023  0.4226
  234POPC   GL2 2800   1.244  30.728  19.434  0.0944  0.1650 -0.0264
  234POPC   C1A 2801   1.029  30.369  19.040  0.2323 -0.3965 -0.2682
  234POPC   D2A 2802   1.077  30.133  18.706 -0.2409 -0.1030  0.1310
  234POPC   C3A 2803   1.338  30.296  18.344  0.2114  0.2055 -0.0242
  234POPC   C4A 2804   1.256  30.181  17.889  0.2557 -0.2488 -0.2226
  234POPC   C1B 2805   1.355  30.717  19.001 -0.1926 -0.2993  0.1634
  234POPC   C2B 2806   1.496  30.720  18.567 -0.3340  0.2874  0.1619
  234POPC   C3B 2807   1.861  30.817  18.285 -0.1636  0.1405  0.0623
  234POPC   C4B 2808   2.182  31.134  18.429 -0.3910 -0.1380 -0.0711
  235POPC   NC3 2809   3.907  21.946  19.395  0.0787  0.2303  0.1725
  235POPC   PO4 2810   4.215  21.735  19.221  0.0722  0.1472 -0.2005
  235POPC   GL1 2811   3.963  21.888  18.948 -0.1703 -0.2532  0.2192
  235POPC   GL2 2812   3.653  21.880  18.961 -0.0550  0.1350 -0.0444
  235POPC   C1A 2813   3.843  22.182  18.604 -0.2704 -0.0863 -0.0438
  235POPC   D2A 2814   3.981  22.476  18.322  0.0637  0.0554  0.0467
  235POPC   C3A 2815   3.926  22.951  18.261 -0.1111 -0.0128 -0.2129
  235POPC   C4A 2816   3.687  23.310  18.071  0.0047 -0.0665 -0.0032
  235POPC   C1B 2817   3.403  21.638  18.636 -0.2477  0.1943 -0.2564
  235POPC   C2B 2818   3.253  21.414  18.306 -0.1062  0.1624  0.2859
  235POPC   C3B 2819   2.900  21.505  17.979  0.0215 -0.0541 -0.1789
  235POPC   C4B 2820   2.611  21.462  17.623 -0.0769 -0.1365  0.1962
  236POPC   NC3 2821   7.652  11.321  18.875  0.1805  0.1793  0.0768
  236POPC   PO4 2822   7.518  11.530  19.202 -0.1392  0.0619  0.1883
  236POPC   GL1 2823   7.599  11.795  18.930 -0.2547  0.1762 -0.0992
  236POPC   GL2 2824   7.373  11.706  18.698  0.2778 -0.0396 -0.1796
  236POPC   C1A 2825   7.835  11.708  18.507  0.2949 -0.1639 -0.3001
  236POPC   D2A 2826   7.950  11.651  18.052  0.0533  0.0535 -0.1418
  236POPC   C3A 2827   7.721  11.397  17.706  0.0017  0.0538  0.0641
  236POPC   C4A 2828   7.770  11.482  17.188 -0.0352  0.1482  0.1851
  236POPC   C1B 2829   7.449  11.391  18.419 -0.1959  0.1068  0.2057
  236POPC   C2B 2830   7.766  11.160  18.210  0.0720 -0.0345  0.1854
  236POPC   C3B 2831   8.062  11.005  17.871 -0.0774 -0.1292 -0.3774
  236POPC   C4B 2832   8.520  10.984  17.803  0.0446 -0.0496 -0.1157
  237POPC   NC3 2833   0.188  26.698  19.409 -0.1536  0.3289  0.1482
  237POPC   PO4 2834  -0.059  26.982  19.308  0.1511  0.0352 -0.0331
  237POPC   GL1 2835   0.193  27.306  19.183 -0.0056  0.3953  0.0192
  237POPC   GL2 2836   0.131  27.665  19.174  0.0594 -0.1732 -0.0045
  237POPC   C1A 2837   0.392  27.367  18.767  0.0848 -0.3435  0.1008
  237POPC   D2A 2838   0.491  27.585  18.368 -0.1570  0.1807  0.2957
  237POPC   C3A 2839   0.655  27.550  17.964 -0.1775  0.1272  0.0392
  237POPC   C4A 2840   0.621  27.316  17.632  0.1513 -0.0271  0.1623
  237POPC   C1B 2841   0.015  27.646  18.736  0.0864 -0.1728 -0.0406
  237POPC   C2B 2842   0.018  27.480  18.267  0.3270 -0.1440  0.0687
  237POPC   C3B 2843  -0.298  27.405  17.897 -0.0081 -0.1416  0.2581
  237POPC   C4B 2844  -0.715  27.238  17.745  0.1367 -0.0706 -0.0210
  238POPC   NC3 2845  10.723  30.749  19.517  0.1086 -0.0297  0.2848
  238POPC   PO4 2846  10.345  30.813  19.406  0.3028 -0.1862  0.0714
  238POPC   GL1 2847  10.396  31.042  19.114 -0.3399 -0.1087 -0.0091
  238POPC   GL2 2848  10.228  31.270  19.107 -0.0874 -0.0356 -0.2690
  238POPC   C1A 2849  10.587  31.034  18.689 -0.0499 -0.3881 -0.3254
  238POPC   D2A 2850  10.598  30.876  18.243 -0.0289  0.2974 -0.1559
  238POPC   C3A 2851  10.848  31.177  17.937 -0.0141  0.2464 -0.2852
  238POPC   C4A 2852  11.296  31.046  17.772 -0.0490  0.1830  0.0524
  238POPC   C1B 2853  10.279  31.470  18.717 -0.2159 -0.1680  0.2502
  238POPC   C2B 2854  10.013  31.404  18.265 -0.0199 -0.0829 -0.0328
  238POPC   C3B 2855   9.913  31.457  17.826 -0.0657  0.1940 -0.1114
  238POPC   C4B 2856   9.782  31.790  17.494  0.1912 -0.2158 -0.1334
  239POPC   NC3 2857   2.322  18.279  19.221 -0.4961 -0.1730  0.2712
  239POPC   PO4 2858   2.214  18.657  19.073 -0.0431 -0.2784  0.0809
  239POPC   GL1 2859   2.562  18.759  18.762 -0.1856  0.3719  0.3422
  239POPC   GL2 2860   2.421  18.692  18.533 -0.0683 -0.0944 -0.2307
  239POPC   C1A 2861   2.896  18.610  18.425 -0.0571 -0.3510  0.1929
  239POPC   D2A 2862   3.297  18.743  18.249 -0.2118  0.2937  0.2474
  239POPC   C3A 2863   3.322  18.820  17.808 -0.3063 -0.2526 -0.1109
  239POPC   C4A 2864   3.271  18.746  17.377  0.1319  0.1119 -0.0845
  239POPC   C1B 2865   2.360  18.679  18.122  0.0009 -0.0973 -0.2809
  239POPC   C2B 2866   2.461  18.789  17.638 -0.3644 -0.2060 -0.1549
  239POPC   C3B 2867   2.763  18.657  17.369  0.3930 -0.2877 -0.2442
  239POPC   C4B 2868   2.886  18.435  17.006 -0.0759 -0.0345 -0.1481
  240POPC   NC3 2869   8.372  14.001  19.197  0.1467 -0.0848  0.2332
  240POPC   PO4 2870   8.050  13.969  19.380  0.1117 -0.1999 -0.2186
  240POPC   GL1 2871   7.971  14.241  19.119 -0.1204  0.1834  0.0467
  240POPC   GL2 2872   8.010  14.151  18.850  0.2463 -0.1984 -0.3183
  240POPC   C1A 2873   7.851  14.643  18.874 -0.3467  0.2124  0.1386
  240POPC   D2A 2874   7.967  14.941  18.496  0.1026 -0.3889 -0.1708
  240POPC   C3A 2875   7.489  15.028  18.384 -0.0399  0.1428  0.1537
  240POPC   C4A 2876   7.172  15.250  18.140  0.0912 -0.0408  0.0688
  240POPC   C1B 2877   7.953  14.465  18.427  0.0038 -0.3111 -0.0743
  240POPC   C2B 2878   7.701  14.576  18.071 -0.1305 -0.2792  0.3745
  240POPC   C3B 2879   7.617  15.010  17.888  0.1911 -0.1438  0.1839
  240POPC   C4B 2880   7.563  15.151  17.433 -0.0027 -0.1502  0.1170
  241POPC   NC3 2881   4.058  16.618  19.553 -0.0174  0.0362  0.2568
  241POPC   PO4 2882   4.017  16.924  19.350 -0.1013  0.1897 -0.3853
  241POPC   GL1 2883   4.295  17.039  19.009  0.0851  0.0253 -0.1912
  241POPC   GL2 2884   4.510  17.221  19.004  0.1143 -0.4883 -0.1203
  241POPC   C1A 2885   4.595  16.719  18.776  0.3907 -0.1207  0.1356
  241POPC   D2A 2886   4.543  16.631  18.372  0.1272 -0.1724  0.2085
  241POPC   C3A 2887   4.912  16.819  18.129 -0.2302  0.1104 -0.1940
  241POPC   C4A 2888   5.005  16.743  17.642  0.1810 -0.0664 -0.2688
  241POPC   C1B 2889   4.827  17.140  18.652  0.0395 -0.0467  0.0314
  241POPC   C2B 2890   4.973  17.299  18.250  0.0054  0.1120  0.0243
  241POPC   C3B 2891   5.121  17.220  17.838  0.0577  0.2405  0.0563
  241POPC   C4B 2892   5.521  17.031  17.562  0.3950 -0.1923  0.0562
  242POPC   NC3 2893   8.797  11.536  19.593  0.0543 -0.0954 -0.1295
  242POPC   PO4 2894   8.588  11.241  19.446  0.0837 -0.0008 -0.0340
  242POPC   GL1 2895   8.446  11.250  19.017  0.0940  0.0747 -0.1051
  242POPC   GL2 2896   8.183  11.093  19.036  0.1278 -0.1075  0.0192
  242POPC   C1A 2897   8.576  11.426  18.605  0.1001  0.4799  0.0754
  242POPC   D2A 2898   8.806  11.571  18.240 -0.0034 -0.2825 -0.1342
  242POPC   C3A 2899   8.913  11.344  17.864 -0.2323 -0.0080 -0.2319
  242POPC   C4A 2900   9.170  11.480  17.523  0.2854 -0.1534 -0.2017
  242POPC   C1B 2901   8.068  11.167  18.605  0.0807  0.0684 -0.3359
  242POPC   C2B 2902   8.269  11.320  18.212  0.1664 -0.4861 -0.0667
  242POPC   C3B 2903   8.474  11.622  17.896  0.1576 -0.2655  0.0625
  242POPC   C4B 2904   8.777  11.829  17.600  0.0217  0.2228  0.2230
  243POPC   NC3 2905  12.198   2.096  19.601  0.2469  0.1249  0.0785
  243POPC   PO4 2906  12.449   2.381  19.596 -0.0955 -0.1592  0.1393
  243POPC   GL1 2907  12.432   2.191  19.224  0.3040 -0.2777 -0.2912
  243POPC   GL2 2908  12.129   2.087  19.121 -0.0609  0.2776 -0.2465
  243POPC   C1A 2909  12.321   2.429  18.874  0.0962 -0.0094  0.1272
  243POPC   D2A 2910  12.033   2.784  18.858  0.1467 -0.2372  0.0315
  243POPC   C3A 2911  12.117   3.126  18.630  0.0646  0.1936  0.2384
  243POPC   C4A 2912  12.402   3.293  18.316 -0.3543 -0.2463  0.1528
  243POPC   C1B 2913  11.908   2.000  18.753  0.1530  0.0630  0.4123
  243POPC   C2B 2914  11.791   1.972  18.322  0.0229  0.0933  0.0055
  243POPC   C3B 2915  11.917   1.952  17.888 -0.1227  0.0299  0.0684
  243POPC   C4B 2916  12.112   1.665  17.614  0.0726 -0.1155 -0.0906
  244POPC   NC3 2917  14.825  25.798  19.757  0.1861  0.0503  0.2313
  244POPC   PO4 2918  14.745  25.440  19.640 -0.0712 -0.0383 -0.1304
  244POPC   GL1 2919  14.642  25.619  19.223  0.1578  0.0210  0.0226
  244POPC   GL2 2920  14.674  25.884  19.259  0.1051 -0.1271  0.2005
  244POPC   C1A 2921  14.835  25.553  18.759  0.1468  0.0477 -0.0827
  244POPC   D2A 2922  15.281  25.593  18.673 -0.2303 -0.0365  0.1824
  244POPC   C3A 2923  15.247  25.282  18.319 -0.0730 -0.1365  0.2252
  244POPC   C4A 2924  15.323  25.158  17.886 -0.2076 -0.1599 -0.1499
  244POPC   C1B 2925  14.456  26.033  18.827  0.0870 -0.1201 -0.1074
  244POPC   C2B 2926  14.416  26.094  18.402 -0.0555  0.2150  0.1235
  244POPC   C3B 2927  14.583  26.255  17.965  0.2294  0.3329  0.3622
  244POPC   C4B 2928  14.885  26.200  17.628 -0.0225 -0.1090  0.1879
  245POPC   NC3 2929   8.140  31.537  19.159  0.1589  0.2509 -0.0154
  245POPC   PO4 2930   8.451  31.785  19.270 -0.0632 -0.0826  0.4469
  245POPC   GL1 2931   8.534  31.655  18.852  0.1938  0.1578  0.2765
  245POPC   GL2 2932   8.503  31.421  18.619 -0.2485 -0.0531  0.1053
  245POPC   C1A 2933   8.456  31.895  18.437 -0.1846 -0.0364 -0.0664
  245POPC   D2A 2934   8.306  31.829  17.986  0.0244  0.1262  0.1197
  245POPC   C3A 2935   8.489  31.593  17.670  0.1326 -0.2888 -0.3196
  245POPC   C4A 2936   8.335  31.284  17.367 -0.0628  0.2868 -0.4371
  245POPC   C1B 2937   8.464  31.195  18.197 -0.1539  0.0358 -0.1372
  245POPC   C2B 2938   8.671  31.144  17.732 -0.0960 -0.0048 -0.1290
  245POPC   C3B 2939   8.475  30.792  17.499 -0.1870  0.0978 -0.2235
  245POPC   C4B 2940   8.248  30.748  17.142 -0.1782 -0.2247  0.2245
  246POPC   NC3 2941   4.525  16.150  20.113 -0.2392  0.3778 -0.0772
  246POPC   PO4 2942   4.584  16.494  19.986 -0.1690 -0.1039  0.1511
  246POPC   GL1 2943   4.429  16.446  19.644  0.1683  0.1011 -0.1494
  246POPC   GL2 2944   4.523  16.591  19.340 -0.1177 -0.1050  0.0218
  246POPC   C1A 2945   4.234  16.181  19.276 -0.1708 -0.0355 -0.0554
  246POPC   D2A 2946   4.239  16.327  18.818 -0.0044 -0.0560 -0.0779
  246POPC   C3A 2947   4.064  16.730  18.739 -0.4164 -0.3641  0.2117
  246POPC   C4A 2948   3.874  17.156  18.773  0.0970  0.3129  0.4420
  246POPC   C1B 2949   4.952  16.412  19.256 -0.0688  0.2105 -0.1066
  246POPC   C2B 2950   5.103  16.223  18.889  0.0788  0.2066  0.3756
  246POPC   C3B 2951   5.247  16.102  18.483  0.0303  0.0794 -0.2224
  246POPC   C4B 2952   5.487  15.908  18.073 -0.1364  0.0403 -0.0590
  247POPC   NC3 2953   0.292  14.418  19.531 -0.1340  0.1669  0.1910
  247POPC   PO4 2954   0.607  14.232  19.317  0.1448 -0.0017 -0.0549
  247POPC   GL1 2955   0.530  14.306  18.931  0.1644 -0.2372  0.3718
  247POPC   GL2 2956   0.305  14.527  18.883  0.1099  0.1219  0.0921
  247POPC   C1A 2957   0.722  14.235  18.490  0.1240  0.0116 -0.2278
  247POPC   D2A 2958   0.750  13.996  18.095 -0.0837 -0.0179  0.0507
  247POPC   C3A 2959   0.493  13.903  17.689  0.0954 -0.5923 -0.1219
  247POPC   C4A 2960   0.115  13.870  17.439  0.1225 -0.2211  0.0316
  247POPC   C1B 2961   0.266  14.371  18.482  0.1644  0.3217  0.2008
  247POPC   C2B 2962   0.320  14.299  18.012  0.3110  0.0856 -0.2916
  247POPC   C3B 2963   0.132  14.354  17.583 -0.3086  0.2872  0.1579
  247POPC   C4B 2964  -0.247  14.178  17.431  0.2132  0.5193  0.0305
  248POPC   NC3 2965   1.895  25.112  19.158  0.2359  0.2290 -0.1588
  248POPC   PO4 2966   2.268  25.084  19.028 -0.2757  0.2371  0.1957
  248POPC   GL1 2967   2.307  25.198  18.660  0.0952  0.2512  0.2765
  248POPC   GL2 2968   2.172  24.971  18.462 -0.0781  0.1401  0.0938
  248POPC   C1A 2969   2.138  25.483  18.346  0.4607 -0.0997 -0.2194
  248POPC   D2A 2970   2.206  25.203  17.977 -0.2070 -0.3103 -0.3762
  248POPC   C3A 2971   2.415  25.261  17.568 -0.0259 -0.0803  0.0771
  248POPC   C4A 2972   2.593  25.496  17.204 -0.2377 -0.1915 -0.0643
  248POPC   C1B 2973   1.967  24.822  18.102 -0.0062  0.0387  0.2042
  248POPC   C2B 2974   1.618  24.718  17.726 -0.4843  0.0829 -0.0732
  248POPC   C3B 2975   1.317  24.468  17.522  0.3052  0.1045 -0.1984
  248POPC   C4B 2976   0.993  24.323  17.182 -0.2953  0.0244 -0.1961
  249POPC   NC3 2977  11.079  18.682  19.199  0.1284  0.0619  0.4497
  249POPC   PO4 2978  11.463  18.612  19.283 -0.0727 -0.2846 -0.0355
  249POPC   GL1 2979  11.335  18.579  18.832  0.2336 -0.2184  0.1994
  249POPC   GL2 2980  11.253  18.866  18.801 -0.1978  0.1072  0.0966
  249POPC   C1A 2981  11.595  18.470  18.465  0.2296 -0.0866  0.1787
  249POPC   D2A 2982  11.621  18.553  18.035 -0.1069  0.0930  0.2807
  249POPC   C3A 2983  11.229  18.568  17.776 -0.2741  0.0303 -0.0768
  249POPC   C4A 2984  11.109  18.694  17.322 -0.2871  0.1013  0.1427
  249POPC   C1B 2985  11.139  18.752  18.379 -0.1754  0.0016 -0.0826
  249POPC   C2B 2986  10.865  18.888  18.032  0.0007  0.2700 -0.1453
  249POPC   C3B 2987  10.580  19.087  17.778  0.0736  0.1912 -0.0665
  249POPC   C4B 2988  10.591  18.746  17.476 -0.0899  0.2228  0.1241
  250POPC   NC3 2989   8.880  21.976  19.318  0.0611 -0.5527  0.0096
  250POPC   PO4 2990   8.752  22.331  19.159  0.1172 -0.3963 -0.2080
  250POPC   GL1 2991   8.721  22.319  18.770 -0.1145 -0.1732 -0.0761
  250POPC   GL2 2992   8.564  22.528  18.731 -0.0569  0.0097 -0.2717
  250POPC   C1A 2993   9.010  22.384  18.383 -0.0818  0.0194  0.2029
  250POPC   D2A 2994   9.363  22.596  18.143  0.0277  0.1194 -0.0686
  250POPC   C3A 2995   9.308  22.989  18.277 -0.0961 -0.1007 -0.0544
  250POPC   C4A 2996   9.215  23.212  18.611  0.0980 -0.1488 -0.0073
  250POPC   C1B 2997   8.535  22.547  18.236  0.1047  0.1966 -0.2643
  250POPC   C2B 2998   8.595  22.362  17.791 -0.1806  0.0621  0.2555
  250POPC   C3B 2999   8.570  21.925  17.673 -0.1843  0.0167 -0.1650
  250POPC   C4B 3000   8.524  21.500  17.417  0.0292  0.0023  0.0225
  251POPC   NC3 3001   0.790  28.368  19.684  0.1728 -0.2362  0.0490
  251POPC   PO4 3002   0.591  28.646  19.461 -0.1046  0.0374 -0.2274
  251POPC   GL1 3003   0.716  28.859  19.132  0.1442 -0.2263 -0.2257
  251POPC   GL2 3004   0.961  28.942  19.078  0.0209 -0.0350  0.1360
  251POPC   C1A 3005   0.596  28.977  18.700  0.0361  0.0727 -0.2943
  251POPC   D2A 3006   0.374  29.243  18.382 -0.1687 -0.0767  0.0511
  251POPC   C3A 3007   0.373  29.253  17.921  0.1475  0.2609  0.0835
  251POPC   C4A 3008   0.475  29.281  17.492 -0.0574  0.2531  0.0609
  251POPC   C1B 3009   0.968  28.679  18.720 -0.1564 -0.1169  0.2660
  251POPC   C2B 3010   1.207  28.572  18.365 -0.0024 -0.3308  0.0757
  251POPC   C3B 3011   1.651  28.771  18.245  0.1448  0.0215 -0.0471
  251POPC   C4B 3012   1.939  29.103  18.233 -0.1954 -0.0775 -0.2695
  252POPC   NC3 3013   9.417  19.201  20.263  0.0561  0.1832  0.3009
  252POPC   PO4 3014   9.296  18.800  20.201 -0.1194 -0.4593 -0.0208
  252POPC   GL1 3015   9.245  18.537  19.868 -0.0561  0.2355  0.2189
  252POPC   GL2 3016   9.010  18.423  19.947 -0.0007 -0.4023 -0.0830
  252POPC   C1A 3017   9.374  18.668  19.422 -0.1544  0.2104 -0.0100
  252POPC   D2A 3018   9.433  18.570  18.965 -0.0229  0.0290 -0.1624
  252POPC   C3A 3019   9.162  18.937  18.860 -0.2283  0.0405  0.1281
  252POPC   C4A 3020   8.946  19.102  18.450  0.1359 -0.3019  0.1218
  252POPC   C1B 3021   8.900  18.464  19.480 -0.0366 -0.1419 -0.0815
  252POPC   C2B 3022   8.779  18.606  19.032  0.1261  0.0817  0.0816
  252POPC   C3B 3023   8.636  18.684  18.611  0.0201  0.1588 -0.0257
  252POPC   C4B 3024   8.368  18.721  18.199 -0.1001 -0.1914  0.0554
  253POPC   NC3 3025   5.410  19.002  18.776 -0.0124  0.1550  0.1791
  253POPC   PO4 3026   5.057  18.923  18.891 -0.0535 -0.1043 -0.2992
  253POPC   GL1 3027   4.916  18.629  18.735 -0.2557  0.0814 -0.0656
  253POPC   GL2 3028   4.683  18.733  18.524 -0.0202 -0.0636  0.0153
  253POPC   C1A 3029   5.171  18.499  18.383 -0.0815 -0.2719  0.1393
  253POPC   D2A 3030   5.135  18.654  17.963 -0.3393 -0.0983  0.2941
  253POPC   C3A 3031   4.831  18.644  17.562  0.1387  0.0865 -0.5030
  253POPC   C4A 3032   4.700  18.637  17.178  0.1736  0.0113 -0.0871
  253POPC   C1B 3033   4.581  18.734  18.083  0.2896 -0.0373  0.0308
  253POPC   C2B 3034   4.347  18.648  17.693 -0.0666 -0.0808 -0.1425
  253POPC   C3B 3035   4.156  18.877  17.334  0.1184  0.1398 -0.0922
  253POPC   C4B 3036   4.136  19.232  17.036 -0.0589  0.2398  0.1808
  254POPC   NC3 3037   3.055  10.248  19.597 -0.0430  0.1856 -0.2408
  254POPC   PO4 3038   2.666  10.162  19.509  0.0078  0.1592 -0.2367
  254POPC   GL1 3039   2.677  10.201  19.114 -0.0097  0.1255  0.0319
  254POPC   GL2 3040   3.015  10.258  19.095  0.2913 -0.1146 -0.1292
  254POPC   C1A 3041   2.359  10.524  18.911  0.0723  0.2605  0.0636
  254POPC   D2A 3042   2.326  10.976  18.765 -0.0853  0.0827  0.8428
  254POPC   C3A 3043   2.222  11.032  18.313  0.0517  0.1012 -0.0290
  254POPC   C4A 3044   2.170  11.214  17.904  0.1138  0.1456  0.0327
  254POPC   C1B 3045   3.253  10.429  18.766 -0.2915  0.1562  0.1961
  254POPC   C2B 3046   3.456  10.688  18.427  0.0152 -0.0046 -0.1397
  254POPC   C3B 3047   3.509  10.704  17.952 -0.2166  0.2582  0.0121
  254POPC   C4B 3048   3.770  10.717  17.535  0.3583 -0.1155 -0.0383
  255POPC   NC3 3049   1.666   6.129  20.355 -0.4248  0.1767  0.2172
  255POPC   PO4 3050   1.736   6.463  20.203  0.1547 -0.1023  0.0610
  255POPC   GL1 3051   1.297   6.594  20.259  0.0907  0.2423 -0.0672
  255POPC   GL2 3052   1.287   6.445  20.426 -0.0179  0.2276 -0.0151
  255POPC   C1A 3053   0.942   6.802  20.505  0.2686 -0.1826 -0.1224
  255POPC   D2A 3054   0.909   7.291  20.564 -0.2735  0.2342 -0.3963
  255POPC   C3A 3055   0.498   7.497  20.353  0.1444  0.0203 -0.2836
  255POPC   C4A 3056   0.182   7.390  19.982 -0.1635  0.4757 -0.0921
  255POPC   C1B 3057   1.059   6.158  20.142 -0.0106 -0.0782  0.0418
  255POPC   C2B 3058   0.981   6.263  19.678  0.0814  0.0646  0.4747
  255POPC   C3B 3059   0.998   6.223  19.209 -0.3660  0.2117 -0.1549
  255POPC   C4B 3060   0.707   6.186  18.876  0.2478  0.1345 -0.1384
  256POPC   NC3 3061   8.024  12.782  19.254 -0.2139 -0.0291  0.1404
  256POPC   PO4 3062   7.629  12.696  19.154 -0.1789 -0.3404 -0.3212
  256POPC   GL1 3063   7.851  12.667  18.803 -0.1584  0.2991 -0.3283
  256POPC   GL2 3064   7.676  12.900  18.697 -0.1041  0.1802  0.0953
  256POPC   C1A 3065   8.024  12.616  18.369 -0.2137 -0.2158 -0.1880
  256POPC   D2A 3066   8.302  12.586  18.056 -0.0714 -0.2438 -0.1816
  256POPC   C3A 3067   8.098  12.576  17.627  0.1537 -0.1439  0.0834
  256POPC   C4A 3068   8.089  12.945  17.361 -0.0475  0.0924  0.1484
  256POPC   C1B 3069   7.533  12.741  18.305 -0.1755  0.1274 -0.2782
  256POPC   C2B 3070   7.751  12.492  17.958 -0.2299 -0.0982  0.2402
  256POPC   C3B 3071   7.612  12.434  17.514 -0.4094  0.1889  0.1680
  256POPC   C4B 3072   7.682  12.518  17.139  0.0536 -0.4427 -0.2813
  257POPC   NC3 3073  14.010  14.451  18.866  0.1501  0.3550  0.0385
  257POPC   PO4 3074  14.130  14.112  19.039 -0.0642  0.1830  0.0053
  257POPC   GL1 3075  14.203  13.865  18.645  0.1769 -0.3943  0.2108
  257POPC   GL2 3076  14.310  14.141  18.529 -0.0408  0.1680 -0.3136
  257POPC   C1A 3077  13.869  13.811  18.332  0.3428 -0.0443 -0.2870
  257POPC   D2A 3078  13.493  13.599  18.115  0.1023 -0.0417 -0.1353
  257POPC   C3A 3079  13.309  13.457  17.702 -0.0477  0.2763 -0.1070
  257POPC   C4A 3080  12.896  13.443  17.537 -0.1262  0.1851 -0.0510
  257POPC   C1B 3081  14.277  14.524  18.337  0.0386 -0.2646 -0.0735
  257POPC   C2B 3082  14.239  14.868  18.126 -0.0493 -0.0042 -0.0483
  257POPC   C3B 3083  14.357  15.009  17.680 -0.1134 -0.0753  0.2371
  257POPC   C4B 3084  14.698  15.297  17.458  0.2354  0.0026  0.2778
  258POPC   NC3 3085  14.271  12.939  19.706 -0.1310 -0.2729 -0.1052
  258POPC   PO4 3086  14.539  12.872  19.390 -0.0832 -0.0684  0.0394
  258POPC   GL1 3087  14.466  13.199  19.073 -0.0672  0.1915 -0.0043
  258POPC   GL2 3088  14.225  13.168  18.930  0.0575 -0.1498  0.1643
  258POPC   C1A 3089  14.634  13.142  18.627 -0.0969 -0.0825 -0.2582
  258POPC   D2A 3090  14.548  13.097  18.182 -0.1701  0.0159 -0.4434
  258POPC   C3A 3091  14.864  12.807  17.881 -0.1183  0.0025 -0.1036
  258POPC   C4A 3092  14.846  12.395  17.658 -0.0801 -0.1723 -0.1361
  258POPC   C1B 3093  14.207  13.403  18.530 -0.1427  0.0682 -0.2328
  258POPC   C2B 3094  13.989  13.367  18.143 -0.1978  0.1248 -0.2133
  258POPC   C3B 3095  13.812  13.316  17.747 -0.1761  0.0321 -0.3074
  258POPC   C4B 3096  13.670  13.347  17.303 -0.1586  0.1127 -0.0283
  259POPC   NC3 3097   8.890  27.040  19.353  0.1668 -0.1120  0.0529
  259POPC   PO4 3098   8.709  27.109  19.024 -0.0877  0.0848 -0.2378
  259POPC   GL1 3099   8.773  27.131  18.645  0.1056  0.0132 -0.1607
  259POPC   GL2 3100   9.073  27.096  18.635 -0.1912 -0.3379  0.1293
  259POPC   C1A 3101   8.496  26.993  18.309 -0.2224 -0.0414 -0.3196
  259POPC   D2A 3102   8.267  27.000  17.965  0.2899  0.0793 -0.1892
  259POPC   C3A 3103   8.207  26.648  17.637 -0.0492 -0.2061 -0.1007
  259POPC   C4A 3104   8.315  26.336  17.352 -0.0336  0.0920 -0.0781
  259POPC   C1B 3105   9.005  27.228  18.219  0.1869 -0.1901 -0.3746
  259POPC   C2B 3106   8.715  27.180  17.832  0.3825 -0.0360 -0.0640
  259POPC   C3B 3107   8.561  27.010  17.456 -0.0330 -0.0220  0.1703
  259POPC   C4B 3108   8.169  26.933  17.190 -0.2203  0.0569 -0.0757
  260POPC   NC3 3109   3.376  15.330  19.540  0.2867 -0.0368  0.0371
  260POPC   PO4 3110   3.100  15.352  19.271 -0.0152  0.1140 -0.0390
  260POPC   GL1 3111   3.200  15.557  18.947  0.1099  0.1180  0.0623
  260POPC   GL2 3112   2.942  15.759  18.950 -0.3209 -0.2461 -0.3295
  260POPC   C1A 3113   3.545  15.432  18.599  0.2020 -0.1059  0.0927
  260POPC   D2A 3114   3.484  15.193  18.307  0.1243  0.0976 -0.2079
  260POPC   C3A 3115   3.710  15.344  17.895 -0.3725  0.1697 -0.0222
  260POPC   C4A 3116   3.777  15.743  17.675 -0.1499 -0.0309 -0.1307
  260POPC   C1B 3117   2.722  15.930  18.632  0.1362  0.1541  0.0764
  260POPC   C2B 3118   2.618  16.115  18.196  0.1662 -0.2082 -0.1390
  260POPC   C3B 3119   2.549  16.104  17.723 -0.0094  0.2668  0.3077
  260POPC   C4B 3120   2.193  16.228  17.484  0.0952 -0.0669 -0.0338
  261POPC   NC3 3121   8.027  14.426  19.861  0.2312 -0.1402  0.0558
  261POPC   PO4 3122   8.277  14.451  19.502  0.1450 -0.0871  0.2278
  261POPC   GL1 3123   8.288  14.592  19.100  0.2618  0.0881  0.0738
  261POPC   GL2 3124   8.450  14.424  18.981 -0.0494  0.1369  0.1209
  261POPC   C1A 3125   8.400  14.831  18.676 -0.2086  0.0730  0.0414
  261POPC   D2A 3126   8.418  14.704  18.260  0.3936  0.1502  0.3617
  261POPC   C3A 3127   8.079  14.837  17.928 -0.2335  0.1038  0.1543
  261POPC   C4A 3128   8.031  15.261  17.682 -0.0685  0.1008 -0.0559
  261POPC   C1B 3129   8.467  14.094  18.670 -0.0489 -0.0344  0.4617
  261POPC   C2B 3130   8.415  13.959  18.251  0.1154 -0.1454 -0.1633
  261POPC   C3B 3131   8.389  13.941  17.790  0.2159 -0.1427 -0.2972
  261POPC   C4B 3132   8.431  13.715  17.355 -0.0486  0.0788 -0.0481
  262POPC   NC3 3133  13.951  19.602  19.339  0.0203  0.1540 -0.2528
  262POPC   PO4 3134  14.094  19.240  19.435  0.2957  0.1688  0.0540
  262POPC   GL1 3135  14.060  19.267  18.985  0.1439 -0.1077  0.1078
  262POPC   GL2 3136  14.224  19.471  18.828  0.0523  0.1588  0.0783
  262POPC   C1A 3137  14.203  19.006  18.639 -0.1686 -0.1683 -0.1363
  262POPC   D2A 3138  14.610  18.740  18.630 -0.4195 -0.0554 -0.0899
  262POPC   C3A 3139  14.693  18.400  18.372  0.1014 -0.1242  0.0518
  262POPC   C4A 3140  14.983  18.315  18.006 -0.1204  0.3541 -0.1612
  262POPC   C1B 3141  14.035  19.488  18.356 -0.2033 -0.2904 -0.0787
  262POPC   C2B 3142  13.886  19.607  17.927  0.1626  0.1145 -0.0945
  262POPC   C3B 3143  13.919  19.773  17.519 -0.1030 -0.0384  0.3607
  262POPC   C4B 3144  14.244  19.777  17.229  0.0537 -0.0288  0.1927
  263POPC   NC3 3145   6.676   8.827  19.000 -0.2001 -0.0559 -0.0672
  263POPC   PO4 3146   7.008   9.009  18.976 -0.3007  0.2070  0.0187
  263POPC   GL1 3147   7.045   8.876  18.586 -0.0551  0.1867  0.0031
  263POPC   GL2 3148   7.217   9.001  18.405 -0.0604  0.0402  0.3154
  263POPC   C1A 3149   6.786   8.708  18.210 -0.0756 -0.3273  0.0051
  263POPC   D2A 3150   6.532   8.598  17.776  0.0794 -0.0053  0.1330
  263POPC   C3A 3151   6.507   8.908  17.406 -0.0138  0.3619  0.0156
  263POPC   C4A 3152   6.375   9.080  17.002  0.2847  0.2231 -0.1685
  263POPC   C1B 3153   7.246   8.870  17.959  0.3099  0.4817 -0.0391
  263POPC   C2B 3154   7.072   8.621  17.580 -0.3360 -0.1747  0.0995
  263POPC   C3B 3155   6.910   8.461  17.157  0.1881 -0.0416 -0.0572
  263POPC   C4B 3156   7.083   8.134  16.906 -0.1864  0.0419 -0.0964
  264POPC   NC3 3157   6.436  13.213  19.280  0.2064  0.0735 -0.1604
  264POPC   PO4 3158   6.802  13.356  19.226  0.0399 -0.0614  0.1495
  264POPC   GL1 3159   6.752  13.345  18.811  0.0062 -0.1552 -0.0111
  264POPC   GL2 3160   6.987  13.191  18.763  0.1803  0.0896 -0.0937
  264POPC   C1A 3161   6.928  13.547  18.420 -0.0175  0.1432  0.1203
  264POPC   D2A 3162   7.015  13.633  17.947 -0.0184  0.0345  0.2433
  264POPC   C3A 3163   6.833  13.892  17.564  0.1578 -0.1707  0.2043
  264POPC   C4A 3164   6.486  13.792  17.308 -0.3029  0.1687 -0.2842
  264POPC   C1B 3165   7.065  13.024  18.342  0.4830 -0.1189 -0.0519
  264POPC   C2B 3166   7.072  13.161  17.856  0.0127  0.0944  0.1356
  264POPC   C3B 3167   7.349  13.422  17.613 -0.0736  0.1925  0.1361
  264POPC   C4B 3168   7.330  13.915  17.481 -0.3292  0.1148 -0.1498
  265POPC   NC3 3169   7.760  30.951  19.832  0.0934  0.2593 -0.3886
  265POPC   PO4 3170   7.840  30.701  19.518  0.0750  0.0624  0.1452
  265POPC   GL1 3171   7.765  30.873  19.137  0.0347  0.2701  0.0371
  265POPC   GL2 3172   7.501  31.042  19.136 -0.1563  0.1923  0.1530
  265POPC   C1A 3173   7.767  30.732  18.700 -0.0550 -0.2683 -0.0005
  265POPC   D2A 3174   7.557  30.607  18.298  0.0274 -0.2034 -0.2286
  265POPC   C3A 3175   7.544  30.709  17.841 -0.1759  0.1219  0.1180
  265POPC   C4A 3176   7.547  30.894  17.400  0.0163  0.0137 -0.0892
  265POPC   C1B 3177   7.356  30.955  18.755 -0.1937  0.0759  0.1086
  265POPC   C2B 3178   7.310  31.115  18.324 -0.1558 -0.0437  0.1837
  265POPC   C3B 3179   7.559  31.147  17.952  0.2946  0.1528 -0.0600
  265POPC   C4B 3180   7.886  31.123  17.618 -0.2410  0.5146  0.0755
  266POPC   NC3 3181   0.117  25.405  19.040 -0.0580  0.2251  0.0614
  266POPC   PO4 3182   0.035  25.004  19.143  0.0092 -0.0355 -0.0888
  266POPC   GL1 3183   0.033  24.910  18.761  0.0414 -0.0242  0.4225
  266POPC   GL2 3184   0.055  24.676  18.700 -0.1156  0.0424  0.2145
  266POPC   C1A 3185  -0.371  24.913  18.539  0.0035  0.5225  0.2453
  266POPC   D2A 3186  -0.580  24.741  18.211 -0.1403  0.1887 -0.1044
  266POPC   C3A 3187  -0.914  24.531  18.065 -0.0084  0.0209  0.0783
  266POPC   C4A 3188  -1.061  24.150  17.900 -0.0412 -0.2269  0.1032
  266POPC   C1B 3189  -0.051  24.702  18.244 -0.3318 -0.0248  0.0688
  266POPC   C2B 3190  -0.225  24.737  17.858  0.1113 -0.0890  0.0295
  266POPC   C3B 3191  -0.623  24.681  17.661 -0.0909  0.0499 -0.2193
  266POPC   C4B 3192  -1.085  24.617  17.599  0.2782 -0.0437 -0.0294
  267POPC   NC3 3193  10.512   5.426  18.511 -0.2130 -0.0527 -0.0144
  267POPC   PO4 3194  10.872   5.550  18.679 -0.0300  0.2047  0.0865
  267POPC   GL1 3195  11.068   5.441  18.397  0.0147  0.2053  0.0280
  267POPC   GL2 3196  10.880   5.359  18.144 -0.3375 -0.3199 -0.0901
  267POPC   C1A 3197  11.496   5.363  18.165  0.1206 -0.0580  0.0408
  267POPC   D2A 3198  11.559   5.260  17.772 -0.2647  0.0356  0.2413
  267POPC   C3A 3199  11.450   5.464  17.384 -0.2622 -0.1117 -0.1722
  267POPC   C4A 3200  11.700   5.286  17.027 -0.5135  0.0578 -0.1457
  267POPC   C1B 3201  10.559   5.269  17.763 -0.1379  0.1808  0.0675
  267POPC   C2B 3202  10.162   5.205  17.586  0.1022 -0.0649  0.1319
  267POPC   C3B 3203   9.733   5.370  17.421 -0.0178  0.1696  0.1409
  267POPC   C4B 3204   9.364   5.117  17.590  0.0352 -0.0759  0.1301
  268POPC   NC3 3205  12.165  30.332  19.518 -0.1338 -0.1078  0.0979
  268POPC   PO4 3206  12.119  29.994  19.254 -0.0011 -0.0069  0.0653
  268POPC   GL1 3207  12.139  29.905  18.837  0.1612 -0.0321 -0.1854
  268POPC   GL2 3208  12.157  29.592  18.822  0.2463  0.0800 -0.2511
  268POPC   C1A 3209  11.763  29.741  18.577  0.3872 -0.4025  0.1777
  268POPC   D2A 3210  11.778  29.514  18.133  0.0625  0.3580 -0.0858
  268POPC   C3A 3211  11.310  29.445  17.912 -0.0989 -0.1839  0.0452
  268POPC   C4A 3212  10.924  29.593  17.999  0.1280  0.1580 -0.2734
  268POPC   C1B 3213  12.396  29.623  18.461 -0.0024  0.1085  0.0453
  268POPC   C2B 3214  12.354  29.664  17.988  0.1384  0.1183  0.3505
  268POPC   C3B 3215  12.182  29.840  17.646  0.0310  0.0642 -0.0822
  268POPC   C4B 3216  11.782  29.983  17.388  0.0682  0.1787 -0.1151
  269POPC   NC3 3217   5.693  11.348  19.551  0.2418 -0.1605  0.1328
  269POPC   PO4 3218   6.042  11.448  19.668 -0.4026 -0.3633 -0.1294
  269POPC   GL1 3219   6.039  11.476  19.325  0.1841 -0.3411 -0.2743
  269POPC   GL2 3220   5.919  11.785  19.309 -0.1412 -0.2998 -0.0750
  269POPC   C1A 3221   6.258  11.545  18.928  0.5597 -0.2764 -0.0376
  269POPC   D2A 3222   6.248  11.480  18.481  0.0074 -0.2715 -0.3060
  269POPC   C3A 3223   6.576  11.502  18.215  0.0967  0.1269  0.1474
  269POPC   C4A 3224   6.857  11.733  17.878 -0.1549  0.1246 -0.1170
  269POPC   C1B 3225   5.753  11.635  18.927  0.0440 -0.2649  0.0638
  269POPC   C2B 3226   5.443  11.402  18.628 -0.1407 -0.0687  0.1801
  269POPC   C3B 3227   5.327  11.425  18.238 -0.1516 -0.1305 -0.0876
  269POPC   C4B 3228   5.425  11.556  17.850  0.1063  0.2846  0.1516
  270POPC   NC3 3229  14.540  29.222  19.460  0.3213 -0.2290 -0.1477
  270POPC   PO4 3230  14.332  28.919  19.357  0.0946 -0.1047 -0.0794
  270POPC   GL1 3231  14.192  28.985  18.956 -0.2634  0.3102 -0.6238
  270POPC   GL2 3232  14.217  29.273  18.860  0.1785 -0.0070 -0.1248
  270POPC   C1A 3233  14.177  28.867  18.495  0.2039 -0.0645 -0.0703
  270POPC   D2A 3234  13.863  28.975  18.141  0.0251  0.1559  0.0373
  270POPC   C3A 3235  13.844  28.919  17.664 -0.0971 -0.1959 -0.0089
  270POPC   C4A 3236  13.690  28.777  17.247  0.0135 -0.0128  0.0730
  270POPC   C1B 3237  14.127  29.623  18.557  0.0211 -0.3301 -0.1178
  270POPC   C2B 3238  14.347  29.807  18.179 -0.1344  0.3380  0.0998
  270POPC   C3B 3239  14.684  29.948  17.853  0.0945  0.2112 -0.2231
  270POPC   C4B 3240  14.815  30.028  17.410  0.1226 -0.1520  0.0260
  271POPC   NC3 3241   9.687  17.035  19.193 -0.0489 -0.3126 -0.0219
  271POPC   PO4 3242   9.830  17.389  19.339 -0.3621 -0.3645 -0.0362
  271POPC   GL1 3243   9.671  17.822  19.217  0.0668  0.1631  0.0496
  271POPC   GL2 3244   9.755  18.034  19.135 -0.1653 -0.1203 -0.0659
  271POPC   C1A 3245   9.322  17.875  18.938  0.0229 -0.0956  0.0934
  271POPC   D2A 3246   9.096  18.238  18.720  0.0204 -0.3428  0.1691
  271POPC   C3A 3247   8.683  18.053  18.717  0.0882 -0.0094  0.0880
  271POPC   C4A 3248   8.243  17.923  18.771  0.2779 -0.1036  0.1174
  271POPC   C1B 3249   9.654  18.224  18.713  0.0826 -0.1383 -0.0695
  271POPC   C2B 3250   9.465  18.208  18.276 -0.1011  0.2638 -0.1206
  271POPC   C3B 3251   9.036  18.057  18.152  0.1528  0.0833 -0.0554
  271POPC   C4B 3252   8.554  18.159  18.042 -0.1132  0.1624  0.0381
  272POPC   NC3 3253   4.242  31.183  19.254  0.1201  0.0285 -0.0118
  272POPC   PO4 3254   4.021  30.903  19.289  0.3053 -0.2870  0.1450
  272POPC   GL1 3255   4.085  30.842  18.955  0.0027  0.1854  0.1596
  272POPC   GL2 3256   4.085  31.038  18.794  0.0177 -0.1535 -0.1021
  272POPC   C1A 3257   3.830  30.493  18.703 -0.1593  0.1918 -0.0602
  272POPC   D2A 3258   3.524  30.188  18.605 -0.0739 -0.0179 -0.1731
  272POPC   C3A 3259   3.517  30.044  18.181 -0.0888  0.3058 -0.1442
  272POPC   C4A 3260   3.679  30.091  17.733  0.1614 -0.1415 -0.2401
  272POPC   C1B 3261   3.937  30.852  18.398  0.0908  0.2101 -0.1511
  272POPC   C2B 3262   3.927  30.976  17.954 -0.1256 -0.0359  0.1518
  272POPC   C3B 3263   4.032  31.167  17.539  0.2545 -0.0336 -0.2454
  272POPC   C4B 3264   4.065  31.270  17.076 -0.1942 -0.0396 -0.0982
  273POPC   NC3 3265   9.949  17.780  19.634 -0.0289 -0.1166  0.1489
  273POPC   PO4 3266  10.169  17.767  19.318  0.0835 -0.1503 -0.0263
  273POPC   GL1 3267  10.020  17.674  18.930  0.0758 -0.2083 -0.2312
  273POPC   GL2 3268  10.143  17.877  18.758 -0.0110 -0.4366  0.3357
  273POPC   C1A 3269  10.041  17.500  18.518 -0.1488  0.1317  0.0617
  273POPC   D2A 3270   9.990  17.528  18.032  0.1402 -0.4273  0.1239
  273POPC   C3A 3271  10.040  17.267  17.652  0.1575  0.1065 -0.0742
  273POPC   C4A 3272   9.988  17.166  17.205  0.0886 -0.0251  0.0529
  273POPC   C1B 3273  10.212  17.943  18.358  0.0991 -0.1615  0.1458
  273POPC   C2B 3274   9.951  18.132  18.010 -0.1611 -0.1763  0.2408
  273POPC   C3B 3275   9.581  18.252  17.756 -0.5314 -0.0477  0.1489
  273POPC   C4B 3276   9.210  17.975  17.654 -0.1706  0.0869  0.0486
  274POPC   NC3 3277  13.636  30.750  18.881 -0.2735 -0.1768 -0.2419
  274POPC   PO4 3278  13.323  30.831  19.015  0.3066  0.2498 -0.0667
  274POPC   GL1 3279  13.204  30.868  18.648  0.2792  0.1821 -0.1116
  274POPC   GL2 3280  13.208  30.610  18.575 -0.0084  0.0304  0.0331
  274POPC   C1A 3281  12.845  30.989  18.448  0.3635 -0.0145  0.1561
  274POPC   D2A 3282  12.611  30.951  18.064 -0.1562 -0.0403  0.1255
  274POPC   C3A 3283  12.703  30.587  17.806  0.3623 -0.1520  0.0048
  274POPC   C4A 3284  12.656  30.328  17.447  0.0131  0.1088  0.0092
  274POPC   C1B 3285  12.990  30.191  18.584 -0.1112  0.1489 -0.0808
  274POPC   C2B 3286  12.641  30.070  18.291  0.2818  0.3185  0.0884
  274POPC   C3B 3287  12.671  30.046  17.852  0.2447 -0.1533 -0.3134
  274POPC   C4B 3288  12.684  29.709  17.533 -0.2607 -0.0964  0.2367
  275POPC   NC3 3289   2.704  29.164  19.287 -0.0182 -0.1395 -0.1113
  275POPC   PO4 3290   2.754  28.789  19.182 -0.1061 -0.1009 -0.3154
  275POPC   GL1 3291   2.671  28.497  19.008  0.4912  0.1620  0.2163
  275POPC   GL2 3292   2.308  28.404  18.896  0.1181 -0.1338  0.2401
  275POPC   C1A 3293   2.968  28.198  18.770  0.0448 -0.0640 -0.0165
  275POPC   D2A 3294   3.053  28.225  18.314 -0.0797 -0.0403  0.0779
  275POPC   C3A 3295   3.290  28.176  17.894  0.0483  0.2225 -0.0610
  275POPC   C4A 3296   3.506  27.905  17.553  0.0686 -0.0242 -0.1272
  275POPC   C1B 3297   2.536  28.413  18.509 -0.0952  0.0884 -0.3246
  275POPC   C2B 3298   2.732  28.540  18.133  0.1842 -0.0261 -0.0152
  275POPC   C3B 3299   2.820  28.607  17.728  0.1530 -0.2343 -0.1558
  275POPC   C4B 3300   3.098  28.852  17.560  0.1018  0.1032 -0.1386
  276POPC   NC3 3301  10.416  15.359  19.480  0.2192  0.0238  0.2292
  276POPC   PO4 3302  10.426  15.455  19.066 -0.0107  0.0430  0.1564
  276POPC   GL1 3303  10.172  15.365  18.807  0.0052  0.1101  0.0236
  276POPC   GL2 3304   9.898  15.247  18.849  0.1447  0.1541 -0.0203
  276POPC   C1A 3305  10.121  15.086  18.377 -0.1848 -0.1337  0.1559
  276POPC   D2A 3306   9.760  14.957  18.156 -0.2810  0.3081 -0.2344
  276POPC   C3A 3307   9.754  15.110  17.672  0.1260 -0.1092  0.0229
  276POPC   C4A 3308   9.963  15.434  17.334  0.3106 -0.1284  0.0333
  276POPC   C1B 3309   9.843  15.461  18.418 -0.1498  0.2579 -0.2224
  276POPC   C2B 3310   9.763  15.525  18.035  0.1919 -0.1800 -0.3587
  276POPC   C3B 3311   9.480  15.519  17.664 -0.1066  0.0013 -0.0328
  276POPC   C4B 3312   9.369  15.693  17.245 -0.0778 -0.0780 -0.0196
  277POPC   NC3 3313   7.983   7.180  19.064  0.0859  0.1047 -0.1164
  277POPC   PO4 3314   7.738   7.358  19.319  0.0079 -0.3194  0.0839
  277POPC   GL1 3315   7.668   7.733  19.128  0.0864 -0.6123 -0.0798
  277POPC   GL2 3316   7.441   7.663  18.985  0.2906  0.1090 -0.2854
  277POPC   C1A 3317   7.949   7.672  18.789  0.1781 -0.4747  0.0974
  277POPC   D2A 3318   8.235   7.432  18.551  0.0219  0.1252  0.1112
  277POPC   C3A 3319   8.407   7.537  18.096  0.2711  0.3321  0.2080
  277POPC   C4A 3320   8.376   7.592  17.618  0.0735  0.0095  0.0429
  277POPC   C1B 3321   7.224   7.864  18.633  0.0508  0.0915 -0.4082
  277POPC   C2B 3322   7.056   7.744  18.230  0.0258  0.1530 -0.0524
  277POPC   C3B 3323   6.968   7.897  17.775 -0.1147  0.2525 -0.0601
  277POPC   C4B 3324   7.170   8.015  17.381 -0.1982  0.1480 -0.1405
  278POPC   NC3 3325   3.201  14.149  18.891  0.1136  0.0371  0.2403
  278POPC   PO4 3326   3.097  14.406  19.124 -0.0767  0.4552  0.1335
  278POPC   GL1 3327   3.184  14.683  18.929  0.1529  0.1940  0.1041
  278POPC   GL2 3328   3.439  14.637  18.889 -0.0512  0.0023  0.3024
  278POPC   C1A 3329   3.133  14.860  18.438  0.0174  0.1044 -0.3974
  278POPC   D2A 3330   2.853  14.755  18.094  0.0860 -0.0621 -0.1211
  278POPC   C3A 3331   2.842  14.886  17.625  0.1068  0.3002 -0.1405
  278POPC   C4A 3332   3.114  15.183  17.459 -0.1259  0.1365  0.1331
  278POPC   C1B 3333   3.347  14.423  18.461  0.0807  0.0394  0.0977
  278POPC   C2B 3334   3.513  14.674  18.036  0.2080  0.0948 -0.0343
  278POPC   C3B 3335   3.231  15.046  17.912 -0.0343  0.1596  0.0755
  278POPC   C4B 3336   2.948  15.362  17.985 -0.1434 -0.0009  0.0035
  279POPC   NC3 3337   5.421  26.034  19.549 -0.2226  0.0844 -0.0400
  279POPC   PO4 3338   5.200  26.336  19.682 -0.2106 -0.1955 -0.2558
  279POPC   GL1 3339   5.004  26.342  19.348 -0.1758 -0.1216 -0.1089
  279POPC   GL2 3340   5.201  26.276  19.171 -0.3339 -0.0515  0.0422
  279POPC   C1A 3341   4.566  26.404  19.176 -0.0773 -0.0299 -0.2666
  279POPC   D2A 3342   4.135  26.404  19.012  0.2655  0.2128 -0.0655
  279POPC   C3A 3343   4.057  26.609  18.593 -0.0817  0.0612  0.0117
  279POPC   C4A 3344   4.419  26.508  18.270  0.1911 -0.0566 -0.0829
  279POPC   C1B 3345   4.992  26.637  18.906 -0.0494  0.2183 -0.0688
  279POPC   C2B 3346   4.963  26.704  18.445  0.0865  0.0660  0.3895
  279POPC   C3B 3347   4.884  26.599  17.975  0.0675 -0.3717  0.3642
  279POPC   C4B 3348   4.791  26.616  17.509 -0.0310  0.0898 -0.2906
  280POPC   NC3 3349   6.447   4.417  20.234 -0.2488  0.1068 -0.1514
  280POPC   PO4 3350   6.488   4.412  19.832  0.2846 -0.1915  0.0017
  280POPC   GL1 3351   6.439   4.293  19.486  0.0231 -0.2686  0.4129
  280POPC   GL2 3352   6.488   4.414  19.218  0.0471 -0.0928  0.3281
  280POPC   C1A 3353   6.041   4.111  19.248  0.0169  0.0689 -0.0324
  280POPC   D2A 3354   5.914   3.851  18.890  0.1475 -0.2647 -0.1073
  280POPC   C3A 3355   6.032   3.368  18.751  0.0829  0.3626  0.3816
  280POPC   C4A 3356   5.760   3.152  18.455 -0.0388  0.1322  0.1081
  280POPC   C1B 3357   6.493   4.032  18.970  0.0136 -0.2159  0.1606
  280POPC   C2B 3358   6.459   3.618  18.911 -0.1221 -0.0643 -0.3133
  280POPC   C3B 3359   6.581   3.254  18.695  0.0837  0.0205  0.0535
  280POPC   C4B 3360   6.177   2.908  18.625  0.2266  0.1271  0.1962
  281POPC   NC3 3361  14.972  28.933  19.524  0.3277 -0.0334 -0.0262
  281POPC   PO4 3362  15.123  28.607  19.590 -0.1308  0.1973 -0.2969
  281POPC   GL1 3363  15.246  28.685  19.201  0.0809  0.0772  0.1237
  281POPC   GL2 3364  15.243  28.926  19.056  0.2140  0.0308 -0.2562
  281POPC   C1A 3365  14.992  28.532  18.860  0.0463 -0.0126  0.1997
  281POPC   D2A 3366  14.968  28.636  18.394  0.3024 -0.0013  0.0762
  281POPC   C3A 3367  14.625  28.848  18.181  0.1194  0.1033  0.0328
  281POPC   C4A 3368  14.266  28.937  17.905  0.2178  0.1806 -0.0453
  281POPC   C1B 3369  15.479  28.673  18.688  0.0305 -0.0992 -0.1994
  281POPC   C2B 3370  15.536  28.676  18.236 -0.2137 -0.0131 -0.3001
  281POPC   C3B 3371  15.588  28.523  17.774  0.0900 -0.3152 -0.0125
  281POPC   C4B 3372  15.602  28.703  17.348  0.0717 -0.0670 -0.3987
  282POPC   NC3 3373   0.313  14.844  19.254 -0.0139 -0.1241  0.2891
  282POPC   PO4 3374   0.691  14.698  19.234  0.2412 -0.2022 -0.0370
  282POPC   GL1 3375   0.826  14.857  18.931  0.0995  0.2399  0.1824
  282POPC   GL2 3376   0.633  15.054  18.852  0.2720  0.1270  0.0673
  282POPC   C1A 3377   1.003  14.713  18.500  0.1393 -0.1196  0.1178
  282POPC   D2A 3378   1.199  14.980  18.156 -0.1361  0.0870  0.0703
  282POPC   C3A 3379   1.090  15.057  17.706  0.0736 -0.0625  0.2460
  282POPC   C4A 3380   0.747  14.893  17.419  0.1563  0.0104  0.1104
  282POPC   C1B 3381   0.496  14.780  18.509 -0.2048 -0.3014  0.2735
  282POPC   C2B 3382   0.666  14.662  18.062 -0.1940 -0.0924  0.2452
  282POPC   C3B 3383   0.707  14.392  17.728  0.3501 -0.1926  0.1772
  282POPC   C4B 3384   0.747  14.366  17.318 -0.0742 -0.0416  0.2342
  283POPC   NC3 3385   6.320  17.759  19.628  0.2915 -0.2164 -0.3453
  283POPC   PO4 3386   6.594  17.446  19.657  0.2156  0.0154  0.3270
  283POPC   GL1 3387   6.737  17.553  19.327  0.3152  0.1701 -0.2047
  283POPC   GL2 3388   6.465  17.564  19.202 -0.1340  0.3322  0.1427
  283POPC   C1A 3389   6.800  17.996  19.192  0.0381  0.0508  0.0584
  283POPC   D2A 3390   6.798  18.317  18.816  0.1862  0.0714 -0.2857
  283POPC   C3A 3391   6.940  18.365  18.342  0.0322 -0.2372  0.3461
  283POPC   C4A 3392   6.981  18.262  17.873  0.3313  0.3955 -0.0015
  283POPC   C1B 3393   6.638  17.338  18.813  0.2585  0.2929 -0.2704
  283POPC   C2B 3394   6.438  17.553  18.394  0.0200  0.1744 -0.0889
  283POPC   C3B 3395   6.199  17.696  18.064 -0.0156 -0.1890  0.2123
  283POPC   C4B 3396   5.806  17.814  17.960 -0.0368  0.0804 -0.1426
  284POPC   NC3 3397  13.809   4.500  19.230 -0.1231 -0.2362 -0.0414
  284POPC   PO4 3398  13.656   4.300  19.539 -0.2789  0.1697  0.0881
  284POPC   GL1 3399  13.464   4.057  19.240  0.0611  0.0919  0.0772
  284POPC   GL2 3400  13.498   3.787  19.286  0.1062  0.0380  0.0059
  284POPC   C1A 3401  13.391   4.056  18.814  0.0080  0.1963 -0.0982
  284POPC   D2A 3402  13.376   4.294  18.487  0.1112 -0.2591 -0.0449
  284POPC   C3A 3403  13.584   4.289  18.065 -0.0654 -0.3341  0.0625
  284POPC   C4A 3404  13.759   4.179  17.699  0.1021  0.0694  0.1829
  284POPC   C1B 3405  13.432   3.549  18.903 -0.0348  0.0254 -0.1199
  284POPC   C2B 3406  13.390   3.645  18.449 -0.0877  0.1224 -0.1981
  284POPC   C3B 3407  13.264   3.353  18.090  0.3237 -0.1331  0.2914
  284POPC   C4B 3408  13.474   2.986  17.865  0.3202  0.0722  0.0506
  285POPC   NC3 3409  10.266  26.422  19.890  0.0747  0.0536  0.1882
  285POPC   PO4 3410  10.551  26.240  19.626 -0.0775 -0.1364  0.1211
  285POPC   GL1 3411  10.738  26.201  19.363 -0.2264 -0.0576  0.0566
  285POPC   GL2 3412  10.711  26.356  19.117 -0.0211 -0.0287  0.0174
  285POPC   C1A 3413  10.798  25.879  18.967  0.0775  0.2114 -0.2376
  285POPC   D2A 3414  11.116  25.673  18.749 -0.1929 -0.1833  0.2797
  285POPC   C3A 3415  11.093  25.468  18.334 -0.2610 -0.0947  0.0032
  285POPC   C4A 3416  10.873  25.401  17.910 -0.1451  0.1871  0.0732
  285POPC   C1B 3417  10.526  26.183  18.719 -0.0612 -0.2467 -0.1552
  285POPC   C2B 3418  10.498  26.280  18.302  0.0722 -0.1477  0.1758
  285POPC   C3B 3419  10.171  26.183  17.964 -0.4495  0.1402 -0.2048
  285POPC   C4B 3420   9.946  26.202  17.581  0.0789  0.1374 -0.0912
  286POPC   NC3 3421   7.039  18.287  19.937 -0.0528 -0.4287  0.1251
  286POPC   PO4 3422   6.856  18.461  19.688  0.0566 -0.0352  0.0074
  286POPC   GL1 3423   7.218  18.319  19.496 -0.1411 -0.0756  0.2075
  286POPC   GL2 3424   7.217  18.042  19.463  0.0083 -0.1351  0.1928
  286POPC   C1A 3425   7.614  18.330  19.163  0.2606 -0.1775  0.0358
  286POPC   D2A 3426   7.795  18.384  18.745  0.0457  0.0486  0.0429
  286POPC   C3A 3427   7.576  18.287  18.318 -0.0426 -0.3933  0.2076
  286POPC   C4A 3428   7.458  18.513  17.944 -0.1212 -0.0342  0.0625
  286POPC   C1B 3429   7.278  18.026  18.993  0.0671  0.1040  0.4331
  286POPC   C2B 3430   7.214  18.022  18.562  0.0169 -0.1297  0.1673
  286POPC   C3B 3431   7.052  17.890  18.149  0.3198  0.3122 -0.0095
  286POPC   C4B 3432   7.159  17.728  17.697 -0.1189  0.2908  0.1878
  287POPC   NC3 3433  15.585  27.414  19.173 -0.0131 -0.2102  0.4181
  287POPC   PO4 3434  15.485  27.773  19.343 -0.3082  0.0114  0.1508
  287POPC   GL1 3435  15.498  27.967  19.035 -0.1186 -0.0164  0.2139
  287POPC   GL2 3436  15.714  28.052  18.906  0.2267  0.1824  0.0730
  287POPC   C1A 3437  15.187  28.125  18.709 -0.0589 -0.3889  0.0255
  287POPC   D2A 3438  15.291  28.238  18.240 -0.0049  0.0644 -0.1248
  287POPC   C3A 3439  15.090  28.374  17.879  0.0869  0.1416  0.1091
  287POPC   C4A 3440  14.800  28.120  17.670 -0.1267  0.0769  0.0963
  287POPC   C1B 3441  15.764  28.281  18.533  0.2714 -0.0885 -0.0159
  287POPC   C2B 3442  15.921  28.293  18.087 -0.1614  0.1224  0.2368
  287POPC   C3B 3443  16.249  28.445  17.835 -0.0927  0.3086  0.0769
  287POPC   C4B 3444  16.110  28.412  17.350  0.0495  0.1440 -0.1498
  288POPC   NC3 3445   6.287  20.026  18.931  0.0230 -0.0437  0.1823
  288POPC   PO4 3446   6.022  20.335  18.910 -0.1241 -0.2929  0.2947
  288POPC   GL1 3447   6.101  20.247  18.461  0.4919 -0.1346  0.1853
  288POPC   GL2 3448   6.137  19.989  18.416 -0.2387 -0.1713  0.3731
  288POPC   C1A 3449   6.382  20.208  18.010  0.0777  0.1782 -0.1948
  288POPC   D2A 3450   6.649  20.397  17.805  0.2597 -0.0513  0.1315
  288POPC   C3A 3451   6.806  20.241  17.384 -0.0579  0.0071  0.0397
  288POPC   C4A 3452   6.992  20.168  16.943  0.0116 -0.3001  0.0816
  288POPC   C1B 3453   6.080  19.787  17.934 -0.0036 -0.1796 -0.0234
  288POPC   C2B 3454   5.982  19.756  17.531 -0.0101 -0.0124 -0.2012
  288POPC   C3B 3455   6.122  19.745  17.110  0.0542 -0.1097  0.0873
  288POPC   C4B 3456   6.254  19.738  16.680 -0.1886 -0.2510 -0.4315
  289POPC   NC3 3457   2.776  13.520  19.303  0.0297 -0.1365 -0.1029
  289POPC   PO4 3458   2.837  13.769  18.988  0.0986 -0.3211  0.1908
  289POPC   GL1 3459   2.761  13.647  18.572 -0.2945  0.2667 -0.1107
  289POPC   GL2 3460   3.024  13.656  18.374 -0.2200 -0.0854 -0.2555
  289POPC   C1A 3461   2.505  13.633  18.169 -0.2414 -0.2275 -0.2792
  289POPC   D2A 3462   2.259  13.376  17.856 -0.0753 -0.1353  0.0859
  289POPC   C3A 3463   2.242  13.493  17.510  0.1553  0.1781  0.0318
  289POPC   C4A 3464   2.279  13.720  17.037 -0.4214 -0.2681 -0.4284
  289POPC   C1B 3465   2.950  13.842  17.932 -0.1299  0.0922  0.3042
  289POPC   C2B 3466   2.963  14.145  17.613 -0.2014  0.1127  0.0795
  289POPC   C3B 3467   2.968  13.990  17.216  0.0477 -0.1921 -0.1670
  289POPC   C4B 3468   3.157  13.880  16.816  0.1098  0.0647 -0.1157
  290POPC   NC3 3469  14.542  12.366  19.640 -0.0856  0.0372  0.3729
  290POPC   PO4 3470  14.188  12.485  19.522  0.1496  0.1035 -0.0941
  290POPC   GL1 3471  14.297  12.362  19.159  0.1085  0.2397  0.0344
  290POPC   GL2 3472  14.281  12.605  19.030 -0.4143 -0.0415 -0.0433
  290POPC   C1A 3473  14.081  12.090  18.899 -0.0737 -0.0354 -0.3571
  290POPC   D2A 3474  13.875  12.001  18.516  0.0267  0.0396  0.0536
  290POPC   C3A 3475  13.834  12.215  18.114  0.1089 -0.0508 -0.1069
  290POPC   C4A 3476  13.773  12.607  17.878  0.0731  0.1931  0.1430
  290POPC   C1B 3477  14.489  12.636  18.614  0.0659  0.1365 -0.2109
  290POPC   C2B 3478  14.592  12.566  18.159  0.1965 -0.0175 -0.2719
  290POPC   C3B 3479  14.339  12.335  17.942 -0.0519  0.0519 -0.1767
  290POPC   C4B 3480  14.028  12.130  17.686 -0.0929  0.0915 -0.0305
  291POPC   NC3 3481  14.500  10.000  19.168 -0.1633 -0.0158 -0.0168
  291POPC   PO4 3482  14.144  10.048  19.382  0.2484 -0.0633  0.0052
  291POPC   GL1 3483  14.103  10.112  18.989 -0.4442  0.0453 -0.1921
  291POPC   GL2 3484  13.782  10.120  18.909  0.0761  0.0852  0.1840
  291POPC   C1A 3485  14.147  10.493  18.698  0.2307  0.0719  0.0320
  291POPC   D2A 3486  14.538  10.687  18.594 -0.1286 -0.0993  0.3626
  291POPC   C3A 3487  14.606  10.735  18.129 -0.1111  0.0484 -0.0243
  291POPC   C4A 3488  14.631  10.451  17.820  0.1043  0.1510  0.1258
  291POPC   C1B 3489  13.991   9.997  18.521  0.0198  0.0100  0.3313
  291POPC   C2B 3490  13.977  10.254  18.138 -0.4505  0.1760  0.1126
  291POPC   C3B 3491  13.894  10.169  17.640  0.1857 -0.1870 -0.1126
  291POPC   C4B 3492  13.780  10.197  17.134 -0.1209 -0.1200 -0.2693
  292POPC   NC3 3493  11.623  24.344  19.976  0.0255  0.2041  0.0697
  292POPC   PO4 3494  11.594  24.565  19.665 -0.1176 -0.1369  0.1547
  292POPC   GL1 3495  11.524  24.518  19.258 -0.3367  0.2576 -0.0290
  292POPC   GL2 3496  11.747  24.371  19.198  0.0575  0.3008  0.2566
  292POPC   C1A 3497  11.318  24.791  18.959  0.0273  0.0928 -0.2242
  292POPC   D2A 3498  11.442  25.115  18.697  0.2536  0.1837  0.0419
  292POPC   C3A 3499  11.542  25.444  18.441  0.2603  0.2977  0.1693
  292POPC   C4A 3500  11.850  25.670  18.166  0.3115  0.1287  0.1682
  292POPC   C1B 3501  11.753  24.623  18.797  0.1349 -0.1570 -0.2035
  292POPC   C2B 3502  11.725  24.717  18.363  0.0850 -0.1652 -0.5481
  292POPC   C3B 3503  11.686  24.954  17.949 -0.1100  0.1949  0.4594
  292POPC   C4B 3504  11.576  24.811  17.520 -0.0434 -0.1636  0.0384
  293POPC   NC3 3505  10.518  11.119  19.864  0.0863 -0.1846  0.2700
  293POPC   PO4 3506  10.776  11.252  19.567  0.0044  0.2027  0.2516
  293POPC   GL1 3507  10.597  11.239  19.149  0.4889 -0.1984 -0.3225
  293POPC   GL2 3508  10.869  11.347  19.048  0.0227  0.1135  0.0516
  293POPC   C1A 3509  10.571  10.808  18.995 -0.2125  0.1868 -0.1089
  293POPC   D2A 3510  10.445  10.584  18.639 -0.3002 -0.1139  0.1259
  293POPC   C3A 3511  10.628  10.465  18.222  0.2184  0.0122 -0.1006
  293POPC   C4A 3512  10.705  10.477  17.733  0.0452  0.1062  0.0168
  293POPC   C1B 3513  10.604  11.164  18.695  0.1996 -0.1026 -0.1011
  293POPC   C2B 3514  10.571  11.039  18.264 -0.0094 -0.1556  0.1141
  293POPC   C3B 3515  10.611  11.054  17.840 -0.2812  0.3046 -0.1761
  293POPC   C4B 3516  10.476  10.966  17.364 -0.1756 -0.0163  0.0073
  294POPC   NC3 3517  12.161  23.583  19.652 -0.0592  0.2182  0.2423
  294POPC   PO4 3518  12.406  23.842  19.564 -0.0561 -0.2117 -0.0802
  294POPC   GL1 3519  12.194  23.706  19.210  0.2741 -0.0736 -0.0099
  294POPC   GL2 3520  12.048  23.874  19.106  0.1557  0.1726  0.0168
  294POPC   C1A 3521  12.368  23.613  18.806  0.0631 -0.0947  0.1239
  294POPC   D2A 3522  12.572  23.894  18.462  0.4480  0.1728 -0.1445
  294POPC   C3A 3523  12.544  24.184  18.086  0.1194 -0.4194  0.3214
  294POPC   C4A 3524  12.421  24.177  17.630 -0.0272  0.2134 -0.3654
  294POPC   C1B 3525  11.845  24.170  18.716 -0.0042  0.2740  0.2755
  294POPC   C2B 3526  11.758  24.254  18.276 -0.1534  0.1427  0.0877
  294POPC   C3B 3527  11.364  24.426  17.986 -0.2279 -0.0006  0.3439
  294POPC   C4B 3528  11.142  24.803  17.736 -0.1042 -0.0259  0.2470
  295POPC   NC3 3529   2.929  24.882  19.656 -0.0670 -0.1258  0.0561
  295POPC   PO4 3530   3.186  24.613  19.517  0.0493 -0.1571 -0.0521
  295POPC   GL1 3531   3.113  24.559  19.153  0.0877 -0.4733  0.1655
  295POPC   GL2 3532   3.032  24.845  19.030  0.0550 -0.1941 -0.1514
  295POPC   C1A 3533   2.916  24.362  18.823 -0.1004 -0.0069 -0.0603
  295POPC   D2A 3534   2.792  24.177  18.434  0.2036  0.1999 -0.2056
  295POPC   C3A 3535   3.029  24.204  18.033 -0.0654  0.1474  0.0319
  295POPC   C4A 3536   3.437  24.038  17.826 -0.2520  0.2227  0.0067
  295POPC   C1B 3537   3.083  24.766  18.559 -0.1855  0.1445 -0.0295
  295POPC   C2B 3538   2.889  24.726  18.111  0.3361  0.1842 -0.3336
  295POPC   C3B 3539   2.462  24.806  17.948 -0.0857 -0.0541 -0.1383
  295POPC   C4B 3540   2.167  24.827  17.625  0.1415  0.3232 -0.1444
  296POPC   NC3 3541   2.527   4.977  19.012 -0.1064  0.3299 -0.0646
  296POPC   PO4 3542   2.392   5.251  19.244  0.3970 -0.1035  0.3552
  296POPC   GL1 3543   2.368   5.409  18.834 -0.3258  0.1505 -0.2123
  296POPC   GL2 3544   2.553   5.440  18.719  0.2595  0.0551  0.3022
  296POPC   C1A 3545   2.164   5.349  18.400 -0.0190  0.2102  0.2990
  296POPC   D2A 3546   2.532   5.484  18.109 -0.1673  0.0905  0.1070
  296POPC   C3A 3547   2.641   5.879  17.896 -0.2730  0.2181  0.0339
  296POPC   C4A 3548   2.550   5.829  17.473  0.3626  0.2546  0.1713
  296POPC   C1B 3549   2.638   5.848  18.399 -0.1486  0.1516 -0.1174
  296POPC   C2B 3550   2.645   6.311  18.348  0.2551 -0.0405 -0.1465
  296POPC   C3B 3551   2.880   6.643  18.164  0.2257 -0.1480  0.0914
  296POPC   C4B 3552   2.702   7.049  18.005 -0.0328  0.1301 -0.0341
  297POPC   NC3 3553  10.251   2.282  19.643 -0.1018  0.0825  0.1760
  297POPC   PO4 3554  10.408   2.639  19.562 -0.0854 -0.1724  0.4647
  297POPC   GL1 3555  10.395   2.495  19.174  0.0102 -0.0912 -0.0847
  297POPC   GL2 3556  10.251   2.257  19.153  0.1488  0.1855  0.0886
  297POPC   C1A 3557  10.640   2.368  18.787 -0.0796  0.2487 -0.0948
  297POPC   D2A 3558  10.880   2.041  18.506 -0.0743  0.1449 -0.0260
  297POPC   C3A 3559  10.917   2.187  18.050 -0.0150 -0.0927 -0.3980
  297POPC   C4A 3560  10.900   2.243  17.604  0.0303 -0.0883 -0.1248
  297POPC   C1B 3561  10.143   2.306  18.721  0.2755 -0.1663 -0.2022
  297POPC   C2B 3562  10.079   2.540  18.326 -0.1604  0.1699  0.0037
  297POPC   C3B 3563   9.819   2.255  18.023 -0.1304 -0.2047 -0.0384
  297POPC   C4B 3564   9.551   2.390  17.622 -0.2024  0.2472  0.2052
  298POPC   NC3 3565  11.851  11.100  19.522 -0.2459 -0.2514  0.1677
  298POPC   PO4 3566  11.739  11.444  19.387  0.3748 -0.3663  0.1214
  298POPC   GL1 3567  11.545  11.622  19.097 -0.3718  0.1289 -0.4058
  298POPC   GL2 3568  11.249  11.641  19.099 -0.1749  0.1483  0.1048
  298POPC   C1A 3569  11.798  11.553  18.707  0.2601  0.0510 -0.0574
  298POPC   D2A 3570  12.016  11.590  18.296 -0.1882  0.4547 -0.0048
  298POPC   C3A 3571  11.892  11.379  17.907  0.1221 -0.1431 -0.2335
  298POPC   C4A 3572  11.886  11.401  17.423 -0.4422 -0.1183 -0.4685
  298POPC   C1B 3573  11.224  11.376  18.729 -0.2021 -0.3020  0.1614
  298POPC   C2B 3574  11.010  11.363  18.350  0.1376  0.1937  0.0006
  298POPC   C3B 3575  10.974  11.414  17.909 -0.0095 -0.4490 -0.0992
  298POPC   C4B 3576  10.970  11.441  17.413 -0.1398 -0.3617 -0.3059
  299POPC   NC3 3577   8.686   2.934  19.556 -0.1551 -0.1422 -0.1378
  299POPC   PO4 3578   9.025   2.701  19.445  0.0818  0.0783  0.1447
  299POPC   GL1 3579   8.853   2.847  19.115  0.1256  0.3745  0.1606
  299POPC   GL2 3580   8.745   3.133  19.083 -0.1942  0.0475 -0.2435
  299POPC   C1A 3581   8.750   2.786  18.651 -0.0266 -0.2256  0.1525
  299POPC   D2A 3582   8.362   2.593  18.679 -0.1269 -0.2638 -0.0455
  299POPC   C3A 3583   7.951   2.720  18.719  0.2038 -0.3543  0.0002
  299POPC   C4A 3584   7.506   2.923  18.805  0.1346  0.1646  0.2830
  299POPC   C1B 3585   8.496   3.497  18.848 -0.1941 -0.2343 -0.1745
  299POPC   C2B 3586   8.395   3.609  18.421  0.0497  0.3678  0.1382
  299POPC   C3B 3587   8.540   3.578  17.971 -0.0887 -0.3376  0.0139
  299POPC   C4B 3588   8.177   3.425  17.719  0.1716 -0.1097 -0.0595
  300POPC   NC3 3589  11.999  22.574  19.235 -0.1306 -0.4378  0.3616
  300POPC   PO4 3590  12.026  22.475  18.851  0.1813 -0.4009 -0.0643
  300POPC   GL1 3591  11.741  22.637  18.655  0.1052  0.0551  0.2175
  300POPC   GL2 3592  11.791  22.849  18.422  0.2054 -0.1161  0.1114
  300POPC   C1A 3593  11.316  22.675  18.421 -0.0140 -0.2121  0.1120
  300POPC   D2A 3594  11.207  22.873  18.018 -0.0546 -0.0253 -0.2457
  300POPC   C3A 3595  11.140  23.201  17.655  0.1338  0.0634 -0.0167
  300POPC   C4A 3596  10.860  23.582  17.497 -0.1083  0.1875  0.2576
  300POPC   C1B 3597  11.654  22.662  17.999  0.1042 -0.1258 -0.0747
  300POPC   C2B 3598  11.464  22.650  17.528 -0.0912 -0.6242 -0.0252
  300POPC   C3B 3599  11.325  22.644  17.091 -0.0660 -0.1378  0.0966
  300POPC   C4B 3600  11.298  22.566  16.606  0.0202 -0.1384  0.0873
  301POPC   NC3 3601   9.773  23.871  19.444 -0.1647 -0.0011  0.0101
  301POPC   PO4 3602   9.805  24.224  19.252 -0.0461  0.1082 -0.2036
  301POPC   GL1 3603   9.711  23.852  18.975  0.1582 -0.1355 -0.4243
  301POPC   GL2 3604   9.914  23.699  18.978 -0.1222  0.0336 -0.0259
  301POPC   C1A 3605   9.636  23.689  18.535  0.1030 -0.2740  0.1539
  301POPC   D2A 3606   9.551  23.389  18.213 -0.0614  0.0090 -0.1055
  301POPC   C3A 3607   9.441  23.599  17.812  0.1644  0.0013  0.2678
  301POPC   C4A 3608   9.495  23.900  17.518  0.2692  0.5152 -0.1949
  301POPC   C1B 3609  10.117  23.600  18.615 -0.0879  0.0927 -0.1928
  301POPC   C2B 3610  10.042  23.440  18.222  0.3345  0.2809  0.2257
  301POPC   C3B 3611   9.806  23.227  17.809 -0.2445  0.0644 -0.0021
  301POPC   C4B 3612   9.412  22.980  17.753 -0.2134 -0.3866 -0.1847
  302POPC   NC3 3613   0.401   9.339  19.043 -0.0081  0.0333  0.0738
  302POPC   PO4 3614   0.775   9.207  19.173  0.0023 -0.1743 -0.4490
  302POPC   GL1 3615   0.924   8.916  18.899 -0.1120  0.2907  0.0168
  302POPC   GL2 3616   0.767   8.971  18.716 -0.0135 -0.1458 -0.1554
  302POPC   C1A 3617   0.811   8.439  18.832 -0.1155 -0.2097 -0.0397
  302POPC   D2A 3618   0.748   8.202  18.444 -0.0574 -0.0877 -0.2309
  302POPC   C3A 3619   0.498   7.968  18.102 -0.0540 -0.0501  0.1972
  302POPC   C4A 3620   0.652   7.772  17.727  0.2337  0.0915 -0.2046
  302POPC   C1B 3621   0.886   9.079  18.305  0.4053  0.4011  0.4743
  302POPC   C2B 3622   0.993   9.067  17.859  0.2169 -0.1052  0.1371
  302POPC   C3B 3623   0.977   9.306  17.466  0.1908 -0.1302 -0.1294
  302POPC   C4B 3624   0.851   9.341  17.047  0.1308 -0.0896  0.2418
  303POPC   NC3 3625   4.460  20.226  18.553 -0.1336  0.0890 -0.1831
  303POPC   PO4 3626   4.811  20.117  18.713  0.2455 -0.4301 -0.2050
  303POPC   GL1 3627   4.848  20.501  18.435  0.0523  0.0472 -0.2168
  303POPC   GL2 3628   4.565  20.751  18.437 -0.3617  0.0242 -0.1077
  303POPC   C1A 3629   4.904  20.501  17.979  0.4018 -0.1652  0.0786
  303POPC   D2A 3630   5.065  20.336  17.526  0.2341 -0.3039  0.0802
  303POPC   C3A 3631   5.084  20.710  17.248 -0.2256 -0.0159 -0.0082
  303POPC   C4A 3632   5.339  20.925  16.946 -0.0880  0.2940 -0.0439
  303POPC   C1B 3633   4.694  20.985  18.080 -0.1554 -0.1472  0.0215
  303POPC   C2B 3634   4.610  21.233  17.710 -0.0403  0.0063 -0.0064
  303POPC   C3B 3635   4.701  21.561  17.387  0.0291  0.0018 -0.1943
  303POPC   C4B 3636   4.604  21.906  17.071  0.0426  0.0198 -0.1931
  304POPC   NC3 3637  12.624   1.921  19.817  0.1983  0.0813  0.0194
  304POPC   PO4 3638  12.821   2.029  19.481 -0.0183  0.1004  0.0855
  304POPC   GL1 3639  12.929   2.266  19.084  0.0357  0.0325  0.1666
  304POPC   GL2 3640  13.039   2.037  18.973  0.4312  0.4576 -0.1749
  304POPC   C1A 3641  12.813   2.358  18.643  0.2269  0.0380  0.1021
  304POPC   D2A 3642  12.683   2.041  18.347 -0.0572  0.0466  0.0235
  304POPC   C3A 3643  12.671   1.622  18.061 -0.0217  0.0781  0.3455
  304POPC   C4A 3644  12.736   1.353  17.608  0.2915  0.2467 -0.0880
  304POPC   C1B 3645  12.598   1.982  18.846  0.2037  0.1265 -0.3096
  304POPC   C2B 3646  12.300   1.723  18.619  0.0774  0.1849 -0.2372
  304POPC   C3B 3647  12.168   1.634  18.150  0.0369  0.1384 -0.0730
  304POPC   C4B 3648  11.761   1.478  17.935  0.0874  0.0604  0.0857
  305POPC   NC3 3649  10.220  14.520  19.404 -0.0581  0.0563  0.4113
  305POPC   PO4 3650  10.354  14.185  19.323  0.2395  0.0698 -0.4733
  305POPC   GL1 3651  10.179  14.323  19.001  0.2223  0.0293  0.3529
  305POPC   GL2 3652  10.109  14.063  18.848 -0.1101  0.0278  0.0668
  305POPC   C1A 3653  10.156  14.439  18.521 -0.3994  0.1404 -0.1339
  305POPC   D2A 3654  10.269  14.703  18.122  0.1187  0.0992  0.0189
  305POPC   C3A 3655  10.052  14.629  17.683  0.0549 -0.1409  0.1504
  305POPC   C4A 3656  10.017  14.480  17.202  0.2519  0.0879 -0.2551
  305POPC   C1B 3657  10.138  13.971  18.389  0.3406 -0.1165  0.0809
  305POPC   C2B 3658   9.898  14.013  17.994  0.0978  0.1050 -0.0477
  305POPC   C3B 3659   9.723  14.275  17.619  0.3097  0.1730 -0.1612
  305POPC   C4B 3660   9.577  14.149  17.205 -0.2789  0.1833  0.2480
  306POPC   NC3 3661  11.864   7.585  19.740 -0.0528 -0.2155 -0.0132
  306POPC   PO4 3662  12.099   7.838  19.525  0.3412 -0.0396 -0.0378
  306POPC   GL1 3663  12.096   8.150  19.328  0.2326  0.0594  0.2500
  306POPC   GL2 3664  12.233   8.097  19.116  0.1545  0.0097  0.1235
  306POPC   C1A 3665  11.864   8.424  18.964  0.1720 -0.0672  0.0105
  306POPC   D2A 3666  11.680   8.694  18.605 -0.2618 -0.1430 -0.1580
  306POPC   C3A 3667  11.512   8.675  18.147 -0.0003  0.2908  0.1248
  306POPC   C4A 3668  11.591   8.568  17.713 -0.2956  0.0775  0.0296
  306POPC   C1B 3669  12.098   8.148  18.612  0.1913  0.0761  0.0637
  306POPC   C2B 3670  12.020   7.949  18.181 -0.0825 -0.1839 -0.0821
  306POPC   C3B 3671  12.030   7.936  17.720 -0.4179  0.1198  0.0617
  306POPC   C4B 3672  12.229   7.876  17.318  0.2597 -0.0942 -0.1710
  307POPC   NC3 3673  10.611   0.249  19.367  0.2955 -0.3511  0.1365
  307POPC   PO4 3674  10.580   0.515  19.077 -0.2776  0.1205 -0.2244
  307POPC   GL1 3675  10.598   0.507  18.678 -0.0614  0.0396  0.3380
  307POPC   GL2 3676  10.592   0.182  18.744  0.0024  0.0994 -0.0479
  307POPC   C1A 3677  10.651   0.686  18.266 -0.3062  0.0262 -0.2331
  307POPC   D2A 3678  10.653   0.633  17.827  0.1816 -0.2075 -0.2128
  307POPC   C3A 3679  11.039   0.835  17.641 -0.0224 -0.0454  0.2453
  307POPC   C4A 3680  11.318   1.094  17.315  0.1351  0.0781 -0.1715
  307POPC   C1B 3681  10.231   0.165  18.391 -0.0067 -0.2839 -0.0519
  307POPC   C2B 3682  10.115   0.179  17.964  0.2048 -0.1963  0.0931
  307POPC   C3B 3683  10.250   0.350  17.543 -0.2123  0.0753  0.1089
  307POPC   C4B 3684  10.511   0.718  17.379 -0.1596 -0.0494 -0.1952
  308POPC   NC3 3685  14.933  19.854  19.051  0.0408  0.1761 -0.1767
  308POPC   PO4 3686  14.651  20.055  19.120  0.1894 -0.1475  0.2548
  308POPC   GL1 3687  14.633  20.134  18.730 -0.0844  0.2471 -0.0409
  308POPC   GL2 3688  14.462  19.861  18.671 -0.1112  0.0274  0.1355
  308POPC   C1A 3689  14.900  19.867  18.426 -0.1085 -0.2140  0.0095
  308POPC   D2A 3690  15.022  19.507  18.228  0.2281 -0.0413 -0.1898
  308POPC   C3A 3691  14.823  19.411  17.820 -0.0280  0.0629  0.2570
  308POPC   C4A 3692  14.520  19.369  17.414 -0.1247 -0.1449  0.0951
  308POPC   C1B 3693  14.437  19.832  18.217 -0.0176 -0.3399  0.2305
  308POPC   C2B 3694  14.403  19.804  17.780  0.0330  0.3661 -0.3005
  308POPC   C3B 3695  14.697  19.930  17.459 -0.2261 -0.1804 -0.2334
  308POPC   C4B 3696  15.162  19.866  17.399  0.0084 -0.0071 -0.0300
  309POPC   NC3 3697   9.426   1.352  19.825 -0.2059 -0.0244 -0.0069
  309POPC   PO4 3698   9.454   1.234  19.451  0.0057 -0.1520  0.0348
  309POPC   GL1 3699   9.450   1.350  19.053 -0.3338  0.2133  0.2598
  309POPC   GL2 3700   9.508   1.056  18.897  0.0354 -0.0518  0.2712
  309POPC   C1A 3701   9.061   1.511  18.804 -0.1657  0.0934  0.0442
  309POPC   D2A 3702   9.058   1.793  18.476  0.0795  0.1010 -0.1391
  309POPC   C3A 3703   8.974   2.160  18.194  0.2353  0.1064  0.1439
  309POPC   C4A 3704   8.970   2.207  17.686 -0.1290  0.1882 -0.1051
  309POPC   C1B 3705   9.763   0.975  18.505  0.1433  0.0172  0.0647
  309POPC   C2B 3706   9.960   1.175  18.146  0.2433 -0.1130 -0.0760
  309POPC   C3B 3707  10.158   1.313  17.787 -0.2427 -0.1342  0.3116
  309POPC   C4B 3708  10.250   1.616  17.489  0.2585 -0.1220 -0.0784
  310POPC   NC3 3709   1.139  18.523  19.150  0.0250  0.1730  0.3080
  310POPC   PO4 3710   0.990  18.271  19.433 -0.0569  0.2286 -0.2062
  310POPC   GL1 3711   0.746  18.230  19.106  0.4022 -0.0294 -0.0361
  310POPC   GL2 3712   0.962  17.973  18.995  0.1339  0.2397 -0.1987
  310POPC   C1A 3713   0.498  18.296  18.732 -0.1898  0.0214 -0.0847
  310POPC   D2A 3714   0.085  18.192  18.553 -0.0409 -0.1963 -0.1521
  310POPC   C3A 3715   0.109  17.875  18.241  0.0324  0.0021 -0.1344
  310POPC   C4A 3716   0.477  17.647  18.126  0.1826  0.1356  0.0568
  310POPC   C1B 3717   0.887  17.656  18.644  0.0778  0.0650 -0.3629
  310POPC   C2B 3718   1.045  17.647  18.189 -0.2535 -0.0471  0.2990
  310POPC   C3B 3719   1.228  17.788  17.856  0.2697 -0.0169  0.0269
  310POPC   C4B 3720   1.542  18.043  17.795  0.2433 -0.3898  0.0374
  311POPC   NC3 3721   1.909  18.684  19.450  0.4302  0.0395  0.0685
  311POPC   PO4 3722   1.943  18.309  19.547 -0.2286  0.2639  0.1276
  311POPC   GL1 3723   1.881  18.225  19.156  0.0464  0.1525 -0.1777
  311POPC   GL2 3724   1.949  17.957  19.181 -0.0858 -0.0451  0.0587
  311POPC   C1A 3725   1.522  18.226  18.903 -0.0032 -0.1079  0.0489
  311POPC   D2A 3726   1.141  18.210  18.608  0.0466  0.0871 -0.0470
  311POPC   C3A 3727   0.831  18.142  18.285 -0.0458 -0.4905 -0.0750
  311POPC   C4A 3728   0.471  18.129  18.031  0.1152 -0.0735 -0.0238
  311POPC   C1B 3729   1.970  17.730  18.793  0.0403  0.2564 -0.0218
  311POPC   C2B 3730   2.043  17.814  18.352 -0.1273  0.1900  0.0519
  311POPC   C3B 3731   2.021  17.769  17.851 -0.1450 -0.1033 -0.0098
  311POPC   C4B 3732   1.874  17.658  17.465 -0.0583  0.0246 -0.1193
  312POPC   NC3 3733   6.779  14.658  20.112 -0.0193 -0.2537  0.0969
  312POPC   PO4 3734   6.859  14.996  19.902 -0.1426  0.0245  0.1292
  312POPC   GL1 3735   6.590  14.791  19.658  0.1070 -0.4055 -0.0541
  312POPC   GL2 3736   6.647  14.971  19.423  0.1016 -0.1548  0.2270
  312POPC   C1A 3737   6.421  14.517  19.305  0.0425 -0.1571 -0.1836
  312POPC   D2A 3738   6.454  14.122  19.059 -0.2839  0.2519  0.0725
  312POPC   C3A 3739   6.417  14.175  18.627 -0.1186  0.1183 -0.0930
  312POPC   C4A 3740   6.123  13.994  18.351 -0.0036  0.0722  0.0353
  312POPC   C1B 3741   6.568  14.975  18.976 -0.2112 -0.2476 -0.0152
  312POPC   C2B 3742   6.302  14.631  18.689  0.2492 -0.1007  0.0184
  312POPC   C3B 3743   6.038  14.535  18.310  0.0038 -0.0468  0.5789
  312POPC   C4B 3744   5.896  14.671  17.886 -0.0663  0.0350 -0.0709
  313POPC   NC3 3745  14.182   3.714  19.510  0.2765 -0.0061  0.1186
  313POPC   PO4 3746  14.075   4.047  19.662 -0.2467  0.0066  0.1688
  313POPC   GL1 3747  14.214   4.171  19.280  0.2780 -0.0447  0.3264
  313POPC   GL2 3748  13.981   4.045  19.144  0.2506  0.2512 -0.1704
  313POPC   C1A 3749  14.339   4.011  18.864  0.1178 -0.2492 -0.0548
  313POPC   D2A 3750  14.429   3.963  18.402 -0.2867  0.0852  0.2725
  313POPC   C3A 3751  14.662   4.199  18.061  0.2310  0.2254 -0.1275
  313POPC   C4A 3752  14.993   4.201  17.703  0.0491  0.0101 -0.2434
  313POPC   C1B 3753  13.823   3.822  18.802 -0.0663  0.1740 -0.1716
  313POPC   C2B 3754  13.883   3.936  18.372 -0.0126  0.2949  0.0503
  313POPC   C3B 3755  14.093   3.781  17.945  0.4300  0.2367  0.0080
  313POPC   C4B 3756  14.024   3.699  17.515  0.4458 -0.0041  0.1785
  314POPC   NC3 3757   1.841   6.971  19.973 -0.1987  0.0489  0.0304
  314POPC   PO4 3758   2.156   6.821  19.762  0.2004 -0.2422  0.1184
  314POPC   GL1 3759   2.119   6.831  19.393  0.1153  0.1966  0.1282
  314POPC   GL2 3760   2.007   7.119  19.418  0.1297  0.3391 -0.1154
  314POPC   C1A 3761   1.758   6.754  19.089 -0.1769 -0.5193 -0.2891
  314POPC   D2A 3762   1.587   6.535  18.698 -0.0158  0.4073  0.1091
  314POPC   C3A 3763   1.506   6.735  18.276 -0.1991  0.0743 -0.0210
  314POPC   C4A 3764   1.581   6.773  17.820 -0.0486  0.0395  0.4548
  314POPC   C1B 3765   1.748   7.223  18.976 -0.3951  0.2713 -0.2329
  314POPC   C2B 3766   1.406   7.063  18.684 -0.1285 -0.0469 -0.3002
  314POPC   C3B 3767   1.089   7.018  18.388 -0.2329 -0.0977 -0.1469
  314POPC   C4B 3768   1.181   7.062  17.879 -0.2153 -0.1941  0.0463
  315POPC   NC3 3769   3.591  18.986  19.372 -0.4058 -0.0620  0.0052
  315POPC   PO4 3770   3.509  18.724  19.117  0.0095 -0.2307  0.1289
  315POPC   GL1 3771   3.509  18.789  18.752 -0.3036 -0.1061 -0.0730
  315POPC   GL2 3772   3.432  18.501  18.675  0.2627 -0.0257  0.0501
  315POPC   C1A 3773   3.753  19.075  18.426  0.3672  0.0915  0.2339
  315POPC   D2A 3774   3.917  19.348  18.029  0.0923 -0.0756 -0.3423
  315POPC   C3A 3775   4.057  19.403  17.580  0.1953 -0.0962  0.0143
  315POPC   C4A 3776   4.428  19.614  17.517  0.2942  0.0874  0.2684
  315POPC   C1B 3777   3.385  18.280  18.287 -0.1545  0.1181  0.0194
  315POPC   C2B 3778   3.378  18.237  17.807 -0.0037  0.1321  0.2441
  315POPC   C3B 3779   3.213  18.226  17.389 -0.2562 -0.1064  0.2563
  315POPC   C4B 3780   3.366  17.989  17.022  0.1957 -0.1307 -0.0132
  316POPC   NC3 3781   6.257  29.101  19.337  0.0510  0.1924  0.0127
  316POPC   PO4 3782   5.890  29.200  19.280 -0.3271  0.0858  0.1406
  316POPC   GL1 3783   5.997  29.059  18.940  0.0275 -0.1254 -0.0153
  316POPC   GL2 3784   5.738  28.929  18.839 -0.3459  0.1767 -0.0397
  316POPC   C1A 3785   5.910  29.280  18.573  0.2655 -0.3631  0.1289
  316POPC   D2A 3786   5.648  29.466  18.215 -0.0779 -0.0861  0.1021
  316POPC   C3A 3787   5.611  29.526  17.731 -0.1535  0.0603  0.0767
  316POPC   C4A 3788   5.229  29.501  17.498 -0.0937  0.2628 -0.0589
  316POPC   C1B 3789   5.578  28.950  18.430 -0.2665  0.1281 -0.0320
  316POPC   C2B 3790   5.531  28.698  18.000 -0.0025  0.1192  0.1973
  316POPC   C3B 3791   5.488  28.607  17.605  0.1797 -0.0058  0.3029
  316POPC   C4B 3792   5.479  28.291  17.280  0.1811 -0.1090  0.1038
  317POPC   NC3 3793   6.210   2.229  19.452  0.1086  0.2197  0.0136
  317POPC   PO4 3794   6.564   2.129  19.636 -0.3204  0.0026  0.1361
  317POPC   GL1 3795   6.712   2.381  19.408 -0.0737  0.2297  0.2615
  317POPC   GL2 3796   6.571   2.384  19.093 -0.0097 -0.3710 -0.4445
  317POPC   C1A 3797   6.772   2.812  19.280  0.0643 -0.0676  0.0411
  317POPC   D2A 3798   6.776   3.252  19.140  0.1360  0.0988  0.2546
  317POPC   C3A 3799   7.184   3.371  19.023  0.0325  0.2029  0.0015
  317POPC   C4A 3800   7.530   3.604  18.785 -0.0908 -0.1257  0.1961
  317POPC   C1B 3801   6.525   2.590  18.731  0.1233 -0.1704  0.5498
  317POPC   C2B 3802   6.594   2.752  18.326 -0.1611 -0.3246 -0.1119
  317POPC   C3B 3803   6.412   2.666  17.876 -0.3381 -0.0078  0.1554
  317POPC   C4B 3804   6.287   2.669  17.386 -0.1262 -0.1618  0.0910
  318POPC   NC3 3805   9.102  22.569  19.997 -0.0921 -0.0436 -0.1249
  318POPC   PO4 3806   9.267  22.773  19.706  0.1824  0.3010  0.1005
  318POPC   GL1 3807   9.261  22.910  19.354  0.2355 -0.3224  0.0489
  318POPC   GL2 3808   8.956  22.767  19.282 -0.3465 -0.1900  0.2021
  318POPC   C1A 3809   9.065  23.287  19.140  0.0900  0.0122 -0.0596
  318POPC   D2A 3810   8.791  23.701  19.092 -0.1275  0.0398 -0.1219
  318POPC   C3A 3811   8.519  23.756  18.710 -0.5306 -0.2829  0.0428
  318POPC   C4A 3812   8.611  23.848  18.250 -0.0781 -0.0006 -0.3920
  318POPC   C1B 3813   9.030  22.807  18.835  0.1232  0.1371 -0.0806
  318POPC   C2B 3814   8.853  22.880  18.404 -0.0617  0.0002  0.1767
  318POPC   C3B 3815   8.909  22.859  17.956 -0.0518  0.1658 -0.1233
  318POPC   C4B 3816   9.091  22.532  17.687  0.3174  0.0488 -0.0116
  319POPC   NC3 3817   4.880  30.160  19.600 -0.0250 -0.1393 -0.0077
  319POPC   PO4 3818   4.828  30.566  19.533 -0.3693 -0.1307 -0.1524
  319POPC   GL1 3819   4.844  30.688  19.108 -0.1186  0.0138  0.2219
  319POPC   GL2 3820   4.617  30.833  19.041  0.1737  0.0037  0.1316
  319POPC   C1A 3821   4.913  30.765  18.644  0.0851 -0.0890  0.3004
  319POPC   D2A 3822   4.876  30.987  18.207  0.0861 -0.0158 -0.0034
  319POPC   C3A 3823   4.977  30.941  17.781  0.1093  0.1886 -0.1648
  319POPC   C4A 3824   5.001  30.965  17.323 -0.2121 -0.1665  0.3024
  319POPC   C1B 3825   4.421  30.540  18.754 -0.1030  0.0429 -0.2328
  319POPC   C2B 3826   4.466  30.322  18.352  0.1980 -0.1773  0.0035
  319POPC   C3B 3827   4.574  30.313  17.918  0.0369 -0.2734 -0.0499
  319POPC   C4B 3828   4.631  30.520  17.522  0.0913 -0.2518  0.2125
  320POPC   NC3 3829  10.149  16.368  19.065 -0.1683  0.1926  0.0447
  320POPC   PO4 3830  10.191  16.726  19.202  0.1344 -0.0237 -0.1229
  320POPC   GL1 3831  10.168  16.784  18.790  0.2471  0.0209 -0.0632
  320POPC   GL2 3832   9.892  16.921  18.771 -0.1758 -0.3267 -0.0108
  320POPC   C1A 3833  10.230  17.037  18.441  0.0429 -0.0452 -0.1932
  320POPC   D2A 3834  10.293  17.055  18.001  0.2196 -0.1853 -0.1720
  320POPC   C3A 3835  10.557  17.228  17.654 -0.1136 -0.1578  0.0647
  320POPC   C4A 3836  10.952  17.185  17.391  0.0232 -0.1488 -0.1239
  320POPC   C1B 3837   9.647  17.080  18.388  0.0101 -0.2296 -0.2743
  320POPC   C2B 3838   9.305  17.330  18.265  0.0040  0.2221  0.0318
  320POPC   C3B 3839   9.045  17.570  17.994 -0.0218 -0.2936  0.2074
  320POPC   C4B 3840   9.012  17.570  17.529 -0.1712  0.0489  0.2562
  321POPC   NC3 3841   7.699  13.763  18.990 -0.1883  0.2597  0.1702
  321POPC   PO4 3842   8.079  13.676  18.900 -0.0273 -0.0256  0.1837
  321POPC   GL1 3843   8.231  13.554  18.568 -0.2978 -0.1459  0.1030
  321POPC   GL2 3844   8.491  13.552  18.694 -0.1816  0.0624 -0.0451
  321POPC   C1A 3845   8.100  13.620  18.127  0.2181  0.1662  0.2363
  321POPC   D2A 3846   7.760  13.660  17.779 -0.1064  0.3159 -0.0158
  321POPC   C3A 3847   7.901  13.893  17.406  0.0635  0.3885  0.0740
  321POPC   C4A 3848   7.958  13.943  16.972 -0.1343  0.1494  0.1248
  321POPC   C1B 3849   8.548  13.425  18.264  0.0109  0.2209 -0.0263
  321POPC   C2B 3850   8.517  13.415  17.783  0.2055  0.2958 -0.4107
  321POPC   C3B 3851   8.505  13.240  17.312  0.0778  0.1587 -0.1932
  321POPC   C4B 3852   8.413  12.969  16.903  0.0752 -0.0972 -0.0409
  322POPC   NC3 3853   3.413   0.517  19.129  0.0052  0.0322  0.2841
  322POPC   PO4 3854   3.767   0.682  19.197  0.1704  0.1836 -0.0521
  322POPC   GL1 3855   3.689   0.764  18.821  0.0517 -0.2942 -0.2242
  322POPC   GL2 3856   3.731   0.530  18.645  0.0309 -0.2780  0.1055
  322POPC   C1A 3857   3.735   1.108  18.527  0.1682  0.0719 -0.0491
  322POPC   D2A 3858   3.997   1.449  18.239  0.0683 -0.0029  0.2206
  322POPC   C3A 3859   4.182   1.311  17.803 -0.1442 -0.1465 -0.2452
  322POPC   C4A 3860   4.338   1.291  17.387  0.2233  0.0925  0.4356
  322POPC   C1B 3861   3.925   0.705  18.270  0.2517  0.0855 -0.0509
  322POPC   C2B 3862   3.859   0.986  17.964 -0.2085  0.2034  0.5139
  322POPC   C3B 3863   3.929   0.841  17.521  0.4041 -0.0602 -0.0767
  322POPC   C4B 3864   4.117   0.907  17.103 -0.1144 -0.2127  0.2014
  323POPC   NC3 3865   7.190   8.847  19.397 -0.1979  0.0031  0.2149
  323POPC   PO4 3866   7.046   8.517  19.220 -0.2567  0.0765  0.0149
  323POPC   GL1 3867   7.320   8.581  18.951 -0.1315  0.0720  0.0114
  323POPC   GL2 3868   7.537   8.544  19.019  0.0564  0.1976 -0.1983
  323POPC   C1A 3869   7.380   8.527  18.487 -0.2657 -0.0394 -0.1493
  323POPC   D2A 3870   7.681   8.322  18.217 -0.1095  0.1482 -0.1895
  323POPC   C3A 3871   7.633   8.505  17.811 -0.0435  0.0052 -0.2246
  323POPC   C4A 3872   7.515   8.916  17.510 -0.0349  0.0481 -0.2194
  323POPC   C1B 3873   7.914   8.621  18.757  0.0725  0.2470 -0.0111
  323POPC   C2B 3874   8.143   8.644  18.327  0.1563  0.0757 -0.0368
  323POPC   C3B 3875   8.163   8.564  17.888 -0.0700  0.0961 -0.1588
  323POPC   C4B 3876   7.903   8.571  17.452  0.2052  0.2918  0.1956
  324POPC   NC3 3877   0.884  21.944  19.426  0.0568  0.3429 -0.1937
  324POPC   PO4 3878   1.241  22.062  19.286  0.1555  0.2534  0.2532
  324POPC   GL1 3879   1.063  21.740  18.957 -0.1223 -0.4187 -0.3059
  324POPC   GL2 3880   0.789  21.730  18.980  0.2781  0.0941  0.0845
  324POPC   C1A 3881   1.230  21.705  18.512 -0.0080  0.1118  0.0152
  324POPC   D2A 3882   1.089  21.800  18.093 -0.1660  0.2626 -0.0834
  324POPC   C3A 3883   0.903  21.617  17.722  0.1599  0.0077  0.0953
  324POPC   C4A 3884   0.515  21.646  17.427 -0.1780  0.1289  0.1051
  324POPC   C1B 3885   0.427  21.672  18.646  0.1126  0.0942  0.2904
  324POPC   C2B 3886   0.184  21.660  18.244  0.0179 -0.1308  0.0090
  324POPC   C3B 3887  -0.166  21.800  17.968  0.0794  0.1084 -0.0865
  324POPC   C4B 3888  -0.449  21.765  17.588  0.3583  0.1590  0.3260
  325POPC   NC3 3889   3.547  24.343  19.287  0.1552 -0.0875  0.0248
  325POPC   PO4 3890   3.911  24.401  19.235 -0.0469 -0.1515 -0.1297
  325POPC   GL1 3891   3.769  24.595  18.858 -0.1888  0.0867 -0.0190
  325POPC   GL2 3892   3.478  24.436  18.810  0.0483  0.0434  0.1934
  325POPC   C1A 3893   4.000  24.974  18.689  0.2437  0.2027 -0.0771
  325POPC   D2A 3894   3.939  25.184  18.314 -0.0568  0.1739  0.2190
  325POPC   C3A 3895   3.722  25.434  18.049  0.0553 -0.0152 -0.0909
  325POPC   C4A 3896   3.485  25.786  17.912 -0.0660 -0.0393 -0.0952
  325POPC   C1B 3897   3.273  24.363  18.410 -0.1264 -0.1497  0.1038
  325POPC   C2B 3898   3.355  24.535  17.963  0.0263 -0.2229 -0.1075
  325POPC   C3B 3899   3.069  24.722  17.640  0.4412 -0.2695 -0.1149
  325POPC   C4B 3900   3.075  24.618  17.214  0.0738 -0.2205  0.3444
  326POPC   NC3 3901   4.245  23.522  19.629  0.0429 -0.1431 -0.0923
  326POPC   PO4 3902   3.878  23.748  19.650 -0.1615  0.0584 -0.0482
  326POPC   GL1 3903   3.613  23.885  19.334  0.2260  0.0501 -0.0493
  326POPC   GL2 3904   3.764  23.867  19.137  0.0283  0.1140  0.2505
  326POPC   C1A 3905   3.341  23.907  18.958  0.0493  0.2294 -0.1201
  326POPC   D2A 3906   2.974  23.841  18.764  0.1136  0.1058 -0.2334
  326POPC   C3A 3907   3.131  23.787  18.314 -0.1973  0.0361 -0.0205
  326POPC   C4A 3908   3.267  23.565  17.901 -0.1607 -0.2549 -0.1993
  326POPC   C1B 3909   3.808  24.027  18.708  0.2548 -0.2389 -0.0028
  326POPC   C2B 3910   3.811  24.283  18.306 -0.2784 -0.0676  0.0741
  326POPC   C3B 3911   3.955  24.325  17.877  0.0083 -0.2991 -0.1875
  326POPC   C4B 3912   4.048  24.539  17.494  0.3298 -0.2531  0.1721
  327POPC   NC3 3913  10.019  26.086  18.920 -0.1759 -0.0702  0.0267
  327POPC   PO4 3914   9.657  26.098  19.027 -0.1133 -0.3441 -0.2018
  327POPC   GL1 3915   9.693  26.134  18.612 -0.3153  0.0479  0.0500
  327POPC   GL2 3916   9.650  26.432  18.530 -0.1470  0.0523  0.0156
  327POPC   C1A 3917   9.786  26.070  18.182 -0.0300  0.2734 -0.2747
  327POPC   D2A 3918   9.814  25.774  17.805 -0.0321  0.3408  0.0169
  327POPC   C3A 3919  10.049  25.716  17.390 -0.0125 -0.0337 -0.2142
  327POPC   C4A 3920  10.373  25.540  17.128  0.0372  0.1794  0.4213
  327POPC   C1B 3921   9.360  26.596  18.259 -0.1014  0.3626  0.1142
  327POPC   C2B 3922   9.126  26.826  17.935 -0.3085  0.1313  0.1242
  327POPC   C3B 3923   9.117  26.954  17.464  0.1492 -0.1986  0.0540
  327POPC   C4B 3924   9.061  26.774  17.038  0.0250  0.1350  0.0828
  328POPC   NC3 3925   1.914   2.338  19.429 -0.0174  0.0894  0.0237
  328POPC   PO4 3926   1.810   2.214  19.063  0.2922 -0.2204 -0.0147
  328POPC   GL1 3927   1.620   1.896  18.859  0.0578 -0.3988  0.0031
  328POPC   GL2 3928   1.334   1.912  18.798  0.2819 -0.3134 -0.2090
  328POPC   C1A 3929   1.690   1.799  18.448 -0.1737  0.0901 -0.2705
  328POPC   D2A 3930   1.615   1.682  18.001  0.0708 -0.0395  0.1192
  328POPC   C3A 3931   1.338   1.768  17.596 -0.2597 -0.1934  0.0015
  328POPC   C4A 3932   1.249   1.553  17.221  0.0727  0.1860 -0.1485
  328POPC   C1B 3933   1.141   1.855  18.335  0.3219 -0.0643 -0.2481
  328POPC   C2B 3934   0.976   1.615  17.952 -0.0792 -0.0470 -0.0930
  328POPC   C3B 3935   0.719   1.398  17.642 -0.1143 -0.1208 -0.1960
  328POPC   C4B 3936   0.630   0.907  17.631  0.2994 -0.3133  0.1689
  329POPC   NC3 3937   8.409  11.790  19.413 -0.2118  0.1457  0.5771
  329POPC   PO4 3938   8.659  12.019  19.591  0.0074  0.0119 -0.1036
  329POPC   GL1 3939   8.795  11.909  19.102  0.0551 -0.2514 -0.0185
  329POPC   GL2 3940   9.024  11.932  19.176  0.0853  0.1938  0.2543
  329POPC   C1A 3941   8.428  11.910  18.846  0.0156 -0.1610 -0.1123
  329POPC   D2A 3942   8.373  11.799  18.391  0.1377  0.1857 -0.0448
  329POPC   C3A 3943   8.418  12.083  18.045 -0.0913 -0.2439 -0.2425
  329POPC   C4A 3944   8.566  12.311  17.680 -0.3250  0.0730 -0.1558
  329POPC   C1B 3945   9.141  11.710  18.771  0.1538  0.1172 -0.0832
  329POPC   C2B 3946   9.274  11.426  18.480 -0.2781  0.0924  0.3858
  329POPC   C3B 3947   9.573  11.019  18.543  0.0688 -0.0217  0.0710
  329POPC   C4B 3948   9.667  10.620  18.420  0.2989  0.0874 -0.0394
  330POPC   NC3 3949   3.920  19.543  18.642  0.1117  0.0666 -0.2972
  330POPC   PO4 3950   4.221  19.373  18.866 -0.0282  0.3330  0.0175
  330POPC   GL1 3951   4.251  19.288  18.455  0.0866 -0.0632 -0.1043
  330POPC   GL2 3952   4.259  19.030  18.434  0.2530  0.1920 -0.2268
  330POPC   C1A 3953   4.376  19.328  18.011  0.0695 -0.0932  0.1178
  330POPC   D2A 3954   4.517  19.140  17.620 -0.0647 -0.1230 -0.0755
  330POPC   C3A 3955   4.561  19.179  17.219 -0.2392  0.0232  0.2243
  330POPC   C4A 3956   4.764  19.497  16.951  0.1358 -0.1302 -0.0955
  330POPC   C1B 3957   4.089  18.919  18.013  0.1189  0.0919  0.1381
  330POPC   C2B 3958   3.741  19.036  17.682  0.1448 -0.1185 -0.2736
  330POPC   C3B 3959   3.695  19.147  17.210 -0.2365  0.1833 -0.0231
  330POPC   C4B 3960   3.478  19.005  16.843 -0.0289  0.4344  0.0375
  331POPC   NC3 3961   0.122  21.596  19.554  0.1637  0.0614 -0.3044
  331POPC   PO4 3962   0.305  21.750  19.236  0.2252 -0.1066  0.0460
  331POPC   GL1 3963   0.156  21.965  18.865  0.2722 -0.2116 -0.1464
  331POPC   GL2 3964  -0.047  21.843  18.762  0.3122 -0.0165 -0.1382
  331POPC   C1A 3965   0.278  22.121  18.429 -0.2038 -0.0281 -0.2380
  331POPC   D2A 3966   0.359  22.446  18.105 -0.1772  0.0108  0.0036
  331POPC   C3A 3967   0.345  22.431  17.644  0.0467 -0.0602  0.1321
  331POPC   C4A 3968   0.515  22.666  17.275 -0.1515  0.1502 -0.0158
  331POPC   C1B 3969  -0.255  22.016  18.408  0.1826 -0.0700  0.1293
  331POPC   C2B 3970  -0.625  22.047  18.137  0.4053 -0.1493 -0.0284
  331POPC   C3B 3971  -0.887  22.201  17.809 -0.0189  0.1983 -0.1250
  331POPC   C4B 3972  -1.215  22.154  17.515  0.2622 -0.1928  0.0513
  332POPC   NC3 3973   9.273  21.844  19.769 -0.1019  0.2985  0.0059
  332POPC   PO4 3974   9.342  21.783  19.391 -0.0697  0.0326 -0.0789
  332POPC   GL1 3975   9.354  21.911  19.039  0.0052 -0.0795 -0.1471
  332POPC   GL2 3976   9.223  22.150  18.935  0.1234  0.1077  0.1716
  332POPC   C1A 3977   9.523  21.610  18.735 -0.0102  0.1504  0.2517
  332POPC   D2A 3978   9.681  21.488  18.283 -0.0580  0.2195  0.0850
  332POPC   C3A 3979   9.524  21.512  17.858  0.0035  0.0073 -0.0810
  332POPC   C4A 3980   9.469  21.169  17.573  0.3373  0.1411  0.1029
  332POPC   C1B 3981   9.286  21.959  18.507  0.0742 -0.1412  0.1440
  332POPC   C2B 3982   9.346  22.105  18.064  0.0142 -0.1260 -0.3978
  332POPC   C3B 3983   9.169  21.900  17.705  0.2872 -0.1580  0.0056
  332POPC   C4B 3984   8.946  22.146  17.414  0.3719  0.0441  0.1548
  333POPC   NC3 3985   1.909  16.966  19.138 -0.0725  0.1948  0.0589
  333POPC   PO4 3986   1.790  16.778  19.442  0.1659 -0.0669 -0.1724
  333POPC   GL1 3987   1.641  16.579  19.178 -0.1225 -0.2195  0.4233
  333POPC   GL2 3988   1.524  16.610  18.883  0.2409 -0.1194  0.0897
  333POPC   C1A 3989   1.253  16.382  19.159  0.1275 -0.0403 -0.0065
  333POPC   D2A 3990   0.950  16.119  18.951 -0.1733  0.1760  0.2077
  333POPC   C3A 3991   0.596  16.239  18.632 -0.0955 -0.0257  0.0799
  333POPC   C4A 3992   0.547  16.332  18.171  0.0895  0.0106  0.1506
  333POPC   C1B 3993   1.222  16.354  18.606  0.0796  0.0160 -0.3468
  333POPC   C2B 3994   1.194  16.469  18.143  0.1014 -0.2193 -0.1223
  333POPC   C3B 3995   1.258  16.826  17.878 -0.3455 -0.1392 -0.1164
  333POPC   C4B 3996   1.189  17.265  17.760  0.0308  0.2516  0.2690
  334POPC   NC3 3997   0.181   9.843  19.710 -0.0401  0.2065  0.2181
  334POPC   PO4 3998   0.326   9.804  19.323  0.0683 -0.1074  0.0478
  334POPC   GL1 3999   0.362   9.821  18.829 -0.0247  0.1179 -0.2260
  334POPC   GL2 4000   0.196   9.619  18.641 -0.0586  0.1062 -0.0516
  334POPC   C1A 4001   0.695   9.982  18.501 -0.0177  0.0636 -0.1384
  334POPC   D2A 4002   0.847   9.888  18.126 -0.0526  0.2014  0.0331
  334POPC   C3A 4003   0.721   9.535  17.834 -0.1645 -0.1626  0.1421
  334POPC   C4A 4004   0.467   9.249  17.611  0.1451 -0.3018  0.1633
  334POPC   C1B 4005   0.238   9.989  18.401 -0.1283  0.0190 -0.0083
  334POPC   C2B 4006   0.459  10.186  18.053  0.0194 -0.0242  0.0054
  334POPC   C3B 4007   0.677  10.084  17.661 -0.1672  0.0220  0.1249
  334POPC   C4B 4008   0.773   9.757  17.399 -0.1065  0.0171  0.0730
  335POPC   NC3 4009  13.770  14.400  19.353 -0.1963 -0.0591 -0.1038
  335POPC   PO4 4010  14.089  14.648  19.312 -0.0192 -0.1009 -0.0023
  335POPC   GL1 4011  13.986  14.861  19.067 -0.1899 -0.1480  0.1420
  335POPC   GL2 4012  13.734  14.863  18.978 -0.0883 -0.2401  0.0736
  335POPC   C1A 4013  14.004  15.290  18.806  0.0633 -0.1103  0.0364
  335POPC   D2A 4014  13.684  15.585  18.592 -0.0980  0.1571 -0.2565
  335POPC   C3A 4015  13.762  15.733  18.187  0.1818  0.0590 -0.1070
  335POPC   C4A 4016  13.727  15.865  17.720 -0.1566 -0.0187  0.0651
  335POPC   C1B 4017  13.940  14.837  18.562 -0.0722 -0.1736  0.0639
  335POPC   C2B 4018  13.938  15.199  18.310  0.0134 -0.0402 -0.1119
  335POPC   C3B 4019  14.281  15.381  18.051  0.3067  0.0650 -0.1776
  335POPC   C4B 4020  14.329  15.655  17.704  0.2367  0.1652  0.1979
  336POPC   NC3 4021  12.323  17.679  19.114  0.0823 -0.0772  0.2228
  336POPC   PO4 4022  12.639  17.926  19.185  0.1201  0.3553 -0.0285
  336POPC   GL1 4023  12.690  17.905  18.793 -0.1625  0.4795 -0.3987
  336POPC   GL2 4024  12.437  17.836  18.614 -0.1907 -0.1968 -0.0804
  336POPC   C1A 4025  12.883  17.783  18.364 -0.1737 -0.1443 -0.0603
  336POPC   D2A 4026  12.921  18.000  17.978 -0.1730 -0.1680 -0.1915
  336POPC   C3A 4027  13.035  18.210  17.603 -0.1167  0.0448  0.0189
  336POPC   C4A 4028  13.082  18.486  17.207  0.2461  0.3026 -0.3070
  336POPC   C1B 4029  12.459  17.910  18.174  0.0840 -0.0898  0.0265
  336POPC   C2B 4030  12.312  17.859  17.744  0.2787 -0.2106  0.1063
  336POPC   C3B 4031  12.515  17.953  17.382  0.2028  0.1591 -0.0332
  336POPC   C4B 4032  12.603  18.145  16.956  0.1531  0.0279 -0.2365
  337POPC   NC3 4033  11.292  23.644  19.353  0.1363  0.0356 -0.1353
  337POPC   PO4 4034  11.582  23.912  19.275 -0.0729  0.2376  0.2242
  337POPC   GL1 4035  11.529  23.933  18.895  0.0174  0.1380  0.0346
  337POPC   GL2 4036  11.292  23.759  18.858 -0.1201  0.2427 -0.1529
  337POPC   C1A 4037  11.328  24.346  18.700 -0.2388 -0.0858  0.2191
  337POPC   D2A 4038  11.118  24.729  18.525  0.1924  0.0493  0.1006
  337POPC   C3A 4039  11.228  25.043  18.218 -0.1607  0.1332  0.0504
  337POPC   C4A 4040  11.335  25.286  17.899  0.0455  0.1473 -0.0411
  337POPC   C1B 4041  11.451  23.837  18.429  0.0221 -0.1850 -0.0602
  337POPC   C2B 4042  11.558  23.578  18.083  0.1336  0.2777 -0.0727
  337POPC   C3B 4043  11.620  23.167  17.811 -0.1959 -0.1901  0.0684
  337POPC   C4B 4044  11.550  23.187  17.378 -0.0116 -0.1698 -0.0549
  338POPC   NC3 4045  10.256  22.124  19.363  0.1594  0.0894 -0.1799
  338POPC   PO4 4046  10.213  21.787  19.536  0.2184 -0.0254  0.1189
  338POPC   GL1 4047  10.184  21.601  19.149  0.4224  0.0482  0.1748
  338POPC   GL2 4048   9.946  21.821  19.121  0.2023 -0.2954 -0.2219
  338POPC   C1A 4049  10.037  21.488  18.721  0.2069 -0.1697  0.3465
  338POPC   D2A 4050  10.206  21.305  18.350 -0.2007 -0.3222 -0.0452
  338POPC   C3A 4051  10.274  20.887  18.132  0.0095  0.0163  0.0256
  338POPC   C4A 4052  10.093  20.682  17.776 -0.2323  0.0469 -0.2551
  338POPC   C1B 4053   9.818  21.363  19.170 -0.0927  0.1964  0.1000
  338POPC   C2B 4054   9.715  21.076  18.819  0.3368 -0.1929 -0.0253
  338POPC   C3B 4055   9.814  21.015  18.333 -0.1070 -0.0377 -0.0448
  338POPC   C4B 4056   9.901  21.201  17.932  0.1989 -0.1153  0.3003
  339POPC   NC3 4057   2.032  29.520  19.314  0.0981 -0.2579  0.0054
  339POPC   PO4 4058   2.359  29.552  19.088  0.1556  0.0148 -0.0432
  339POPC   GL1 4059   2.619  29.590  18.850  0.3413 -0.1867  0.3216
  339POPC   GL2 4060   2.906  29.545  18.943 -0.2944 -0.0782  0.3378
  339POPC   C1A 4061   2.666  29.869  18.482 -0.1293  0.1275 -0.1378
  339POPC   D2A 4062   2.667  29.831  17.981  0.1387 -0.3353 -0.5232
  339POPC   C3A 4063   2.319  29.787  17.713 -0.1333 -0.0627  0.1728
  339POPC   C4A 4064   1.952  29.589  17.505 -0.1632 -0.0762 -0.0137
  339POPC   C1B 4065   2.994  29.346  18.494 -0.0727  0.0236  0.0797
  339POPC   C2B 4066   3.424  29.161  18.328 -0.0938  0.1990 -0.1650
  339POPC   C3B 4067   3.905  29.190  18.179  0.0108 -0.3337 -0.1462
  339POPC   C4B 4068   4.357  29.410  18.173 -0.1561 -0.0129 -0.1106
  340POPC   NC3 4069  11.954  13.344  19.305  0.0339  0.3583 -0.0929
  340POPC   PO4 4070  11.666  13.627  19.219 -0.0492 -0.0255  0.0464
  340POPC   GL1 4071  11.353  13.606  18.964 -0.2948 -0.1138 -0.1917
  340POPC   GL2 4072  11.171  13.417  19.050 -0.1251  0.1380 -0.0591
  340POPC   C1A 4073  11.370  13.663  18.476 -0.0862  0.1699  0.2192
  340POPC   D2A 4074  11.330  13.800  18.027  0.2216  0.1181  0.1119
  340POPC   C3A 4075  11.375  13.707  17.569 -0.1123 -0.1170 -0.2305
  340POPC   C4A 4076  11.602  13.931  17.231  0.0560  0.0765  0.2075
  340POPC   C1B 4077  11.087  13.272  18.575 -0.0243  0.2193 -0.3120
  340POPC   C2B 4078  11.104  13.246  18.129 -0.0497 -0.0592 -0.0239
  340POPC   C3B 4079  11.022  13.314  17.728 -0.0490 -0.0299  0.0340
  340POPC   C4B 4080  10.811  13.147  17.316  0.0928 -0.1791  0.0762
  341POPC   NC3 4081   4.239   5.757  19.470 -0.2561  0.4564  0.1085
  341POPC   PO4 4082   3.879   5.694  19.304  0.0063 -0.2194 -0.1687
  341POPC   GL1 4083   3.883   5.923  18.949  0.1847 -0.3939  0.2014
  341POPC   GL2 4084   4.111   5.795  18.842 -0.1058  0.4455  0.1422
  341POPC   C1A 4085   3.758   5.806  18.489  0.0680 -0.1029  0.2679
  341POPC   D2A 4086   3.505   5.725  18.130  0.0395  0.0458  0.1875
  341POPC   C3A 4087   3.537   5.992  17.766  0.1094  0.0695 -0.0449
  341POPC   C4A 4088   3.522   6.398  17.503  0.1710 -0.0839  0.0170
  341POPC   C1B 4089   4.402   6.053  18.609  0.0695  0.0613  0.0207
  341POPC   C2B 4090   4.668   6.155  18.263  0.4921  0.0203 -0.0333
  341POPC   C3B 4091   4.985   6.026  17.982 -0.0479 -0.2817 -0.3459
  341POPC   C4B 4092   5.199   6.316  17.736 -0.0973  0.0302  0.0683
  342POPC   NC3 4093   3.879  11.894  19.529 -0.0445 -0.1037  0.1358
  342POPC   PO4 4094   4.271  11.774  19.622  0.2963 -0.0354  0.1973
  342POPC   GL1 4095   4.298  11.684  19.247 -0.0857 -0.1007 -0.0733
  342POPC   GL2 4096   4.116  11.844  19.072  0.1319 -0.0144  0.0876
  342POPC   C1A 4097   4.109  11.338  19.002 -0.0491  0.0125  0.0274
  342POPC   D2A 4098   3.758  11.153  18.689 -0.1764  0.0236 -0.1439
  342POPC   C3A 4099   3.637  11.113  18.253 -0.2098 -0.0302  0.0001
  342POPC   C4A 4100   3.427  11.193  17.792  0.0591 -0.1802 -0.2600
  342POPC   C1B 4101   4.275  11.678  18.679  0.0933 -0.1440 -0.1326
  342POPC   C2B 4102   4.349  11.617  18.254 -0.2448  0.4249  0.0768
  342POPC   C3B 4103   4.448  11.355  17.902  0.2531  0.0734 -0.1707
  342POPC   C4B 4104   4.483  11.207  17.497  0.0871  0.1074 -0.0389
  343POPC   NC3 4105  14.703  30.140  19.071  0.0735  0.3562  0.1405
  343POPC   PO4 4106  14.870  30.491  19.111 -0.1319  0.0496 -0.1486
  343POPC   GL1 4107  15.126  30.406  18.699 -0.1214 -0.1182 -0.1063
  343POPC   GL2 4108  15.117  30.159  18.744 -0.1332 -0.2165 -0.1120
  343POPC   C1A 4109  15.343  30.436  18.308  0.3521 -0.0656 -0.4480
  343POPC   D2A 4110  15.329  30.579  17.874  0.4577 -0.0732  0.0256
  343POPC   C3A 4111  15.273  30.780  17.459  0.3638  0.0294  0.1448
  343POPC   C4A 4112  15.221  31.142  17.151  0.0884  0.0108 -0.1307
  343POPC   C1B 4113  15.177  29.790  18.509 -0.3166 -0.0513  0.0966
  343POPC   C2B 4114  15.420  29.666  18.115 -0.2822  0.0166 -0.0932
  343POPC   C3B 4115  15.730  29.732  17.763 -0.1783  0.1383  0.2101
  343POPC   C4B 4116  15.945  29.689  17.298  0.1961 -0.0529  0.0980
  344POPC   NC3 4117   2.751   4.230  19.108  0.4308  0.0932 -0.1102
  344POPC   PO4 4118   2.521   4.526  19.259  0.1106 -0.3202 -0.0957
  344POPC   GL1 4119   2.438   4.510  18.821 -0.2382  0.0295  0.3210
  344POPC   GL2 4120   2.649   4.660  18.644  0.0318 -0.3186  0.2839
  344POPC   C1A 4121   2.443   4.246  18.460  0.0416  0.1119  0.4315
  344POPC   D2A 4122   2.124   4.173  18.128 -0.3246  0.0485  0.0999
  344POPC   C3A 4123   2.213   4.252  17.706  0.0776  0.2755 -0.1496
  344POPC   C4A 4124   2.081   4.276  17.254 -0.0803  0.0242  0.0495
  344POPC   C1B 4125   2.300   4.849  18.364 -0.2712  0.1236 -0.1475
  344POPC   C2B 4126   2.358   4.872  17.919 -0.2577 -0.1945 -0.3252
  344POPC   C3B 4127   2.062   5.178  17.736  0.1647 -0.2059 -0.0116
  344POPC   C4B 4128   1.727   5.505  17.667  0.0780  0.1575  0.1317
  345POPC   NC3 4129   1.256  24.563  19.113 -0.0623 -0.1016 -0.3926
  345POPC   PO4 4130   1.476  24.910  19.086  0.3137  0.1733 -0.0391
  345POPC   GL1 4131   1.458  24.757  18.742 -0.1752  0.0319  0.0105
  345POPC   GL2 4132   1.152  24.907  18.681 -0.1448  0.1423  0.2177
  345POPC   C1A 4133   1.445  24.698  18.275 -0.0066  0.2661  0.3498
  345POPC   D2A 4134   1.607  24.326  18.043 -0.0036 -0.0965 -0.0177
  345POPC   C3A 4135   1.589  24.011  17.680 -0.1190  0.2054  0.0111
  345POPC   C4A 4136   1.912  23.928  17.356  0.1001 -0.2372 -0.1285
  345POPC   C1B 4137   0.866  24.810  18.342  0.0943  0.1939 -0.2963
  345POPC   C2B 4138   0.782  24.891  17.861  0.2322 -0.1802 -0.1551
  345POPC   C3B 4139   0.643  24.949  17.431  0.1859  0.1309  0.0378
  345POPC   C4B 4140   0.566  24.780  16.967 -0.0864 -0.0109  0.0086
  346POPC   NC3 4141  12.870  28.021  19.105  0.3481  0.2072 -0.2015
  346POPC   PO4 4142  13.207  28.087  19.297  0.2201 -0.1366 -0.3509
  346POPC   GL1 4143  13.309  28.093  18.896  0.0777  0.5871  0.0127
  346POPC   GL2 4144  13.514  28.281  18.922  0.0273  0.0770 -0.2261
  346POPC   C1A 4145  13.411  27.750  18.552 -0.1892 -0.2892 -0.2438
  346POPC   D2A 4146  13.251  27.500  18.228  0.2621  0.1954 -0.0045
  346POPC   C3A 4147  13.524  27.222  17.948  0.0481 -0.0877  0.0072
  346POPC   C4A 4148  13.417  26.870  17.679 -0.1910  0.1301 -0.1091
  346POPC   C1B 4149  13.777  28.028  18.657  0.0588 -0.1664  0.0382
  346POPC   C2B 4150  13.915  27.871  18.247  0.0154  0.1966  0.2576
  346POPC   C3B 4151  13.915  27.462  18.048  0.2686  0.2457  0.0368
  346POPC   C4B 4152  13.937  27.174  17.698 -0.2462  0.0537  0.0854
  347POPC   NC3 4153  13.088   2.788  19.819 -0.1907 -0.2776 -0.0324
  347POPC   PO4 4154  13.369   2.799  19.600 -0.0029 -0.2639 -0.1731
  347POPC   GL1 4155  13.370   2.906  19.226 -0.1306  0.0936 -0.2341
  347POPC   GL2 4156  13.355   3.185  19.220 -0.0742 -0.0052 -0.1691
  347POPC   C1A 4157  13.008   2.809  18.980  0.0032  0.0367 -0.1970
  347POPC   D2A 4158  12.612   2.934  18.779 -0.5061 -0.0666  0.0668
  347POPC   C3A 4159  12.402   2.710  18.465 -0.2380 -0.1634 -0.0468
  347POPC   C4A 4160  12.068   2.766  18.133 -0.0824 -0.0234 -0.0664
  347POPC   C1B 4161  13.469   3.020  18.795  0.2618 -0.1187 -0.1806
  347POPC   C2B 4162  13.511   2.885  18.354  0.1519 -0.0227 -0.2596
  347POPC   C3B 4163  13.878   2.817  18.168  0.2817  0.0912  0.0748
  347POPC   C4B 4164  14.248   3.010  18.014  0.0542  0.1866  0.1209
  348POPC   NC3 4165   6.475  16.979  19.376 -0.1109  0.1050 -0.0053
  348POPC   PO4 4166   6.691  16.812  19.094 -0.0319  0.0686  0.2579
  348POPC   GL1 4167   6.584  16.776  18.660  0.2168  0.5437 -0.2831
  348POPC   GL2 4168   6.357  16.507  18.634 -0.0409  0.0523 -0.1120
  348POPC   C1A 4169   6.720  17.080  18.383 -0.3164  0.0746  0.0071
  348POPC   D2A 4170   6.784  17.338  18.015 -0.0068 -0.1232 -0.0443
  348POPC   C3A 4171   6.969  17.247  17.607  0.1070 -0.2304 -0.1029
  348POPC   C4A 4172   6.946  17.075  17.154 -0.1401 -0.0312  0.1322
  348POPC   C1B 4173   6.499  16.637  18.218 -0.0078 -0.1825 -0.2061
  348POPC   C2B 4174   6.792  16.746  17.905 -0.0144 -0.2248  0.1467
  348POPC   C3B 4175   7.195  16.657  17.662 -0.1190 -0.0413 -0.1216
  348POPC   C4B 4176   7.226  16.597  17.230  0.1660 -0.2281 -0.1964
  349POPC   NC3 4177   6.430  15.561  19.352 -0.0263  0.1318  0.0125
  349POPC   PO4 4178   6.440  15.335  19.683  0.0878  0.0639 -0.1248
  349POPC   GL1 4179   6.264  15.129  19.402 -0.1885 -0.1104 -0.1425
  349POPC   GL2 4180   6.051  15.026  19.514  0.2253  0.4738 -0.1330
  349POPC   C1A 4181   6.215  15.298  18.927  0.0237 -0.0361  0.0982
  349POPC   D2A 4182   6.363  15.432  18.535 -0.0638  0.1969  0.1943
  349POPC   C3A 4183   6.181  15.449  18.068 -0.0393  0.3774 -0.5189
  349POPC   C4A 4184   6.332  15.513  17.604  0.1560 -0.1444  0.1911
  349POPC   C1B 4185   5.855  14.850  19.159 -0.2138  0.2427  0.3636
  349POPC   C2B 4186   5.838  14.945  18.708  0.0677 -0.0409 -0.2117
  349POPC   C3B 4187   6.160  15.006  18.420 -0.2767 -0.0759  0.0156
  349POPC   C4B 4188   6.321  14.942  17.959  0.0112  0.3474 -0.0920
  350POPC   NC3 4189   0.003   0.072  19.399  0.0261 -0.1281 -0.0589
  350POPC   PO4 4190  -0.138   0.463  19.521 -0.2765 -0.0056  0.0083
  350POPC   GL1 4191  -0.213   0.392  19.134 -0.5338 -0.2174  0.0380
  350POPC   GL2 4192  -0.410   0.245  19.050  0.2047  0.1841  0.1212
  350POPC   C1A 4193  -0.058   0.558  18.736  0.2383 -0.1799  0.2262
  350POPC   D2A 4194  -0.360   0.777  18.380 -0.4994 -0.1708  0.1693
  350POPC   C3A 4195  -0.293   0.639  17.957 -0.2206  0.2932  0.1618
  350POPC   C4A 4196  -0.264   0.696  17.491 -0.1766 -0.0176  0.1356
  350POPC   C1B 4197  -0.612   0.418  18.679  0.0328  0.1934 -0.4245
  350POPC   C2B 4198  -0.714   0.478  18.227  0.2161 -0.0755  0.3458
  350POPC   C3B 4199  -0.929   0.881  18.096 -0.2347 -0.0944 -0.1584
  350POPC   C4B 4200  -0.641   0.955  17.649 -0.1428  0.3343 -0.1606
  351POPC   NC3 4201   5.176  28.406  19.363  0.0162  0.2275 -0.1717
  351POPC   PO4 4202   5.409  28.725  19.377  0.2391 -0.2348 -0.3682
  351POPC   GL1 4203   5.523  28.532  19.013 -0.1466 -0.1466 -0.1600
  351POPC   GL2 4204   5.332  28.543  18.807  0.2548 -0.2001 -0.0175
  351POPC   C1A 4205   5.808  28.391  18.695  0.2081 -0.0162 -0.3251
  351POPC   D2A 4206   5.922  28.515  18.274 -0.1085  0.3127  0.2023
  351POPC   C3A 4207   6.125  28.551  17.818  0.1905  0.0121 -0.2544
  351POPC   C4A 4208   6.507  28.409  17.522  0.0971 -0.0079 -0.2138
  351POPC   C1B 4209   5.404  28.422  18.390  0.4500  0.1610  0.3211
  351POPC   C2B 4210   5.303  28.210  18.015  0.1541 -0.3766 -0.1583
  351POPC   C3B 4211   5.129  28.155  17.595 -0.0274  0.5117  0.3203
  351POPC   C4B 4212   4.959  27.746  17.342 -0.1448 -0.2971  0.0554
  352POPC   NC3 4213  14.257  31.095  18.670 -0.2853 -0.0572  0.1765
  352POPC   PO4 4214  13.989  31.006  18.936 -0.0628 -0.4242 -0.0485
  352POPC   GL1 4215  13.787  31.063  18.601 -0.0811 -0.1691  0.1715
  352POPC   GL2 4216  13.833  31.370  18.570 -0.0092  0.0090  0.1307
  352POPC   C1A 4217  13.603  30.745  18.291  0.1139  0.1836  0.0224
  352POPC   D2A 4218  13.814  30.544  17.992  0.3503 -0.0916 -0.1782
  352POPC   C3A 4219  13.449  30.523  17.656 -0.1316 -0.2154  0.3800
  352POPC   C4A 4220  13.081  30.631  17.518 -0.2175 -0.1630 -0.4677
  352POPC   C1B 4221  13.988  31.463  18.152  0.0563 -0.4383  0.0111
  352POPC   C2B 4222  14.125  31.541  17.741 -0.0980  0.1241  0.0638
  352POPC   C3B 4223  14.146  31.548  17.267  0.1575  0.0025  0.3549
  352POPC   C4B 4224  14.066  31.591  16.791  0.4061 -0.3880  0.1071
  353POPC   NC3 4225   4.692  17.490  19.379  0.2924 -0.0394  0.1405
  353POPC   PO4 4226   4.712  17.838  19.173  0.2365 -0.0889  0.3133
  353POPC   GL1 4227   4.733  17.969  18.814  0.2457  0.2919 -0.3904
  353POPC   GL2 4228   4.819  17.771  18.674  0.1167 -0.2046  0.1977
  353POPC   C1A 4229   4.340  17.931  18.577  0.0121  0.2655  0.0451
  353POPC   D2A 4230   4.160  17.820  18.162  0.2581  0.2668  0.0529
  353POPC   C3A 4231   4.392  17.506  17.947  0.3487 -0.0441  0.0550
  353POPC   C4A 4232   4.622  17.139  17.801 -0.0710 -0.1855  0.1493
  353POPC   C1B 4233   4.715  17.793  18.221  0.2599 -0.1094  0.0815
  353POPC   C2B 4234   4.882  17.663  17.821  0.0612  0.0781 -0.0229
  353POPC   C3B 4235   5.107  17.683  17.402  0.1127 -0.0273 -0.1673
  353POPC   C4B 4236   5.429  18.022  17.286 -0.0743 -0.2994  0.1429
  354POPC   NC3 4237   0.669   4.050  19.372 -0.0088  0.0460  0.2006
  354POPC   PO4 4238   0.548   3.755  19.138  0.1652  0.1989 -0.1218
  354POPC   GL1 4239   0.616   4.025  18.820  0.3129 -0.2356  0.2732
  354POPC   GL2 4240   0.706   4.325  18.917  0.0016  0.0179  0.0363
  354POPC   C1A 4241   0.411   4.103  18.385 -0.1978  0.2504 -0.3220
  354POPC   D2A 4242   0.417   3.893  17.994 -0.2026 -0.1032 -0.1126
  354POPC   C3A 4243   0.132   3.484  18.138  0.2146  0.0911  0.0649
  354POPC   C4A 4244  -0.221   3.196  18.221  0.1597 -0.0423  0.0298
  354POPC   C1B 4245   0.876   4.293  18.452 -0.0260 -0.0943  0.0669
  354POPC   C2B 4246   0.811   4.330  17.999  0.0183 -0.2004 -0.0237
  354POPC   C3B 4247   0.770   3.990  17.598  0.0953  0.1099 -0.1354
  354POPC   C4B 4248   1.216   3.907  17.389 -0.2290  0.0178 -0.3655
  355POPC   NC3 4249  10.517  29.990  19.632 -0.0626  0.0777  0.4224
  355POPC   PO4 4250  10.465  30.348  19.506 -0.0955 -0.1036  0.0696
  355POPC   GL1 4251  10.702  30.148  19.071 -0.0844  0.1934  0.2848
  355POPC   GL2 4252  10.440  30.002  19.036 -0.0186  0.4173 -0.1937
  355POPC   C1A 4253  10.889  29.763  18.851  0.0443 -0.2931  0.0284
  355POPC   D2A 4254  10.873  29.388  18.600  0.0708 -0.1248 -0.2323
  355POPC   C3A 4255  10.477  29.413  18.373  0.2306  0.1033  0.0373
  355POPC   C4A 4256  10.472  29.185  17.986 -0.1189  0.0650  0.1937
  355POPC   C1B 4257  10.406  29.898  18.569  0.0495 -0.0445 -0.4043
  355POPC   C2B 4258  10.495  29.848  18.115  0.2339  0.2273 -0.0021
  355POPC   C3B 4259  10.586  29.690  17.677 -0.0141  0.3561 -0.1280
  355POPC   C4B 4260  10.880  29.900  17.384 -0.0843  0.2685 -0.0665
  356POPC   NC3 4261  13.759  24.453  19.042  0.1418  0.2903 -0.1980
  356POPC   PO4 4262  13.523  24.546  19.275  0.5023 -0.0432 -0.2491
  356POPC   GL1 4263  13.403  24.849  19.125 -0.1995 -0.1171 -0.2412
  356POPC   GL2 4264  13.575  25.096  19.142  0.0023 -0.3736  0.1333
  356POPC   C1A 4265  13.059  25.113  18.956  0.0866 -0.0136 -0.0445
  356POPC   D2A 4266  12.932  25.484  18.722 -0.1033 -0.0693  0.1647
  356POPC   C3A 4267  12.891  25.542  18.291  0.0211 -0.0699  0.1729
  356POPC   C4A 4268  12.734  25.589  17.897 -0.0294 -0.1447  0.0251
  356POPC   C1B 4269  13.565  24.966  18.695  0.3263 -0.2003 -0.5153
  356POPC   C2B 4270  13.565  24.936  18.256  0.0294  0.1728 -0.0973
  356POPC   C3B 4271  13.583  24.790  17.779 -0.3375 -0.1287 -0.2887
  356POPC   C4B 4272  13.502  24.609  17.408  0.0310 -0.3712 -0.3189
  357POPC   NC3 4273  13.685  24.984  19.591 -0.4161  0.1804 -0.1593
  357POPC   PO4 4274  13.979  25.279  19.622 -0.3765  0.1161  0.0213
  357POPC   GL1 4275  13.878  25.415  19.345  0.0949  0.2552 -0.1025
  357POPC   GL2 4276  13.683  25.649  19.226  0.1049 -0.0149 -0.2872
  357POPC   C1A 4277  13.989  25.303  18.866 -0.1122 -0.3771 -0.1135
  357POPC   D2A 4278  14.348  25.532  18.550 -0.1124 -0.4183  0.0983
  357POPC   C3A 4279  14.676  25.651  18.202 -0.1534  0.1249  0.2086
  357POPC   C4A 4280  14.593  25.455  17.797 -0.0936 -0.0938  0.0909
  357POPC   C1B 4281  13.605  25.543  18.760 -0.3479  0.2042 -0.2936
  357POPC   C2B 4282  13.402  25.663  18.367  0.0435  0.1564  0.0672
  357POPC   C3B 4283  13.240  25.786  17.923 -0.1327 -0.1503 -0.0905
  357POPC   C4B 4284  13.337  25.909  17.508 -0.1503 -0.1180 -0.0828
  358POPC   NC3 4285  13.563  15.340  19.177  0.0779  0.1396  0.1909
  358POPC   PO4 4286  13.794  15.478  19.478  0.2041  0.2391 -0.1921
  358POPC   GL1 4287  14.057  15.662  19.191 -0.1621  0.4404 -0.1653
  358POPC   GL2 4288  14.332  15.484  19.145 -0.2558 -0.0893  0.3140
  358POPC   C1A 4289  14.171  15.862  18.861 -0.1917 -0.1044  0.2843
  358POPC   D2A 4290  14.187  16.268  18.619 -0.1165 -0.0184 -0.2933
  358POPC   C3A 4291  14.081  16.707  18.576 -0.2006 -0.0636 -0.1797
  358POPC   C4A 4292  13.921  17.092  18.816 -0.0576 -0.1521  0.0118
  358POPC   C1B 4293  14.701  15.534  18.821  0.1519  0.2218 -0.2363
  358POPC   C2B 4294  14.794  15.659  18.429  0.6377 -0.3763  0.0207
  358POPC   C3B 4295  14.738  15.866  17.996 -0.2642  0.1275 -0.1091
  358POPC   C4B 4296  14.464  16.130  17.663 -0.1665 -0.2232 -0.1755
  359POPC   NC3 4297   8.381   3.957  19.668  0.1217 -0.2147  0.0117
  359POPC   PO4 4298   8.157   3.732  19.483  0.1529  0.0749  0.1175
  359POPC   GL1 4299   7.956   3.671  19.149 -0.2047  0.0525  0.3377
  359POPC   GL2 4300   8.028   3.834  18.900 -0.2862  0.1184 -0.2457
  359POPC   C1A 4301   8.006   3.320  18.855  0.1043  0.1608 -0.1735
  359POPC   D2A 4302   8.313   3.085  18.569 -0.2556 -0.0663  0.0976
  359POPC   C3A 4303   8.213   2.819  18.228  0.0894  0.1368 -0.3416
  359POPC   C4A 4304   8.288   2.929  17.777  0.0869  0.0916 -0.0184
  359POPC   C1B 4305   7.941   3.627  18.484  0.0417 -0.0074  0.0014
  359POPC   C2B 4306   8.108   3.322  18.192  0.1805 -0.1574  0.3475
  359POPC   C3B 4307   7.825   3.074  17.904  0.0429 -0.0140  0.2579
  359POPC   C4B 4308   7.746   2.787  17.532 -0.2183 -0.1505 -0.0364
  360POPC   NC3 4309   8.877  24.169  19.042  0.1109  0.1509  0.0062
  360POPC   PO4 4310   9.076  24.417  19.263  0.0244 -0.0607  0.0477
  360POPC   GL1 4311   9.341  24.286  19.007 -0.1472  0.0980  0.0475
  360POPC   GL2 4312   9.510  24.306  18.796  0.1544  0.1087 -0.1557
  360POPC   C1A 4313   9.264  23.832  18.831 -0.1378  0.1182 -0.1042
  360POPC   D2A 4314   9.540  23.461  19.036  0.0215 -0.0664  0.0128
  360POPC   C3A 4315   9.524  22.983  18.945  0.0096 -0.1073 -0.3775
  360POPC   C4A 4316   9.402  22.607  18.626  0.0397 -0.2481 -0.2920
  360POPC   C1B 4317   9.431  24.167  18.369  0.2735 -0.1017 -0.0333
  360POPC   C2B 4318   9.210  23.871  18.193 -0.1723 -0.0674 -0.1673
  360POPC   C3B 4319   8.977  23.896  17.821 -0.0394  0.0105  0.2224
  360POPC   C4B 4320   8.924  23.994  17.365  0.2202 -0.2597  0.1996
  361POPC   NC3 4321   5.180   4.554  19.229 -0.0282 -0.1501 -0.1686
  361POPC   PO4 4322   4.871   4.652  18.971  0.3802 -0.1100 -0.1534
  361POPC   GL1 4323   5.081   4.417  18.741 -0.1232 -0.0683 -0.0749
  361POPC   GL2 4324   4.905   4.540  18.480  0.0724  0.2735  0.0408
  361POPC   C1A 4325   5.251   4.162  18.395 -0.3407 -0.1871  0.3753
  361POPC   D2A 4326   5.348   3.963  17.977  0.1111 -0.3078 -0.2878
  361POPC   C3A 4327   5.621   4.267  17.759  0.0869 -0.0491 -0.0062
  361POPC   C4A 4328   5.630   4.573  17.391  0.0582 -0.0911  0.1916
  361POPC   C1B 4329   5.006   4.640  18.015  0.1397  0.1522 -0.2569
  361POPC   C2B 4330   5.267   4.636  17.741 -0.3735  0.0451  0.2323
  361POPC   C3B 4331   5.239   4.230  17.443  0.1028  0.3248 -0.0370
  361POPC   C4B 4332   4.849   4.085  17.194  0.2361 -0.4110 -0.2013
  362POPC   NC3 4333   3.360   3.431  19.228  0.1393  0.1580  0.2903
  362POPC   PO4 4334   3.541   3.746  19.103  0.0999  0.1263  0.4141
  362POPC   GL1 4335   3.492   3.951  18.751  0.1762  0.2220  0.0754
  362POPC   GL2 4336   3.746   3.986  18.566  0.2209 -0.2691  0.0548
  362POPC   C1A 4337   3.324   4.008  18.303  0.0897  0.1869  0.1327
  362POPC   D2A 4338   3.212   3.907  17.898  0.3691 -0.3656 -0.0369
  362POPC   C3A 4339   3.485   3.643  17.618 -0.3115 -0.1326  0.2447
  362POPC   C4A 4340   3.770   3.403  17.356  0.3079 -0.0857 -0.0461
  362POPC   C1B 4341   3.803   3.802  18.176  0.2609  0.1220  0.0852
  362POPC   C2B 4342   4.021   3.469  17.929  0.0242  0.0721 -0.2209
  362POPC   C3B 4343   4.410   3.164  17.961  0.1895  0.2597 -0.0733
  362POPC   C4B 4344   4.465   2.746  17.783  0.1176  0.0626  0.2658
  363POPC   NC3 4345   9.087   5.592  19.163  0.1124  0.0428 -0.2209
  363POPC   PO4 4346   9.417   5.723  19.045  0.0374  0.0526 -0.2031
  363POPC   GL1 4347   9.358   6.056  18.886  0.1906  0.1547  0.0647
  363POPC   GL2 4348   9.400   6.313  19.066  0.0768  0.1225 -0.1306
  363POPC   C1A 4349   9.282   6.206  18.472 -0.1833  0.2061  0.1421
  363POPC   D2A 4350   9.303   6.238  18.038 -0.0364 -0.0446  0.0726
  363POPC   C3A 4351   9.390   6.253  17.561 -0.0607  0.0515  0.0109
  363POPC   C4A 4352   9.459   6.585  17.232  0.0435 -0.0348  0.6617
  363POPC   C1B 4353   9.364   6.620  18.754  0.0194  0.0781  0.2065
  363POPC   C2B 4354   9.302   6.717  18.311  0.0470  0.0967  0.1916
  363POPC   C3B 4355   9.190   7.054  18.003  0.0393 -0.2917  0.2501
  363POPC   C4B 4356   9.287   7.437  17.744 -0.2817 -0.1332  0.2101
  364POPC   NC3 4357  14.502  18.249  19.779 -0.0656 -0.0473 -0.0104
  364POPC   PO4 4358  14.856  18.022  19.728 -0.0593 -0.0433 -0.0457
  364POPC   GL1 4359  15.014  17.899  19.327 -0.4378 -0.2626  0.2842
  364POPC   GL2 4360  14.909  17.623  19.331 -0.1954  0.1338 -0.1052
  364POPC   C1A 4361  15.358  18.080  18.991 -0.0310  0.2841 -0.1959
  364POPC   D2A 4362  15.614  17.848  18.720  0.1123 -0.0897 -0.0503
  364POPC   C3A 4363  15.404  17.815  18.341 -0.0588 -0.0102  0.0620
  364POPC   C4A 4364  15.327  17.867  17.854 -0.1716 -0.0571  0.0060
  364POPC   C1B 4365  15.300  17.568  19.037  0.0609 -0.0674  0.1990
  364POPC   C2B 4366  15.431  17.398  18.609 -0.1727  0.0039 -0.2283
  364POPC   C3B 4367  15.641  17.435  18.179  0.0030  0.2068 -0.1071
  364POPC   C4B 4368  15.909  17.475  17.778 -0.0583 -0.1571  0.1255
  365POPC   NC3 4369   6.592  19.815  19.610 -0.2063 -0.1474  0.0464
  365POPC   PO4 4370   6.371  19.688  19.326  0.0100 -0.1961  0.0617
  365POPC   GL1 4371   6.575  19.499  18.973 -0.1905  0.3326 -0.0423
  365POPC   GL2 4372   6.628  19.688  18.828 -0.1491  0.1611 -0.0226
  365POPC   C1A 4373   6.507  19.156  18.597  0.0661 -0.2315 -0.3495
  365POPC   D2A 4374   6.322  18.884  18.310 -0.2291 -0.0608 -0.2622
  365POPC   C3A 4375   6.411  18.571  17.957 -0.2539 -0.1677  0.2376
  365POPC   C4A 4376   6.452  18.344  17.555 -0.2266  0.0769  0.1136
  365POPC   C1B 4377   6.530  19.637  18.402 -0.0633  0.1461 -0.0680
  365POPC   C2B 4378   6.627  19.770  17.976  0.0656 -0.0369 -0.1402
  365POPC   C3B 4379   6.465  19.981  17.603 -0.2966  0.0316  0.1515
  365POPC   C4B 4380   6.558  19.962  17.131 -0.0067 -0.1870 -0.0179
  366POPC   NC3 4381   2.455   1.760  19.142 -0.0694 -0.3197 -0.0066
  366POPC   PO4 4382   2.748   1.969  19.268 -0.0013 -0.0227 -0.0351
  366POPC   GL1 4383   2.794   2.075  18.861  0.1529 -0.1644 -0.0434
  366POPC   GL2 4384   2.608   2.252  18.694 -0.1293 -0.1358 -0.3059
  366POPC   C1A 4385   3.018   2.132  18.457  0.1345 -0.2263 -0.0593
  366POPC   D2A 4386   3.139   2.413  18.090 -0.0798 -0.2187  0.0262
  366POPC   C3A 4387   3.592   2.380  18.142 -0.6441 -0.0206 -0.0547
  366POPC   C4A 4388   4.017   2.531  18.003  0.2192  0.1984  0.3068
  366POPC   C1B 4389   2.446   2.145  18.275 -0.2601 -0.4471 -0.0522
  366POPC   C2B 4390   2.373   2.089  17.839  0.3431  0.4559 -0.2669
  366POPC   C3B 4391   2.587   2.176  17.493  0.0579 -0.2415 -0.0523
  366POPC   C4B 4392   2.910   2.124  17.189 -0.1913 -0.1658  0.0943
  367POPC   NC3 4393   8.050   6.586  19.763  0.1184 -0.0889 -0.1771
  367POPC   PO4 4394   8.201   6.558  19.417  0.1991 -0.0280  0.5451
  367POPC   GL1 4395   8.188   6.790  19.129 -0.0235  0.0388 -0.4345
  367POPC   GL2 4396   8.375   6.603  18.913  0.2035  0.3231  0.0813
  367POPC   C1A 4397   7.964   6.824  18.693  0.1184 -0.1727  0.2862
  367POPC   D2A 4398   7.763   6.805  18.255  0.3363  0.0707  0.3297
  367POPC   C3A 4399   7.859   6.664  17.836 -0.0792  0.0790  0.1380
  367POPC   C4A 4400   8.086   6.652  17.376 -0.1836 -0.2635 -0.1864
  367POPC   C1B 4401   8.290   6.416  18.438 -0.0116  0.0162 -0.0923
  367POPC   C2B 4402   8.316   6.519  18.042 -0.1884  0.0208  0.1086
  367POPC   C3B 4403   8.479   6.627  17.671 -0.1744  0.0239 -0.0703
  367POPC   C4B 4404   8.521   6.807  17.272  0.1772 -0.2166  0.3238
  368POPC   NC3 4405  12.150  29.449  19.385 -0.3721 -0.0851 -0.2662
  368POPC   PO4 4406  11.814  29.357  19.542  0.1099  0.1601 -0.1411
  368POPC   GL1 4407  11.540  29.436  19.251  0.2394 -0.0235  0.0796
  368POPC   GL2 4408  11.732  29.344  19.039 -0.2427  0.4103  0.0555
  368POPC   C1A 4409  11.331  29.583  18.818 -0.3397  0.0328 -0.3004
  368POPC   D2A 4410  11.273  29.561  18.387 -0.2327 -0.1320  0.0230
  368POPC   C3A 4411  10.983  29.934  18.390 -0.3085 -0.1858 -0.5110
  368POPC   C4A 4412  10.785  30.356  18.613  0.1493 -0.1448  0.3149
  368POPC   C1B 4413  11.779  29.256  18.593 -0.0839  0.1435  0.1078
  368POPC   C2B 4414  11.562  29.039  18.193  0.2050 -0.1208  0.1977
  368POPC   C3B 4415  11.706  29.160  17.780  0.0069 -0.1628 -0.1033
  368POPC   C4B 4416  11.689  29.498  17.547  0.0671 -0.1849 -0.0083
  369POPC   NC3 4417   5.207   8.186  19.220  0.0492 -0.1738  0.2044
  369POPC   PO4 4418   5.598   8.172  19.187  0.2739 -0.0201  0.0252
  369POPC   GL1 4419   5.347   8.271  18.789  0.0688  0.2354  0.0159
  369POPC   GL2 4420   5.661   8.440  18.750 -0.2303 -0.2660  0.0613
  369POPC   C1A 4421   5.291   8.124  18.323  0.0524  0.1640  0.3381
  369POPC   D2A 4422   5.276   7.747  18.032 -0.4358  0.1296 -0.2037
  369POPC   C3A 4423   5.556   7.566  17.745 -0.0527 -0.5114 -0.0603
  369POPC   C4A 4424   5.760   7.138  17.747  0.1475  0.2747 -0.0008
  369POPC   C1B 4425   5.711   8.353  18.319 -0.1705 -0.2535 -0.1100
  369POPC   C2B 4426   5.768   8.197  17.910 -0.1928 -0.1281 -0.1562
  369POPC   C3B 4427   6.044   8.381  17.597 -0.0778  0.0277  0.0475
  369POPC   C4B 4428   6.180   8.574  17.177 -0.0848  0.0486  0.0450
  370POPC   NC3 4429   7.429  16.626  19.588 -0.2298 -0.2834  0.3393
  370POPC   PO4 4430   7.758  16.848  19.704  0.1135 -0.0197 -0.0223
  370POPC   GL1 4431   7.831  16.807  19.297  0.1811  0.0519 -0.0255
  370POPC   GL2 4432   7.932  17.117  19.211  0.2330  0.4407  0.1027
  370POPC   C1A 4433   7.902  16.540  18.912  0.2601 -0.1814 -0.1735
  370POPC   D2A 4434   8.119  16.423  18.502 -0.0999 -0.0522 -0.1341
  370POPC   C3A 4435   8.134  16.733  18.141  0.1177 -0.1558 -0.2604
  370POPC   C4A 4436   8.127  16.838  17.691  0.3293 -0.1582  0.2049
  370POPC   C1B 4437   7.738  16.998  18.814 -0.0969  0.0052 -0.0067
  370POPC   C2B 4438   7.717  16.760  18.398  0.1167 -0.1153 -0.0532
  370POPC   C3B 4439   7.655  16.694  17.899 -0.3450  0.1088  0.2382
  370POPC   C4B 4440   7.738  16.517  17.504  0.1507  0.0948  0.0030
  371POPC   NC3 4441   6.206  30.697  18.919  0.0210  0.1393  0.0323
  371POPC   PO4 4442   6.190  30.342  19.103 -0.1024 -0.3384 -0.2548
  371POPC   GL1 4443   6.042  30.083  18.877 -0.1593  0.0740 -0.0929
  371POPC   GL2 4444   6.041  30.234  18.606 -0.2714 -0.0088  0.1462
  371POPC   C1A 4445   6.273  29.770  18.638  0.1024 -0.2378  0.1607
  371POPC   D2A 4446   6.281  29.505  18.278  0.2854  0.3152 -0.0554
  371POPC   C3A 4447   6.107  29.623  17.826 -0.1574 -0.2743 -0.3096
  371POPC   C4A 4448   5.877  29.819  17.448  0.0722 -0.0459  0.2640
  371POPC   C1B 4449   6.359  30.424  18.349  0.1123 -0.0318  0.0610
  371POPC   C2B 4450   6.593  30.363  17.900 -0.0424 -0.0296 -0.0033
  371POPC   C3B 4451   6.565  30.366  17.427  0.4456 -0.1611  0.0461
  371POPC   C4B 4452   6.439  30.573  17.066 -0.1161  0.0584  0.6406
  372POPC   NC3 4453  10.795  16.667  19.337 -0.0371 -0.0667 -0.0850
  372POPC   PO4 4454  10.675  16.487  19.041  0.0186  0.1186  0.3930
  372POPC   GL1 4455  10.517  16.527  18.676  0.4223 -0.1674  0.1352
  372POPC   GL2 4456  10.360  16.293  18.679  0.0705 -0.0055  0.2347
  372POPC   C1A 4457  10.559  16.610  18.216 -0.2210  0.3083  0.3202
  372POPC   D2A 4458  10.637  16.407  17.761 -0.0270 -0.1577 -0.1326
  372POPC   C3A 4459  10.433  16.340  17.382 -0.2878 -0.4218 -0.0331
  372POPC   C4A 4460  10.682  16.448  16.985 -0.1384 -0.0611 -0.2885
  372POPC   C1B 4461   9.985  16.514  18.506 -0.0047 -0.2566 -0.2056
  372POPC   C2B 4462   9.921  16.737  18.159 -0.1445 -0.2032 -0.0503
  372POPC   C3B 4463   9.611  17.095  17.879  0.2516 -0.0345  0.0044
  372POPC   C4B 4464   9.277  17.059  17.562 -0.5315  0.2971  0.2118
  373POPC   NC3 4465   7.014  20.416  19.239  0.2810 -0.3348  0.0316
  373POPC   PO4 4466   7.368  20.435  19.469  0.2128  0.1449 -0.1108
  373POPC   GL1 4467   7.595  20.323  19.282 -0.2293 -0.0777  0.0763
  373POPC   GL2 4468   7.836  20.449  19.212  0.0157  0.0785 -0.0732
  373POPC   C1A 4469   7.675  20.148  18.869  0.3107  0.2862  0.1476
  373POPC   D2A 4470   7.589  19.784  18.629  0.2726 -0.0369  0.2981
  373POPC   C3A 4471   7.612  19.864  18.215 -0.0334  0.0145 -0.0568
  373POPC   C4A 4472   7.540  19.954  17.749 -0.0785 -0.1627 -0.1628
  373POPC   C1B 4473   8.119  20.526  18.835 -0.1504  0.1259 -0.1858
  373POPC   C2B 4474   8.182  20.581  18.388  0.1679 -0.1856  0.2566
  373POPC   C3B 4475   8.427  20.390  18.046  0.1704  0.0056  0.1226
  373POPC   C4B 4476   8.311  20.088  17.730  0.1093  0.0877 -0.1565
  374POPC   NC3 4477   8.274   9.510  19.018 -0.1930  0.1113  0.1363
  374POPC   PO4 4478   8.481   9.487  19.348  0.0797  0.0710  0.0351
  374POPC   GL1 4479   8.733   9.325  19.143  0.2071 -0.0230  0.2946
  374POPC   GL2 4480   8.621   9.176  18.872 -0.0001 -0.2730  0.0177
  374POPC   C1A 4481   8.845   9.566  18.759  0.0425  0.0019  0.0083
  374POPC   D2A 4482   9.225   9.750  18.465  0.2032  0.2052 -0.1456
  374POPC   C3A 4483   9.529   9.648  18.181 -0.0668  0.0430 -0.2632
  374POPC   C4A 4484   9.848   9.268  18.119  0.0837 -0.0156  0.0556
  374POPC   C1B 4485   8.878   8.800  18.894  0.1068 -0.1247  0.1431
  374POPC   C2B 4486   9.044   8.384  18.705 -0.0815  0.1964 -0.2965
  374POPC   C3B 4487   9.439   8.304  18.473 -0.1965  0.0056  0.3245
  374POPC   C4B 4488   9.829   8.288  18.331 -0.0174  0.1084 -0.3029
  375POPC   NC3 4489  11.755  16.902  18.935 -0.0469  0.1152  0.1159
  375POPC   PO4 4490  11.691  16.596  19.150 -0.0404  0.3022  0.3067
  375POPC   GL1 4491  11.581  16.548  18.765  0.3635  0.2693 -0.0449
  375POPC   GL2 4492  11.829  16.454  18.650  0.0727  0.4678  0.1353
  375POPC   C1A 4493  11.531  16.641  18.311  0.3027 -0.3259 -0.2761
  375POPC   D2A 4494  11.523  16.603  17.871 -0.0127 -0.1454 -0.2046
  375POPC   C3A 4495  11.266  16.884  17.548 -0.1687  0.1002 -0.2345
  375POPC   C4A 4496  11.427  16.960  17.111  0.0895  0.1714 -0.0185
  375POPC   C1B 4497  11.907  16.296  18.186 -0.1652  0.1635  0.1926
  375POPC   C2B 4498  11.949  16.108  17.767 -0.1295 -0.1718  0.0332
  375POPC   C3B 4499  11.828  16.012  17.339 -0.0587  0.0333  0.0768
  375POPC   C4B 4500  11.704  16.145  16.930 -0.1630  0.1794  0.1451
  376POPC   NC3 4501   0.823  28.419  19.123  0.2223  0.0746 -0.0303
  376POPC   PO4 4502   0.655  28.092  19.337  0.1372 -0.2065 -0.2135
  376POPC   GL1 4503   0.693  27.991  18.909  0.4102  0.4130  0.1027
  376POPC   GL2 4504   0.432  27.937  18.800 -0.2280  0.2601 -0.2541
  376POPC   C1A 4505   0.859  28.149  18.488 -0.2771 -0.0596 -0.0757
  376POPC   D2A 4506   0.741  28.098  18.010 -0.2816  0.1584 -0.1554
  376POPC   C3A 4507   0.898  28.451  17.708 -0.2796 -0.1372 -0.1483
  376POPC   C4A 4508   1.196  28.573  17.359  0.0898 -0.1525  0.0304
  376POPC   C1B 4509   0.328  28.057  18.383  0.0358 -0.1526  0.0462
  376POPC   C2B 4510   0.157  27.849  17.973 -0.0838 -0.2248 -0.0393
  376POPC   C3B 4511   0.303  27.701  17.576  0.2687 -0.0644  0.1763
  376POPC   C4B 4512   0.331  27.712  17.100 -0.2745 -0.0742  0.1200
  377POPC   NC3 4513   1.758  26.352  19.010 -0.0783  0.0820  0.1889
  377POPC   PO4 4514   1.501  26.045  18.983 -0.3742 -0.0853 -0.1582
  377POPC   GL1 4515   1.468  26.004  18.591  0.1218 -0.1699 -0.3675
  377POPC   GL2 4516   1.307  25.839  18.484 -0.0043 -0.0899  0.1004
  377POPC   C1A 4517   1.754  25.906  18.269 -0.2181 -0.0260 -0.0075
  377POPC   D2A 4518   1.921  25.666  17.858  0.0689 -0.1987  0.1246
  377POPC   C3A 4519   2.159  25.700  17.443  0.2679  0.3156 -0.0064
  377POPC   C4A 4520   2.428  25.959  17.166 -0.0974 -0.2450  0.0045
  377POPC   C1B 4521   1.369  25.628  18.083  0.2129 -0.4742 -0.0328
  377POPC   C2B 4522   1.429  25.466  17.697 -0.0935  0.1206  0.0714
  377POPC   C3B 4523   1.623  25.584  17.280  0.1977  0.1527  0.0998
  377POPC   C4B 4524   1.816  25.959  17.070 -0.0865 -0.1015 -0.0815
  378POPC   NC3 4525  11.862  16.322  19.591  0.1788 -0.2458 -0.0379
  378POPC   PO4 4526  12.154  16.314  19.324  0.1245 -0.0678  0.3240
  378POPC   GL1 4527  12.094  16.377  18.957  0.4694  0.0207 -0.1444
  378POPC   GL2 4528  12.215  16.678  18.970 -0.1883  0.3551 -0.1369
  378POPC   C1A 4529  12.339  16.339  18.549  0.0806 -0.1896 -0.2616
  378POPC   D2A 4530  12.406  16.603  18.219  0.0971 -0.2533 -0.0602
  378POPC   C3A 4531  12.852  16.799  18.077  0.1438  0.3071 -0.2856
  378POPC   C4A 4532  12.965  17.084  17.729  0.1260  0.0552  0.3599
  378POPC   C1B 4533  12.100  16.892  18.591  0.2669  0.0742 -0.0608
  378POPC   C2B 4534  11.974  16.810  18.150 -0.3021 -0.0138 -0.4068
  378POPC   C3B 4535  12.031  16.655  17.694 -0.0319 -0.2542  0.0612
  378POPC   C4B 4536  11.697  16.477  17.374 -0.1004 -0.0739  0.4127
  379POPC   NC3 4537   2.340  19.130  18.851 -0.0167  0.0592  0.0447
  379POPC   PO4 4538   2.674  19.179  19.021 -0.2988  0.0034  0.1440
  379POPC   GL1 4539   2.756  19.092  18.610 -0.2381  0.0015  0.1732
  379POPC   GL2 4540   2.876  19.372  18.529 -0.0431  0.1523  0.1489
  379POPC   C1A 4541   2.396  19.223  18.311 -0.1868  0.3045 -0.1419
  379POPC   D2A 4542   2.378  19.225  17.886  0.0594  0.0386 -0.1236
  379POPC   C3A 4543   2.002  19.001  17.720  0.4144  0.1695 -0.0697
  379POPC   C4A 4544   1.644  18.955  17.403  0.0321  0.2037  0.3357
  379POPC   C1B 4545   2.871  19.146  18.114  0.1461  0.1671  0.2446
  379POPC   C2B 4546   2.865  18.691  17.935 -0.0421 -0.0315 -0.0514
  379POPC   C3B 4547   2.848  18.288  17.692  0.0759  0.1134 -0.0433
  379POPC   C4B 4548   2.758  17.901  17.399 -0.0554  0.0634 -0.1562
  380POPC   NC3 4549   5.325  29.102  19.085 -0.2051  0.1393  0.3452
  380POPC   PO4 4550   5.472  29.449  19.249 -0.2634  0.0020  0.2193
  380POPC   GL1 4551   5.631  29.432  18.856  0.0610  0.0866 -0.1444
  380POPC   GL2 4552   5.872  29.590  18.972  0.3814 -0.0062 -0.0589
  380POPC   C1A 4553   5.257  29.300  18.559 -0.1693 -0.0132 -0.0063
  380POPC   D2A 4554   5.183  29.273  18.063 -0.1323  0.0076 -0.0112
  380POPC   C3A 4555   5.411  29.081  17.717 -0.0424  0.2093  0.2796
  380POPC   C4A 4556   5.544  28.912  17.265 -0.0528 -0.2288 -0.1630
  380POPC   C1B 4557   5.762  29.795  18.558 -0.0390 -0.0521  0.0464
  380POPC   C2B 4558   6.003  29.919  18.188 -0.4226 -0.0050 -0.1365
  380POPC   C3B 4559   6.198  30.099  17.777 -0.1970 -0.1222  0.1591
  380POPC   C4B 4560   6.094  30.331  17.387 -0.2865  0.0657  0.0533
  381POPC   NC3 4561  10.614  17.957  19.131 -0.0121 -0.2938  0.1162
  381POPC   PO4 4562  10.669  18.323  19.259  0.2126 -0.1144  0.3324
  381POPC   GL1 4563  10.626  18.672  19.047  0.1415  0.0501  0.0466
  381POPC   GL2 4564  10.454  18.871  19.211  0.2151  0.0171  0.1330
  381POPC   C1A 4565  10.670  18.680  18.581  0.0717 -0.0532 -0.1311
  381POPC   D2A 4566  10.551  18.536  18.174  0.3333 -0.1510  0.5557
  381POPC   C3A 4567  10.275  18.455  17.816 -0.1673 -0.1957  0.1004
  381POPC   C4A 4568   9.972  18.381  17.529  0.3863  0.1231 -0.0537
  381POPC   C1B 4569  10.304  19.098  18.902 -0.2191  0.0308  0.0121
  381POPC   C2B 4570  10.133  19.247  18.530  0.1720 -0.0031 -0.2330
  381POPC   C3B 4571  10.137  19.443  18.126 -0.3064  0.0183 -0.3040
  381POPC   C4B 4572  10.126  19.434  17.670  0.3948 -0.2452  0.0670
  382POPC   NC3 4573  13.986  13.604  18.937  0.1618  0.1266 -0.1648
  382POPC   PO4 4574  13.689  13.364  19.057 -0.1753  0.1845  0.0139
  382POPC   GL1 4575  13.732  13.206  18.747 -0.2718 -0.2977 -0.2606
  382POPC   GL2 4576  13.656  13.369  18.562 -0.0679 -0.2029 -0.0200
  382POPC   C1A 4577  13.926  12.962  18.413 -0.1339  0.0661  0.1092
  382POPC   D2A 4578  14.156  12.773  18.064 -0.1586 -0.2598  0.2041
  382POPC   C3A 4579  14.311  13.067  17.715  0.1097  0.2443 -0.0623
  382POPC   C4A 4580  14.673  13.212  17.493 -0.3365 -0.1389 -0.3440
  382POPC   C1B 4581  13.210  13.444  18.519 -0.2012  0.2925  0.1903
  382POPC   C2B 4582  13.058  13.293  18.153 -0.4071 -0.0800  0.0222
  382POPC   C3B 4583  13.082  12.986  17.817 -0.1557 -0.1077 -0.1273
  382POPC   C4B 4584  13.086  12.878  17.350 -0.4060 -0.1339 -0.1867
  383POPC   NC3 4585   4.520  18.908  18.932  0.0150  0.1741 -0.1120
  383POPC   PO4 4586   4.657  19.207  18.730  0.0146 -0.4576 -0.0267
  383POPC   GL1 4587   4.650  19.340  18.368  0.4259  0.0799 -0.1436
  383POPC   GL2 4588   4.872  19.186  18.252 -0.3081  0.2686  0.2289
  383POPC   C1A 4589   4.773  19.566  17.934  0.0676 -0.1644  0.1053
  383POPC   D2A 4590   4.918  19.553  17.504 -0.0231  0.0890  0.2402
  383POPC   C3A 4591   5.023  19.899  17.204  0.1376 -0.1666 -0.0294
  383POPC   C4A 4592   4.814  19.978  16.805  0.0862 -0.4029 -0.1615
  383POPC   C1B 4593   4.986  19.146  17.758 -0.1516  0.2244 -0.0883
  383POPC   C2B 4594   5.118  18.985  17.386 -0.0979 -0.1243  0.2467
  383POPC   C3B 4595   5.413  19.010  17.044 -0.2753 -0.1617 -0.0100
  383POPC   C4B 4596   5.682  18.956  16.669 -0.0780  0.2963 -0.2387
  384POPC   NC3 4597  15.301   4.626  19.735  0.1450  0.2007 -0.0046
  384POPC   PO4 4598  15.342   4.220  19.722 -0.0164 -0.1461 -0.0268
  384POPC   GL1 4599  14.987   4.429  19.507  0.1521 -0.1171 -0.1242
  384POPC   GL2 4600  15.055   4.496  19.263  0.3503 -0.0451  0.1276
  384POPC   C1A 4601  14.613   4.368  19.238 -0.1239  0.0391 -0.1471
  384POPC   D2A 4602  14.224   4.535  19.016 -0.1194  0.0354  0.1322
  384POPC   C3A 4603  14.399   4.858  18.653  0.0899 -0.0121 -0.0498
  384POPC   C4A 4604  14.416   4.778  18.223  0.0947  0.0062 -0.1820
  384POPC   C1B 4605  15.033   4.748  18.878 -0.3352  0.1645 -0.0660
  384POPC   C2B 4606  15.279   5.102  18.605 -0.3296  0.3898  0.2414
  384POPC   C3B 4607  15.262   5.510  18.351 -0.0200  0.1565 -0.1587
  384POPC   C4B 4608  15.459   5.774  17.992 -0.0353  0.1007  0.2497
  385POPC   NC3 4609   3.588  16.793  19.643  0.0415  0.2150 -0.0938
  385POPC   PO4 4610   3.224  16.827  19.454 -0.1035 -0.0778 -0.1592
  385POPC   GL1 4611   3.341  16.662  19.131 -0.1226 -0.2292 -0.0686
  385POPC   GL2 4612   3.500  16.894  18.985 -0.2840  0.2565  0.1953
  385POPC   C1A 4613   3.155  16.373  18.785 -0.5720  0.0984  0.1137
  385POPC   D2A 4614   2.998  16.292  18.413 -0.0690  0.3915 -0.1585
  385POPC   C3A 4615   3.134  16.387  17.979 -0.0493 -0.2533 -0.0137
  385POPC   C4A 4616   3.361  16.474  17.594 -0.0646 -0.1761 -0.1577
  385POPC   C1B 4617   3.442  16.724  18.613 -0.2216  0.1516  0.0805
  385POPC   C2B 4618   3.530  16.453  18.274 -0.2805  0.2333 -0.4606
  385POPC   C3B 4619   3.583  16.153  17.928 -0.0339 -0.1691  0.1108
  385POPC   C4B 4620   3.878  16.196  17.556 -0.1019 -0.1317 -0.0305
  386POPC   NC3 4621  15.179  10.519  18.986  0.2198 -0.1501  0.0221
  386POPC   PO4 4622  15.361  10.228  19.134 -0.0215 -0.1668  0.2285
  386POPC   GL1 4623  15.562  10.238  18.837 -0.1002 -0.2860  0.4558
  386POPC   GL2 4624  15.505   9.979  18.688 -0.2574 -0.3218 -0.1801
  386POPC   C1A 4625  15.656  10.305  18.385  0.1982 -0.0641 -0.2110
  386POPC   D2A 4626  15.699  10.280  17.954 -0.0900  0.0407 -0.0625
  386POPC   C3A 4627  16.063  10.431  17.637 -0.2540 -0.0939 -0.0466
  386POPC   C4A 4628  16.390  10.554  17.332 -0.0345  0.3759 -0.2776
  386POPC   C1B 4629  15.640   9.731  18.302 -0.0343  0.0896  0.0175
  386POPC   C2B 4630  15.625   9.703  17.810 -0.0732  0.4370 -0.0514
  386POPC   C3B 4631  15.399   9.361  17.539  0.1150  0.4587 -0.3110
  386POPC   C4B 4632  15.148   9.008  17.418  0.3073  0.2057 -0.0741
  387POPC   NC3 4633   6.432  22.470  19.226 -0.2872  0.2120  0.0665
  387POPC   PO4 4634   6.275  22.140  19.341 -0.1882 -0.1636  0.3300
  387POPC   GL1 4635   6.097  22.113  18.883 -0.2395 -0.2626  0.1987
  387POPC   GL2 4636   6.205  21.825  18.775  0.1962 -0.1490  0.2403
  387POPC   C1A 4637   6.145  22.566  18.722  0.2604  0.2300  0.0201
  387POPC   D2A 4638   6.152  22.710  18.311  0.1178  0.0291 -0.0878
  387POPC   C3A 4639   5.794  22.745  18.037 -0.0851  0.0152  0.3000
  387POPC   C4A 4640   5.422  22.550  17.831  0.4654 -0.0299  0.0842
  387POPC   C1B 4641   6.161  22.070  18.417 -0.0558 -0.0763  0.3671
  387POPC   C2B 4642   6.133  22.304  18.030 -0.1679 -0.0453 -0.1870
  387POPC   C3B 4643   5.849  22.363  17.693 -0.3322  0.2044  0.1923
  387POPC   C4B 4644   5.775  22.618  17.325  0.2067 -0.1375  0.1683
  388POPC   NC3 4645   5.474   2.867  19.795 -0.1544 -0.1451 -0.2753
  388POPC   PO4 4646   5.145   2.634  19.790  0.1194  0.0870 -0.1198
  388POPC   GL1 4647   5.276   2.682  19.389 -0.1450  0.6410  0.1562
  388POPC   GL2 4648   5.319   2.726  19.081  0.2062  0.0197 -0.1194
  388POPC   C1A 4649   5.745   2.612  19.345 -0.0088 -0.1377 -0.0997
  388POPC   D2A 4650   6.195   2.702  19.485 -0.1045 -0.1952  0.3822
  388POPC   C3A 4651   6.566   2.879  19.744  0.1171 -0.1242  0.1489
  388POPC   C4A 4652   7.018   2.789  19.759  0.1981 -0.3353 -0.0084
  388POPC   C1B 4653   5.055   2.668  18.678 -0.1412 -0.0191  0.0305
  388POPC   C2B 4654   4.944   2.713  18.268  0.1258  0.1530 -0.0765
  388POPC   C3B 4655   4.884   2.972  17.898  0.2141  0.1262 -0.2329
  388POPC   C4B 4656   4.852   3.225  17.505 -0.0201 -0.0923 -0.0993
  389POPC   NC3 4657  15.308  11.832  19.419 -0.1410 -0.1177 -0.0207
  389POPC   PO4 4658  15.548  11.773  19.122 -0.1960  0.1491  0.0441
  389POPC   GL1 4659  15.610  11.927  18.831 -0.0891 -0.2973 -0.1761
  389POPC   GL2 4660  15.891  11.793  18.727 -0.0921  0.0425  0.0226
  389POPC   C1A 4661  15.666  12.013  18.387 -0.1865  0.1968 -0.0113
  389POPC   D2A 4662  15.754  11.892  17.937  0.1508  0.0769 -0.1403
  389POPC   C3A 4663  15.562  11.725  17.538 -0.4468  0.2211  0.0712
  389POPC   C4A 4664  15.286  11.444  17.259  0.2145 -0.2023  0.4045
  389POPC   C1B 4665  16.043  11.450  18.426 -0.0973  0.0261 -0.1134
  389POPC   C2B 4666  16.099  11.127  18.155 -0.0977 -0.1409 -0.0214
  389POPC   C3B 4667  16.276  10.923  17.768 -0.0641  0.1066 -0.1811
  389POPC   C4B 4668  16.617  11.133  17.587 -0.1218  0.0137 -0.0265
  390POPC   NC3 4669   2.072  17.431  19.259  0.2099 -0.3445  0.1632
  390POPC   PO4 4670   2.405  17.332  19.383  0.0568 -0.0784 -0.1173
  390POPC   GL1 4671   2.495  17.201  18.948  0.2083  0.0336 -0.2502
  390POPC   GL2 4672   2.444  16.945  18.947  0.2769 -0.0912 -0.0831
  390POPC   C1A 4673   2.826  17.355  18.635  0.3352 -0.0063  0.0521
  390POPC   D2A 4674   3.033  17.511  18.184 -0.4206 -0.0177  0.0231
  390POPC   C3A 4675   3.139  17.295  17.785  0.2226  0.2474  0.1727
  390POPC   C4A 4676   3.313  17.006  17.413  0.0946  0.1457 -0.1005
  390POPC   C1B 4677   2.147  16.778  18.597 -0.2967 -0.0491  0.0600
  390POPC   C2B 4678   2.178  16.831  18.112  0.1474 -0.0573  0.1242
  390POPC   C3B 4679   2.175  16.662  17.674  0.1004 -0.1434 -0.0996
  390POPC   C4B 4680   2.519  16.641  17.384 -0.1841 -0.4709 -0.0374
  391POPC   NC3 4681   4.406   4.497  19.317  0.0200 -0.1642 -0.0427
  391POPC   PO4 4682   4.398   4.097  19.335 -0.2755  0.1218 -0.1353
  391POPC   GL1 4683   4.725   4.114  19.131 -0.1570  0.2173 -0.2079
  391POPC   GL2 4684   4.624   4.197  18.898 -0.1452 -0.0696  0.0721
  391POPC   C1A 4685   5.190   4.108  18.981 -0.2257 -0.2748  0.3096
  391POPC   D2A 4686   5.580   4.000  19.194  0.0673  0.2190 -0.2424
  391POPC   C3A 4687   5.741   3.926  19.633  0.1248  0.2044  0.1661
  391POPC   C4A 4688   5.810   3.558  19.877  0.3434 -0.1872  0.1026
  391POPC   C1B 4689   4.772   4.098  18.468  0.2024 -0.2427 -0.0666
  391POPC   C2B 4690   4.843   4.196  18.004 -0.3334 -0.0875  0.1165
  391POPC   C3B 4691   4.717   4.477  17.587  0.0822  0.2346 -0.1063
  391POPC   C4B 4692   4.524   4.449  17.211 -0.0275 -0.5723 -0.1185
  392POPC   NC3 4693   8.119  18.205  20.471 -0.1601 -0.0717  0.1197
  392POPC   PO4 4694   8.232  17.907  20.235 -0.0371 -0.0357  0.1664
  392POPC   GL1 4695   8.611  18.077  20.123 -0.5320 -0.1151  0.1056
  392POPC   GL2 4696   8.544  18.339  20.226 -0.1831  0.0426  0.3174
  392POPC   C1A 4697   8.585  18.150  19.707  0.2329  0.2120  0.1754
  392POPC   D2A 4698   8.455  18.438  19.347 -0.0761 -0.0152 -0.1821
  392POPC   C3A 4699   8.334  18.337  18.899  0.1280 -0.0228 -0.2666
  392POPC   C4A 4700   8.154  18.272  18.465 -0.0484 -0.3092  0.4248
  392POPC   C1B 4701   8.451  18.675  19.910  0.0406 -0.0301  0.0920
  392POPC   C2B 4702   8.478  18.943  19.512  0.1679 -0.3996 -0.1079
  392POPC   C3B 4703   8.228  18.964  19.131 -0.3582  0.2467  0.0189
  392POPC   C4B 4704   8.193  18.810  18.676  0.0084 -0.0374  0.0931
  393POPC   NC3 4705   5.208  10.209  19.485 -0.0415 -0.1143 -0.0501
  393POPC   PO4 4706   5.486   9.941  19.485  0.2284  0.1516 -0.0700
  393POPC   GL1 4707   5.436   9.999  19.120  0.0612  0.2350  0.2108
  393POPC   GL2 4708   5.378  10.291  19.014 -0.2771  0.2626  0.0420
  393POPC   C1A 4709   5.662  10.040  18.685  0.0585 -0.2372  0.0597
  393POPC   D2A 4710   5.622  10.307  18.304 -0.0356  0.0890  0.0127
  393POPC   C3A 4711   5.940  10.301  17.950  0.0872 -0.1548 -0.0756
  393POPC   C4A 4712   6.275  10.484  17.721  0.4012  0.0401  0.1278
  393POPC   C1B 4713   4.971  10.550  19.033  0.0698 -0.0406 -0.0758
  393POPC   C2B 4714   4.621  10.842  18.896 -0.0610  0.1825 -0.5166
  393POPC   C3B 4715   4.191  10.866  18.764  0.1107  0.1777 -0.1363
  393POPC   C4B 4716   3.757  10.704  18.901 -0.1999 -0.1814  0.1615
  394POPC   NC3 4717   8.272  22.272  19.006 -0.0177  0.1343 -0.1172
  394POPC   PO4 4718   8.428  21.948  19.020  0.0492 -0.1973 -0.2006
  394POPC   GL1 4719   8.621  21.709  18.792 -0.1654 -0.1763  0.0123
  394POPC   GL2 4720   8.866  21.879  18.772 -0.3275  0.0246  0.0495
  394POPC   C1A 4721   8.469  21.523  18.390  0.0182  0.2179  0.0665
  394POPC   D2A 4722   8.469  21.396  17.963 -0.0621  0.0665 -0.0594
  394POPC   C3A 4723   8.460  21.001  17.771  0.1329 -0.2949  0.0381
  394POPC   C4A 4724   8.392  20.568  17.582 -0.0372 -0.1168 -0.3419
  394POPC   C1B 4725   9.011  21.526  18.544  0.1366 -0.0275 -0.0365
  394POPC   C2B 4726   9.224  21.177  18.370  0.1272  0.1425 -0.0817
  394POPC   C3B 4727   9.400  20.948  18.006  0.1975 -0.1306  0.0264
  394POPC   C4B 4728   9.638  20.728  17.660  0.0598 -0.2377 -0.2646
  395POPC   NC3 4729   4.014   2.834  19.091  0.1187  0.0246  0.0292
  395POPC   PO4 4730   3.665   3.017  19.239 -0.1177 -0.2718  0.1276
  395POPC   GL1 4731   3.810   3.277  18.960  0.0797  0.4381  0.4860
  395POPC   GL2 4732   3.643   3.467  18.743 -0.0181 -0.3782  0.1191
  395POPC   C1A 4733   4.162   3.265  18.611  0.1948  0.0474 -0.1361
  395POPC   D2A 4734   4.481   3.544  18.289  0.1054  0.1495  0.0369
  395POPC   C3A 4735   4.498   3.641  17.891 -0.1278 -0.1536  0.2843
  395POPC   C4A 4736   4.857   3.783  17.621  0.0499 -0.3721 -0.1284
  395POPC   C1B 4737   3.712   3.308  18.317 -0.1547  0.0043 -0.0249
  395POPC   C2B 4738   3.549   3.249  17.889  0.3314 -0.0732 -0.0316
  395POPC   C3B 4739   3.330   3.188  17.476  0.2297 -0.2504  0.0452
  395POPC   C4B 4740   3.236   3.145  17.032  0.0227 -0.1121  0.1172
  396POPC   NC3 4741  15.341  13.428  18.814  0.2236  0.0861  0.1886
  396POPC   PO4 4742  15.614  13.222  18.953  0.1503 -0.0539 -0.0189
  396POPC   GL1 4743  15.792  13.177  18.637 -0.1063  0.0113 -0.0531
  396POPC   GL2 4744  15.543  13.043  18.484 -0.2918 -0.2161 -0.0152
  396POPC   C1A 4745  15.957  13.197  18.209  0.1422 -0.1328 -0.3233
  396POPC   D2A 4746  16.074  12.979  17.818 -0.4313  0.0726  0.2323
  396POPC   C3A 4747  15.809  12.678  17.657  0.1166 -0.1334 -0.1945
  396POPC   C4A 4748  15.771  12.602  17.234 -0.1999  0.0251 -0.0903
  396POPC   C1B 4749  15.604  12.692  18.245  0.0872  0.0529 -0.1464
  396POPC   C2B 4750  15.503  12.350  17.914  0.1642  0.1019  0.3430
  396POPC   C3B 4751  15.748  12.206  17.541  0.2180 -0.1538  0.3388
  396POPC   C4B 4752  16.075  11.926  17.329  0.1830  0.2393 -0.2462
  397POPC   NC3 4753   5.498   0.983  18.952 -0.0612 -0.0205 -0.1056
  397POPC   PO4 4754   5.122   0.946  19.065 -0.1214 -0.1425 -0.2906
  397POPC   GL1 4755   5.213   1.272  18.795  0.3278 -0.0602 -0.1018
  397POPC   GL2 4756   5.449   1.478  18.892 -0.2347 -0.0982 -0.2934
  397POPC   C1A 4757   5.525   1.339  18.450  0.2962  0.0506 -0.3037
  397POPC   D2A 4758   5.631   1.518  18.035 -0.1189  0.2472  0.3484
  397POPC   C3A 4759   5.239   1.677  17.790 -0.0770 -0.2243 -0.0405
  397POPC   C4A 4760   4.955   2.042  17.585 -0.0357 -0.1390  0.1920
  397POPC   C1B 4761   5.632   1.890  18.689  0.2152 -0.0452 -0.1415
  397POPC   C2B 4762   5.830   2.232  18.551 -0.2305 -0.0575 -0.2700
  397POPC   C3B 4763   6.243   2.392  18.332 -0.4110  0.1475 -0.2578
  397POPC   C4B 4764   6.613   2.219  18.190 -0.0326 -0.2286  0.1337
  398POPC   NC3 4765   6.006  25.952  19.374 -0.0677 -0.1831  0.0143
  398POPC   PO4 4766   5.746  25.677  19.365  0.1242 -0.0083 -0.4075
  398POPC   GL1 4767   5.863  25.681  18.993  0.0888 -0.3690 -0.1478
  398POPC   GL2 4768   5.981  25.867  18.862  0.0577  0.0574  0.2134
  398POPC   C1A 4769   5.709  25.490  18.560 -0.1199  0.1032  0.2617
  398POPC   D2A 4770   5.714  25.477  18.048 -0.6298 -0.1984  0.0086
  398POPC   C3A 4771   5.463  25.760  17.812  0.1259  0.0027  0.0323
  398POPC   C4A 4772   5.366  25.841  17.371  0.3157 -0.2124  0.1192
  398POPC   C1B 4773   5.869  26.050  18.460  0.1741  0.0574  0.0279
  398POPC   C2B 4774   5.822  26.073  18.031  0.0115 -0.1097  0.0891
  398POPC   C3B 4775   5.713  26.128  17.616 -0.1151 -0.1186  0.2082
  398POPC   C4B 4776   5.715  26.275  17.191 -0.5220  0.0357 -0.1236
  399POPC   NC3 4777   7.070  30.312  19.447 -0.2461  0.0778  0.1314
  399POPC   PO4 4778   6.692  30.203  19.381 -0.1821 -0.1978 -0.0850
  399POPC   GL1 4779   6.863  30.256  19.009  0.0608 -0.0225 -0.0630
  399POPC   GL2 4780   6.587  30.254  18.766 -0.0560 -0.3911 -0.1384
  399POPC   C1A 4781   7.051  29.994  18.653  0.3315 -0.0688  0.3223
  399POPC   D2A 4782   7.179  29.948  18.212  0.0304  0.2926  0.0126
  399POPC   C3A 4783   7.074  30.303  17.977 -0.0796 -0.0025 -0.0605
  399POPC   C4A 4784   7.103  30.627  17.623  0.0308  0.1477 -0.2769
  399POPC   C1B 4785   6.659  29.952  18.394 -0.0718 -0.0625  0.1071
  399POPC   C2B 4786   6.540  29.827  17.991 -0.0772  0.0707  0.1977
  399POPC   C3B 4787   6.552  29.531  17.582  0.2019  0.0009 -0.1402
  399POPC   C4B 4788   6.628  29.314  17.201  0.0014  0.2402 -0.0131
  400POPC   NC3 4789   2.377  25.123  19.492  0.2514  0.0427  0.4498
  400POPC   PO4 4790   2.706  25.178  19.319  0.2216  0.1470  0.2311
  400POPC   GL1 4791   2.742  25.249  18.847 -0.2747  0.2605 -0.1148
  400POPC   GL2 4792   3.045  25.264  18.855 -0.0906  0.1004 -0.0553
  400POPC   C1A 4793   2.574  25.564  18.504  0.1153 -0.1196 -0.1274
  400POPC   D2A 4794   2.458  25.620  18.040 -0.0374 -0.0871  0.0357
  400POPC   C3A 4795   2.698  25.659  17.666 -0.0734  0.1630  0.3136
  400POPC   C4A 4796   3.119  25.657  17.439  0.2167 -0.1876  0.1529
  400POPC   C1B 4797   3.034  25.487  18.399 -0.0900  0.0051  0.2280
  400POPC   C2B 4798   2.968  25.732  18.032 -0.3161 -0.0286  0.0644
  400POPC   C3B 4799   3.091  26.083  17.760 -0.1707  0.1210 -0.3570
  400POPC   C4B 4800   3.110  26.498  17.625  0.3202 -0.1518 -0.2510
  401POPC   NC3 4801   8.860   0.372  19.281 -0.0600 -0.1014 -0.2287
  401POPC   PO4 4802   8.923   0.037  19.077  0.2694  0.2780 -0.0810
  401POPC   GL1 4803   9.117   0.266  18.860  0.3364  0.1889 -0.2524
  401POPC   GL2 4804   9.346   0.176  18.716 -0.0248 -0.0136 -0.1484
  401POPC   C1A 4805   8.908   0.474  18.460  0.3214  0.1425 -0.3560
  401POPC   D2A 4806   8.657   0.473  18.046  0.0333 -0.1815 -0.3018
  401POPC   C3A 4807   8.604   0.770  17.666  0.0892 -0.2672  0.1339
  401POPC   C4A 4808   8.483   1.143  17.444  0.3441  0.2260  0.1805
  401POPC   C1B 4809   9.029  -0.075  18.463  0.0704 -0.1160 -0.1627
  401POPC   C2B 4810   8.834  -0.217  18.093 -0.1663  0.1407 -0.0980
  401POPC   C3B 4811   9.046  -0.221  17.669  0.1496 -0.3298  0.0071
  401POPC   C4B 4812   8.912  -0.368  17.270  0.1460  0.0173 -0.0310
  402POPC   NC3 4813   5.352  27.333  20.060  0.1276 -0.2838 -0.0885
  402POPC   PO4 4814   5.597  27.176  19.779  0.0901 -0.1532 -0.0548
  402POPC   GL1 4815   5.656  27.143  19.417 -0.1423  0.1586 -0.1106
  402POPC   GL2 4816   5.914  26.938  19.397 -0.0992  0.1509  0.3565
  402POPC   C1A 4817   5.257  27.206  19.176  0.1204 -0.0081 -0.2117
  402POPC   D2A 4818   4.967  27.196  18.849  0.0469 -0.0310  0.1396
  402POPC   C3A 4819   5.051  27.237  18.402  0.0484 -0.3455 -0.0957
  402POPC   C4A 4820   5.011  27.210  17.938  0.0784 -0.2339 -0.0886
  402POPC   C1B 4821   6.183  26.910  18.984  0.1575  0.0502 -0.0376
  402POPC   C2B 4822   6.046  27.015  18.562  0.1297  0.0382  0.0668
  402POPC   C3B 4823   5.960  27.035  18.134 -0.2137 -0.0573  0.1229
  402POPC   C4B 4824   6.047  27.175  17.684 -0.3767 -0.1281 -0.0778
  403POPC   NC3 4825   5.389  30.750  19.400  0.1501  0.1233  0.0161
  403POPC   PO4 4826   5.700  31.033  19.488  0.1189 -0.0650  0.1259
  403POPC   GL1 4827   5.553  31.115  19.101 -0.1649 -0.0782 -0.0040
  403POPC   GL2 4828   5.543  31.356  19.062  0.0134  0.1622 -0.0976
  403POPC   C1A 4829   5.111  31.079  19.038 -0.1409  0.0890 -0.0026
  403POPC   D2A 4830   4.834  31.289  18.638 -0.2540  0.1626 -0.0106
  403POPC   C3A 4831   4.999  31.480  18.250 -0.0264 -0.0758  0.0406
  403POPC   C4A 4832   5.160  31.442  17.797 -0.0018 -0.1740 -0.2419
  403POPC   C1B 4833   5.493  31.214  18.577 -0.1022 -0.2590 -0.2992
  403POPC   C2B 4834   5.456  31.145  18.151 -0.1727  0.0212 -0.1392
  403POPC   C3B 4835   5.445  31.086  17.660  0.2005  0.3405  0.0050
  403POPC   C4B 4836   5.323  31.427  17.331 -0.0478  0.1671 -0.2371
  404POPC   NC3 4837   7.034  31.186  19.240 -0.1099 -0.1165  0.0905
  404POPC   PO4 4838   7.127  30.794  19.312 -0.1319 -0.1499  0.3741
  404POPC   GL1 4839   6.991  30.724  18.981 -0.0106  0.3043 -0.1318
  404POPC   GL2 4840   7.162  30.478  18.806 -0.0329 -0.3534 -0.3704
  404POPC   C1A 4841   6.678  30.760  18.655  0.3009 -0.0554 -0.2654
  404POPC   D2A 4842   6.499  30.901  18.217  0.1074  0.3100 -0.1031
  404POPC   C3A 4843   6.086  31.134  18.244  0.1585  0.2301  0.2142
  404POPC   C4A 4844   5.831  31.387  17.915  0.0775 -0.0760  0.2246
  404POPC   C1B 4845   7.082  30.524  18.409 -0.0031 -0.1075  0.0247
  404POPC   C2B 4846   6.953  30.819  18.091  0.1847  0.1198  0.0839
  404POPC   C3B 4847   6.771  31.014  17.727  0.0623 -0.1435  0.0852
  404POPC   C4B 4848   6.721  31.414  17.534  0.0037 -0.1746  0.1291
  405POPC   NC3 4849   0.674   8.668  19.281  0.1521 -0.1408  0.0235
  405POPC   PO4 4850   0.301   8.482  19.381  0.0225 -0.0189 -0.0752
  405POPC   GL1 4851   0.178   8.148  19.250  0.2765 -0.0386  0.4608
  405POPC   GL2 4852  -0.059   8.104  19.378  0.1698  0.1157  0.1182
  405POPC   C1A 4853   0.120   7.769  18.992 -0.0979 -0.0704  0.0473
  405POPC   D2A 4854  -0.042   7.414  18.757 -0.2958 -0.0113  0.0251
  405POPC   C3A 4855   0.118   7.168  18.364  0.4424 -0.0174 -0.0731
  405POPC   C4A 4856   0.055   6.763  18.050 -0.0592 -0.2556 -0.1849
  405POPC   C1B 4857   0.076   7.700  19.544  0.0276  0.1047 -0.1254
  405POPC   C2B 4858   0.095   7.312  19.227 -0.0806  0.1446 -0.2963
  405POPC   C3B 4859  -0.204   6.965  19.040  0.0009 -0.1715  0.3798
  405POPC   C4B 4860  -0.620   7.039  19.189 -0.2037 -0.2460 -0.2454
  406POPC   NC3 4861  11.314   4.767  19.448 -0.1214 -0.1154  0.0927
  406POPC   PO4 4862  11.131   4.775  19.132  0.1645  0.3328 -0.4123
  406POPC   GL1 4863  11.130   4.691  18.788 -0.3396 -0.1417  0.1269
  406POPC   GL2 4864  11.190   4.373  18.773  0.1494  0.0279  0.0486
  406POPC   C1A 4865  11.234   4.903  18.342 -0.2849 -0.1129 -0.0635
  406POPC   D2A 4866  11.586   4.817  18.026  0.0670 -0.1358 -0.3481
  406POPC   C3A 4867  11.780   4.717  17.557  0.1978 -0.0947 -0.1857
  406POPC   C4A 4868  11.680   4.751  17.112 -0.0829  0.0904 -0.1190
  406POPC   C1B 4869  11.285   4.183  18.346 -0.2360 -0.0454 -0.3855
  406POPC   C2B 4870  11.247   3.971  17.919 -0.0397  0.4729 -0.0414
  406POPC   C3B 4871  11.555   3.795  17.597  0.2514  0.5687 -0.1445
  406POPC   C4B 4872  11.784   3.375  17.474 -0.0623  0.0860  0.1318
  407POPC   NC3 4873  15.011  27.780  19.482 -0.0322 -0.0054 -0.3093
  407POPC   PO4 4874  14.667  27.794  19.330 -0.2383 -0.0876 -0.1350
  407POPC   GL1 4875  14.710  27.752  18.883 -0.2325  0.0663  0.1848
  407POPC   GL2 4876  14.725  28.074  18.902 -0.3013 -0.0430  0.0668
  407POPC   C1A 4877  14.850  27.634  18.450  0.0991 -0.1641 -0.1335
  407POPC   D2A 4878  15.103  27.764  18.075 -0.2269 -0.1606 -0.1348
  407POPC   C3A 4879  15.310  27.714  17.638  0.0215  0.3759 -0.1455
  407POPC   C4A 4880  15.707  27.534  17.396 -0.0100 -0.0164  0.0003
  407POPC   C1B 4881  14.765  28.219  18.403  0.0741  0.0235  0.0580
  407POPC   C2B 4882  14.529  28.388  17.981 -0.2343  0.2782 -0.1254
  407POPC   C3B 4883  14.652  28.666  17.689  0.5698  0.3488 -0.1044
  407POPC   C4B 4884  14.947  28.739  17.402 -0.1246 -0.0592 -0.1568
  408POPC   NC3 4885   7.212  15.555  20.083  0.0539 -0.3870  0.0444
  408POPC   PO4 4886   7.335  15.606  19.735 -0.1319  0.1617 -0.0802
  408POPC   GL1 4887   7.463  15.533  19.463 -0.4219  0.0918  0.1830
  408POPC   GL2 4888   7.263  15.662  19.254  0.3512  0.0648 -0.3151
  408POPC   C1A 4889   7.876  15.508  19.250 -0.2552 -0.0429  0.3792
  408POPC   D2A 4890   8.160  15.649  18.969 -0.3514  0.0511 -0.2808
  408POPC   C3A 4891   8.077  15.446  18.546  0.3246 -0.3009  0.0121
  408POPC   C4A 4892   7.849  15.345  18.185  0.0709 -0.1106 -0.1505
  408POPC   C1B 4893   7.287  15.941  18.904 -0.2326 -0.0404  0.2682
  408POPC   C2B 4894   7.184  16.010  18.482  0.1764 -0.0408  0.1885
  408POPC   C3B 4895   7.132  15.849  18.049 -0.0432 -0.3728 -0.1241
  408POPC   C4B 4896   6.892  15.628  17.703 -0.2822  0.0944  0.2816
  409POPC   NC3 4897   7.112   5.239  19.253 -0.0025  0.3441 -0.1945
  409POPC   PO4 4898   7.122   4.885  19.472  0.0141  0.1334  0.0633
  409POPC   GL1 4899   7.135   4.637  19.137  0.0016  0.0973  0.1303
  409POPC   GL2 4900   7.306   4.873  18.974 -0.0143  0.1383  0.2822
  409POPC   C1A 4901   7.120   4.522  18.647  0.1594 -0.1982 -0.1081
  409POPC   D2A 4902   7.111   4.276  18.286  0.1829  0.0903 -0.0188
  409POPC   C3A 4903   6.982   3.960  17.989  0.1671  0.1980 -0.1511
  409POPC   C4A 4904   6.818   3.653  17.648  0.0852  0.0331  0.0510
  409POPC   C1B 4905   7.262   4.973  18.558  0.1449 -0.1173 -0.3346
  409POPC   C2B 4906   7.477   5.075  18.175 -0.2453  0.0678  0.0035
  409POPC   C3B 4907   7.401   5.207  17.755 -0.0942 -0.0906 -0.0735
  409POPC   C4B 4908   7.155   5.464  17.509  0.0109  0.0475 -0.5267
  410POPC   NC3 4909   1.087  15.007  19.457 -0.0256 -0.2401  0.1470
  410POPC   PO4 4910   0.726  15.178  19.349  0.0322  0.2050 -0.0927
  410POPC   GL1 4911   0.847  15.382  19.060  0.0828  0.1732 -0.0479
  410POPC   GL2 4912   0.848  15.649  19.168  0.2534  0.1233  0.0785
  410POPC   C1A 4913   0.697  15.654  18.718 -0.1305  0.1044  0.1166
  410POPC   D2A 4914   0.542  15.556  18.297  0.2184  0.1248 -0.0908
  410POPC   C3A 4915   0.378  15.816  17.951  0.0804  0.3445 -0.0161
  410POPC   C4A 4916   0.285  16.231  17.663  0.1223  0.2336 -0.3338
  410POPC   C1B 4917   0.583  15.992  19.336  0.2804 -0.0704  0.0345
  410POPC   C2B 4918   0.386  16.398  19.185 -0.2575 -0.2250  0.0933
  410POPC   C3B 4919   0.259  16.676  18.821 -0.0781  0.1042  0.3268
  410POPC   C4B 4920   0.302  16.807  18.331 -0.4152  0.1613 -0.1368
  411POPC   NC3 4921  14.516   2.908  19.334  0.2896  0.2847 -0.1007
  411POPC   PO4 4922  14.585   3.298  19.288 -0.1191  0.0207  0.1884
  411POPC   GL1 4923  14.973   3.352  18.956  0.1018  0.1286 -0.3149
  411POPC   GL2 4924  14.760   3.471  18.788  0.1497 -0.3255  0.1442
  411POPC   C1A 4925  15.167   3.229  18.564 -0.0453  0.0779  0.4161
  411POPC   D2A 4926  15.144   3.395  18.139  0.0068  0.0022  0.0303
  411POPC   C3A 4927  15.464   3.677  17.997 -0.2500  0.0043 -0.1141
  411POPC   C4A 4928  15.884   3.783  17.760  0.0040  0.1954 -0.2770
  411POPC   C1B 4929  14.847   3.718  18.422 -0.0327 -0.0413  0.3330
  411POPC   C2B 4930  15.012   3.863  18.055  0.1062  0.0505 -0.2264
  411POPC   C3B 4931  15.100   3.712  17.673  0.0416 -0.1009  0.3760
  411POPC   C4B 4932  14.980   3.385  17.382 -0.0746  0.1837  0.0600
  412POPC   NC3 4933   8.331  29.702  19.375  0.1700 -0.1193 -0.1474
  412POPC   PO4 4934   8.715  29.591  19.279 -0.2115  0.1817  0.0198
  412POPC   GL1 4935   8.623  29.413  18.953 -0.3045  0.0064  0.0561
  412POPC   GL2 4936   8.897  29.372  18.771 -0.1765  0.2412  0.0005
  412POPC   C1A 4937   8.310  29.450  18.582 -0.1051  0.0080 -0.1655
  412POPC   D2A 4938   8.381  29.496  18.110  0.0608  0.0384 -0.2251
  412POPC   C3A 4939   8.332  29.236  17.783 -0.0676  0.0375 -0.0496
  412POPC   C4A 4940   8.334  28.854  17.528  0.0089  0.2161  0.0654
  412POPC   C1B 4941   8.829  29.519  18.311 -0.0233  0.0844 -0.1138
  412POPC   C2B 4942   8.815  29.439  17.903 -0.0790 -0.0357  0.2142
  412POPC   C3B 4943   8.733  29.340  17.495 -0.2220  0.4357 -0.1816
  412POPC   C4B 4944   8.371  29.415  17.215  0.3532 -0.2187  0.1302
  413POPC   NC3 4945   0.145  20.058  19.045 -0.1211  0.1099 -0.1944
  413POPC   PO4 4946  -0.141  20.285  19.224 -0.1786 -0.2208 -0.2998
  413POPC   GL1 4947  -0.137  20.459  18.883  0.0429 -0.0165  0.1146
  413POPC   GL2 4948  -0.021  20.310  18.667 -0.2031 -0.2706 -0.2451
  413POPC   C1A 4949  -0.463  20.399  18.543 -0.0359 -0.0476  0.2413
  413POPC   D2A 4950  -0.600  20.385  18.090 -0.0497 -0.1322  0.1008
  413POPC   C3A 4951  -0.493  20.039  17.811  0.4692  0.3901  0.0042
  413POPC   C4A 4952  -0.548  19.530  17.776  0.1012 -0.0285  0.2631
  413POPC   C1B 4953   0.265  19.995  18.563 -0.2771 -0.0431  0.0155
  413POPC   C2B 4954   0.219  19.595  18.406  0.1605 -0.1772 -0.0513
  413POPC   C3B 4955   0.048  19.147  18.281  0.0453  0.0297  0.0524
  413POPC   C4B 4956   0.022  18.692  18.271  0.1221  0.1925 -0.0056
  414POPC   NC3 4957   4.048  29.823  19.707 -0.2168  0.1997 -0.2173
  414POPC   PO4 4958   4.339  30.042  19.592 -0.3412  0.2668  0.3177
  414POPC   GL1 4959   4.474  30.030  19.238  0.2888  0.0239  0.3433
  414POPC   GL2 4960   4.624  30.280  19.145  0.1679 -0.0178 -0.2142
  414POPC   C1A 4961   4.540  29.673  18.977  0.0266  0.0614  0.0044
  414POPC   D2A 4962   4.433  29.309  18.709 -0.3321 -0.0868  0.1358
  414POPC   C3A 4963   4.677  29.099  18.403 -0.0813 -0.3772 -0.0490
  414POPC   C4A 4964   4.677  29.124  17.950 -0.2686 -0.0474  0.0521
  414POPC   C1B 4965   4.722  30.124  18.749 -0.0820 -0.2886  0.0517
  414POPC   C2B 4966   5.064  30.263  18.460  0.0651 -0.2545  0.0571
  414POPC   C3B 4967   5.054  30.386  18.061 -0.2306  0.2162 -0.0833
  414POPC   C4B 4968   5.256  30.502  17.694 -0.0089 -0.0408 -0.1014
  415POPC   NC3 4969  12.577   7.812  19.328 -0.0074  0.2842 -0.2475
  415POPC   PO4 4970  12.774   8.068  19.061 -0.0282 -0.0928  0.0035
  415POPC   GL1 4971  12.919   8.102  18.731  0.2716  0.1030 -0.0910
  415POPC   GL2 4972  13.200   8.170  18.713 -0.2308 -0.5532 -0.4565
  415POPC   C1A 4973  13.055   7.915  18.294 -0.0287 -0.1069 -0.2198
  415POPC   D2A 4974  12.998   7.865  17.835 -0.0029 -0.0654  0.3767
  415POPC   C3A 4975  13.287   8.070  17.517 -0.0813 -0.3537 -0.0300
  415POPC   C4A 4976  13.419   8.504  17.694  0.1215  0.0776 -0.1522
  415POPC   C1B 4977  13.371   8.283  18.311 -0.0447 -0.1915 -0.0177
  415POPC   C2B 4978  13.579   8.042  18.018 -0.3472 -0.1759 -0.0853
  415POPC   C3B 4979  13.819   7.766  17.787  0.2392  0.1177 -0.2207
  415POPC   C4B 4980  13.994   7.474  17.526 -0.1398  0.0710  0.2795
  416POPC   NC3 4981   2.199   8.612  19.258  0.0802  0.1558  0.3054
  416POPC   PO4 4982   2.321   8.255  19.370  0.0580  0.0757 -0.1940
  416POPC   GL1 4983   2.126   8.047  19.081  0.0692 -0.2521 -0.0070
  416POPC   GL2 4984   2.391   8.005  18.881 -0.1678  0.1925 -0.0366
  416POPC   C1A 4985   1.988   7.666  18.880  0.0573 -0.1687  0.0765
  416POPC   D2A 4986   1.841   7.470  18.497 -0.2964  0.2124 -0.2009
  416POPC   C3A 4987   2.047   7.617  18.099  0.1441 -0.3258 -0.0345
  416POPC   C4A 4988   2.463   7.513  18.114 -0.0058  0.1364 -0.1744
  416POPC   C1B 4989   2.302   8.420  18.711  0.2263 -0.0674  0.1848
  416POPC   C2B 4990   2.165   8.700  18.406  0.2236  0.0604  0.1361
  416POPC   C3B 4991   1.971   8.583  17.994  0.1866 -0.1347  0.0816
  416POPC   C4B 4992   1.957   8.097  17.875 -0.0917 -0.3808 -0.4342
  417POPC   NC3 4993  11.252  28.601  19.684  0.2258 -0.1061 -0.0318
  417POPC   PO4 4994  11.151  28.259  19.513  0.1821 -0.1219 -0.1591
  417POPC   GL1 4995  11.088  28.247  19.067 -0.2384  0.0719 -0.1959
  417POPC   GL2 4996  11.137  28.004  18.980 -0.0270  0.2509 -0.1580
  417POPC   C1A 4997  10.748  28.398  18.890 -0.0362 -0.2521 -0.0104
  417POPC   D2A 4998  10.376  28.628  18.764  0.0426 -0.0133 -0.1167
  417POPC   C3A 4999  10.341  28.670  18.287 -0.0375  0.2095  0.2166
  417POPC   C4A 5000  10.224  28.429  17.891 -0.2169  0.1889 -0.1391
  417POPC   C1B 5001  10.824  27.910  18.665  0.1686  0.0200 -0.3037
  417POPC   C2B 5002  10.671  27.720  18.284  0.2307  0.2078 -0.1003
  417POPC   C3B 5003  10.719  27.488  17.897  0.0492  0.0235  0.0168
  417POPC   C4B 5004  10.573  27.516  17.440 -0.0237 -0.3377 -0.2398
  418POPC   NC3 5005   0.259  23.826  19.634  0.0338  0.0118  0.4932
  418POPC   PO4 5006   0.315  23.585  19.367 -0.1905 -0.1972  0.1164
  418POPC   GL1 5007   0.190  23.679  18.975  0.0609  0.2869  0.2861
  418POPC   GL2 5008  -0.062  23.601  18.904 -0.0393 -0.0394 -0.0461
  418POPC   C1A 5009   0.271  23.952  18.650 -0.2506  0.0057  0.0281
  418POPC   D2A 5010   0.135  24.272  18.378  0.2080 -0.0512  0.1977
  418POPC   C3A 5011   0.007  24.200  17.910 -0.2280 -0.0710  0.1535
  418POPC   C4A 5012  -0.153  24.409  17.501  0.0766  0.2065  0.0218
  418POPC   C1B 5013  -0.188  23.342  18.605  0.1634 -0.2005  0.0005
  418POPC   C2B 5014  -0.152  23.264  18.166  0.1021  0.0262 -0.1806
  418POPC   C3B 5015  -0.341  23.346  17.778 -0.0398  0.0576 -0.2486
  418POPC   C4B 5016  -0.612  23.524  17.419  0.0589  0.3225  0.1814
  419POPC   NC3 5017   0.733  26.550  18.892  0.2935  0.1400  0.0821
  419POPC   PO4 5018   0.360  26.651  18.965 -0.0240  0.2598 -0.1777
  419POPC   GL1 5019   0.340  26.682  18.649 -0.2011 -0.2122 -0.1600
  419POPC   GL2 5020   0.568  26.878  18.571 -0.1875  0.1860  0.0177
  419POPC   C1A 5021  -0.042  26.707  18.282 -0.1099 -0.0406  0.1701
  419POPC   D2A 5022  -0.337  26.920  18.013 -0.0874  0.0492 -0.2960
  419POPC   C3A 5023  -0.533  26.762  17.596 -0.5373 -0.2966  0.0361
  419POPC   C4A 5024  -0.901  26.670  17.364 -0.2572 -0.1648  0.0152
  419POPC   C1B 5025   0.349  27.131  18.265 -0.1354 -0.0075  0.0952
  419POPC   C2B 5026   0.182  27.278  17.848 -0.1317  0.1736 -0.0133
  419POPC   C3B 5027  -0.065  27.044  17.598  0.1190 -0.1582 -0.2022
  419POPC   C4B 5028  -0.119  27.031  17.193  0.0223  0.3619  0.1007
  420POPC   NC3 5029   8.605  24.574  19.399 -0.4095 -0.1125  0.3448
  420POPC   PO4 5030   8.623  24.622  18.999  0.1160 -0.2875 -0.1047
  420POPC   GL1 5031   8.551  24.305  18.685 -0.1068  0.2823 -0.0813
  420POPC   GL2 5032   8.491  24.393  18.426 -0.1281  0.2110  0.1803
  420POPC   C1A 5033   8.138  24.015  18.574 -0.0563 -0.1420 -0.0344
  420POPC   D2A 5034   7.986  23.763  18.183  0.2906 -0.1517 -0.0579
  420POPC   C3A 5035   7.922  23.923  17.775 -0.1038  0.0715  0.3482
  420POPC   C4A 5036   7.703  23.857  17.402  0.3134  0.1213 -0.2765
  420POPC   C1B 5037   8.897  24.394  18.142  0.2670 -0.0323 -0.2200
  420POPC   C2B 5038   9.158  24.354  17.818 -0.0142  0.2045  0.4726
  420POPC   C3B 5039   9.048  24.514  17.364  0.1206 -0.2579 -0.1852
  420POPC   C4B 5040   8.885  24.896  17.215  0.2673 -0.1941 -0.0552
  421POPC   NC3 5041   6.308   0.006  19.329 -0.0804  0.0065  0.1468
  421POPC   PO4 5042   6.553  -0.315  19.308  0.2138 -0.2302  0.0074
  421POPC   GL1 5043   6.722  -0.285  18.971 -0.0196 -0.0573  0.1355
  421POPC   GL2 5044   6.800  -0.533  18.803 -0.0783 -0.0947 -0.1850
  421POPC   C1A 5045   7.222  -0.237  18.930 -0.1946 -0.0002 -0.0310
  421POPC   D2A 5046   7.676  -0.196  18.879  0.0113 -0.3092  0.0585
  421POPC   C3A 5047   7.981  -0.553  18.856  0.1865  0.1780 -0.0862
  421POPC   C4A 5048   8.338  -0.820  18.816 -0.0303 -0.3776  0.4243
  421POPC   C1B 5049   6.878  -0.435  18.310 -0.0279  0.0474  0.0051
  421POPC   C2B 5050   7.049  -0.323  17.931 -0.0220  0.0423 -0.0199
  421POPC   C3B 5051   7.175  -0.598  17.579 -0.0088  0.0932 -0.2669
  421POPC   C4B 5052   7.014  -0.808  17.168 -0.2391 -0.1000 -0.2070
  422POPC   NC3 5053  15.316  22.205  19.333 -0.0448  0.3800  0.2464
  422POPC   PO4 5054  15.391  22.005  19.004  0.1745  0.0350 -0.0477
  422POPC   GL1 5055  15.235  22.356  18.751 -0.3649  0.0826 -0.0652
  422POPC   GL2 5056  15.059  22.154  18.634  0.0520 -0.0127 -0.0816
  422POPC   C1A 5057  15.286  22.514  18.345 -0.1636  0.1318 -0.0427
  422POPC   D2A 5058  15.226  22.723  17.965  0.2533 -0.4458 -0.1863
  422POPC   C3A 5059  15.025  23.149  17.946 -0.2019  0.1280  0.2225
  422POPC   C4A 5060  14.846  23.365  17.550 -0.3767  0.0826 -0.3822
  422POPC   C1B 5061  15.094  21.697  18.481  0.1286  0.2235  0.1196
  422POPC   C2B 5062  15.078  21.266  18.529  0.1169  0.2205 -0.4224
  422POPC   C3B 5063  14.983  20.839  18.326 -0.2103 -0.0359 -0.0451
  422POPC   C4B 5064  14.958  20.741  17.920  0.0403  0.0614  0.0472
  423POPC   NC3 5065   4.617  24.480  19.118 -0.3480 -0.2018  0.1172
  423POPC   PO4 5066   4.721  24.200  19.418  0.1131  0.3513 -0.2110
  423POPC   GL1 5067   4.874  24.034  19.121 -0.0212 -0.1274  0.3660
  423POPC   GL2 5068   4.646  23.863  18.994 -0.2901  0.1698  0.0194
  423POPC   C1A 5069   4.857  24.192  18.680  0.3133 -0.2284 -0.2296
  423POPC   D2A 5070   4.799  24.240  18.223  0.0591 -0.3112 -0.2474
  423POPC   C3A 5071   4.904  23.944  17.937  0.1392  0.1989  0.1153
  423POPC   C4A 5072   4.874  23.686  17.562 -0.3057 -0.3392  0.0024
  423POPC   C1B 5073   4.307  24.070  18.811  0.2044  0.1973 -0.1693
  423POPC   C2B 5074   4.157  24.440  18.586 -0.2147 -0.1459 -0.0579
  423POPC   C3B 5075   4.301  24.579  18.171 -0.0895  0.0563 -0.1862
  423POPC   C4B 5076   4.408  24.981  17.963  0.2550  0.1112  0.2507
  424POPC   NC3 5077  15.216   2.366  19.147 -0.1965  0.0062 -0.0094
  424POPC   PO4 5078  14.938   2.591  19.276 -0.3074 -0.0861  0.1682
  424POPC   GL1 5079  14.735   2.618  18.920  0.2597  0.2571 -0.0820
  424POPC   GL2 5080  14.715   2.917  18.821 -0.3947  0.4053  0.1037
  424POPC   C1A 5081  14.777   2.190  18.682 -0.1043  0.2310  0.0200
  424POPC   D2A 5082  14.490   1.876  18.429  0.0104 -0.0465  0.1675
  424POPC   C3A 5083  14.536   2.098  18.078  0.0222 -0.3692  0.1270
  424POPC   C4A 5084  14.600   2.058  17.607 -0.1059  0.1505  0.0164
  424POPC   C1B 5085  14.887   2.715  18.415  0.0374 -0.3169  0.0375
  424POPC   C2B 5086  15.320   2.724  18.230  0.1764 -0.1996  0.4271
  424POPC   C3B 5087  15.581   2.896  17.849  0.1029 -0.1845 -0.1558
  424POPC   C4B 5088  15.564   3.318  17.615 -0.4584  0.2247 -0.0681
  425POPC   NC3 5089   1.095  10.678  19.152 -0.0434 -0.4495  0.2740
  425POPC   PO4 5090   1.053  11.090  19.162  0.2304  0.1901 -0.2583
  425POPC   GL1 5091   0.936  10.912  18.699 -0.2451 -0.3125  0.2366
  425POPC   GL2 5092   0.699  10.737  18.758 -0.0013  0.1031 -0.1674
  425POPC   C1A 5093   1.209  10.806  18.322 -0.0932  0.4588 -0.3420
  425POPC   D2A 5094   1.364  10.677  17.955  0.0457  0.0459  0.1342
  425POPC   C3A 5095   1.372  10.859  17.595  0.0207 -0.1290 -0.2316
  425POPC   C4A 5096   1.168  11.069  17.190  0.2333  0.0256 -0.0658
  425POPC   C1B 5097   0.580  10.613  18.357  0.1077 -0.2577 -0.2833
  425POPC   C2B 5098   0.196  10.643  18.099 -0.0149  0.3163 -0.0408
  425POPC   C3B 5099  -0.070  10.851  17.818  0.3490 -0.1557 -0.5698
  425POPC   C4B 5100  -0.154  11.152  17.477 -0.0351 -0.3128  0.2860
  426POPC   NC3 5101   9.461  17.611  19.606 -0.1617  0.0911 -0.0956
  426POPC   PO4 5102   9.347  17.244  19.517  0.1185 -0.0355  0.4326
  426POPC   GL1 5103   9.290  17.316  19.118  0.3597  0.1514  0.2300
  426POPC   GL2 5104   9.199  17.041  19.060 -0.2071  0.0624 -0.1022
  426POPC   C1A 5105   9.552  17.424  18.787  0.2316  0.1185  0.0549
  426POPC   D2A 5106   9.692  17.806  18.479 -0.0593 -0.0954  0.0867
  426POPC   C3A 5107   9.533  17.796  18.025  0.0979  0.0974 -0.0063
  426POPC   C4A 5108   9.553  17.557  17.698  0.0240  0.0501 -0.0276
  426POPC   C1B 5109   8.952  17.211  18.711 -0.2030  0.0069  0.3489
  426POPC   C2B 5110   8.793  17.168  18.276  0.0649 -0.2256  0.1291
  426POPC   C3B 5111   8.813  17.166  17.758 -0.0666 -0.1251  0.0732
  426POPC   C4B 5112   8.874  17.103  17.242 -0.0973  0.3063  0.3227
  427POPC   NC3 5113  12.122  19.795  19.218 -0.1092  0.0152 -0.4934
  427POPC   PO4 5114  11.775  19.863  19.442  0.0078  0.2826 -0.1283
  427POPC   GL1 5115  11.516  19.895  19.169  0.0065 -0.1751 -0.2224
  427POPC   GL2 5116  11.696  20.084  18.984  0.1496 -0.2961 -0.0577
  427POPC   C1A 5117  11.212  20.091  18.874  0.1928  0.0805 -0.0574
  427POPC   D2A 5118  11.095  19.939  18.478 -0.0732  0.0194  0.2101
  427POPC   C3A 5119  11.206  19.896  18.043  0.1596  0.1110  0.2946
  427POPC   C4A 5120  11.568  19.790  17.764  0.0697 -0.1118 -0.0076
  427POPC   C1B 5121  11.563  20.116  18.517  0.0419 -0.1451 -0.0845
  427POPC   C2B 5122  11.465  20.303  18.165  0.1141 -0.4235 -0.2918
  427POPC   C3B 5123  11.398  20.344  17.745 -0.0413 -0.0241  0.2609
  427POPC   C4B 5124  11.031  20.469  17.404  0.2443 -0.1193 -0.2155
  428POPC   NC3 5125  12.943   3.967  19.207  0.0760  0.0383  0.1815
  428POPC   PO4 5126  12.649   4.161  19.366 -0.0870 -0.0573 -0.0094
  428POPC   GL1 5127  12.825   4.386  19.068  0.0402  0.1616 -0.0077
  428POPC   GL2 5128  12.849   4.717  19.069  0.3030  0.0404 -0.0851
  428POPC   C1A 5129  12.934   4.463  18.610 -0.0518 -0.2876  0.0119
  428POPC   D2A 5130  13.170   4.735  18.347  0.0211  0.1498  0.0148
  428POPC   C3A 5131  13.145   4.523  17.889 -0.1731 -0.1252  0.4442
  428POPC   C4A 5132  13.115   4.541  17.454  0.1624  0.0358 -0.3506
  428POPC   C1B 5133  12.697   4.962  18.686 -0.2145 -0.0106  0.0902
  428POPC   C2B 5134  12.615   5.062  18.262 -0.0350  0.1922 -0.0102
  428POPC   C3B 5135  12.506   5.476  18.051 -0.2319 -0.1319 -0.1246
  428POPC   C4B 5136  12.388   5.927  17.937 -0.3159  0.5090  0.0169
  429POPC   NC3 5137   3.553  10.298  19.221  0.3344 -0.2164  0.0509
  429POPC   PO4 5138   3.562  10.035  19.533 -0.0637  0.1419 -0.2726
  429POPC   GL1 5139   3.303   9.929  19.160  0.0665 -0.1277  0.0372
  429POPC   GL2 5140   3.432   9.855  18.953 -0.0960 -0.0619  0.0131
  429POPC   C1A 5141   3.024   9.937  18.767  0.1659 -0.2590  0.0412
  429POPC   D2A 5142   3.029  10.101  18.321 -0.1519 -0.0976  0.1703
  429POPC   C3A 5143   3.019  10.574  18.231  0.2945  0.1652 -0.3317
  429POPC   C4A 5144   2.681  10.839  18.302 -0.0961  0.1006 -0.2799
  429POPC   C1B 5145   3.462   9.998  18.498 -0.1298  0.2049 -0.2508
  429POPC   C2B 5146   3.470  10.229  18.114  0.1518 -0.0870 -0.2315
  429POPC   C3B 5147   3.737  10.287  17.713 -0.1809 -0.0147  0.1296
  429POPC   C4B 5148   3.507  10.350  17.299 -0.2164  0.0591  0.1534
  430POPC   NC3 5149   2.062  14.645  18.489 -0.2825  0.2831 -0.0436
  430POPC   PO4 5150   2.002  14.387  18.727  0.1347  0.1058 -0.2038
  430POPC   GL1 5151   1.814  14.299  18.378 -0.2202 -0.0745  0.3753
  430POPC   GL2 5152   1.670  14.121  18.481  0.2025 -0.0851 -0.2619
  430POPC   C1A 5153   1.885  14.446  17.967  0.3527  0.0825  0.2680
  430POPC   D2A 5154   1.788  14.830  17.664 -0.0906  0.0012 -0.1736
  430POPC   C3A 5155   2.117  14.900  17.303  0.0863 -0.0583 -0.0345
  430POPC   C4A 5156   2.231  15.258  17.041  0.1043  0.0705 -0.1083
  430POPC   C1B 5157   1.639  14.037  17.999 -0.0949  0.1090  0.1250
  430POPC   C2B 5158   1.553  14.165  17.612 -0.1615 -0.0995 -0.3193
  430POPC   C3B 5159   1.249  14.395  17.324 -0.0885 -0.1262 -0.1209
  430POPC   C4B 5160   0.999  14.627  17.037 -0.1174  0.1330  0.0717
  431POPC   NC3 5161   9.918  25.348  19.552  0.1528 -0.3174 -0.1194
  431POPC   PO4 5162   9.629  25.143  19.489  0.0126 -0.3302 -0.3935
  431POPC   GL1 5163   9.724  25.226  19.024  0.4014 -0.0763  0.0318
  431POPC   GL2 5164   9.995  25.203  19.030 -0.0105  0.0592  0.2224
  431POPC   C1A 5165   9.797  25.124  18.586  0.0270  0.2556 -0.1587
  431POPC   D2A 5166   9.850  24.928  18.153 -0.0045 -0.2135  0.2614
  431POPC   C3A 5167   9.934  25.170  17.730 -0.0968  0.0240 -0.2096
  431POPC   C4A 5168   9.979  25.226  17.273  0.0297  0.0841  0.1474
  431POPC   C1B 5169  10.022  25.566  18.718 -0.2521 -0.1667 -0.0098
  431POPC   C2B 5170  10.254  25.785  18.347  0.0109 -0.1626  0.1426
  431POPC   C3B 5171  10.397  25.733  17.925 -0.3220 -0.2658  0.0543
  431POPC   C4B 5172  10.532  25.486  17.599  0.0006  0.0450  0.0711
  432POPC   NC3 5173   6.226  14.037  19.526  0.0965 -0.0133  0.1941
  432POPC   PO4 5174   6.539  13.812  19.443 -0.1377  0.3754  0.0150
  432POPC   GL1 5175   6.566  13.669  19.040 -0.1890  0.2057 -0.0292
  432POPC   GL2 5176   6.851  13.851  18.932 -0.1222  0.2228 -0.0396
  432POPC   C1A 5177   6.438  13.627  18.613 -0.0946 -0.2450  0.0430
  432POPC   D2A 5178   6.436  13.697  18.138  0.0267 -0.2523  0.0471
  432POPC   C3A 5179   6.353  13.984  17.791 -0.0429  0.1148 -0.3335
  432POPC   C4A 5180   6.109  14.300  17.533  0.0894  0.0425  0.0491
  432POPC   C1B 5181   6.868  14.060  18.531  0.0936  0.1034  0.0459
  432POPC   C2B 5182   6.853  14.096  18.085 -0.2639  0.3103  0.0194
  432POPC   C3B 5183   7.032  14.300  17.756  0.0814  0.0892  0.1406
  432POPC   C4B 5184   7.308  14.709  17.600  0.0794  0.3957  0.0667
  433POPC   NC3 5185  10.580   9.907  19.709 -0.0281 -0.0702  0.0598
  433POPC   PO4 5186  10.445  10.288  19.583 -0.1948 -0.0093  0.0599
  433POPC   GL1 5187  10.511  10.253  19.221  0.1422 -0.0948 -0.1272
  433POPC   GL2 5188  10.512   9.898  19.201 -0.2032  0.4305  0.0420
  433POPC   C1A 5189  10.402  10.161  18.816  0.0989 -0.0166  0.3198
  433POPC   D2A 5190  10.412  10.001  18.397 -0.2903 -0.1386 -0.0630
  433POPC   C3A 5191  10.249  10.137  17.945 -0.1795 -0.1187 -0.2835
  433POPC   C4A 5192  10.244  10.364  17.525  0.1099 -0.1657 -0.0175
  433POPC   C1B 5193  10.652   9.699  18.799 -0.1221  0.2606 -0.1473
  433POPC   C2B 5194  10.701   9.614  18.341  0.0603  0.0016  0.0888
  433POPC   C3B 5195  10.397   9.542  17.953 -0.0650 -0.3165  0.0263
  433POPC   C4B 5196  10.034   9.333  17.689 -0.1105  0.2156  0.1094
  434POPC   NC3 5197  11.531   2.044  20.182  0.0551  0.0976 -0.3895
  434POPC   PO4 5198  11.634   2.166  19.811  0.1494 -0.1983  0.0868
  434POPC   GL1 5199  11.746   2.240  19.469  0.0618 -0.0694  0.0125
  434POPC   GL2 5200  11.660   2.013  19.325 -0.2298 -0.2375  0.1080
  434POPC   C1A 5201  11.712   2.418  18.999  0.1341  0.1302 -0.2441
  434POPC   D2A 5202  11.838   2.450  18.529  0.3712 -0.1823 -0.1117
  434POPC   C3A 5203  12.162   2.320  18.317  0.2951 -0.0636  0.0173
  434POPC   C4A 5204  12.519   2.397  18.047  0.2105 -0.1483  0.0317
  434POPC   C1B 5205  11.497   1.791  18.920 -0.0674 -0.2680  0.2744
  434POPC   C2B 5206  11.303   1.782  18.495  0.0062  0.1350  0.1587
  434POPC   C3B 5207  11.112   1.761  18.094  0.3428 -0.0316 -0.0404
  434POPC   C4B 5208  10.964   1.786  17.614 -0.0428 -0.0313 -0.1871
  435POPC   NC3 5209   2.291  14.107  19.193 -0.0815 -0.2592  0.0494
  435POPC   PO4 5210   2.317  13.708  19.134 -0.2475 -0.0660  0.1624
  435POPC   GL1 5211   2.215  13.627  18.807 -0.0877  0.0505  0.4089
  435POPC   GL2 5212   2.162  13.884  18.659  0.1499  0.0881  0.2530
  435POPC   C1A 5213   1.760  13.650  18.644 -0.2572 -0.1808  0.0315
  435POPC   D2A 5214   1.481  13.649  18.311 -0.2208 -0.1260  0.1554
  435POPC   C3A 5215   1.339  13.699  17.870  0.0754  0.5644  0.1268
  435POPC   C4A 5216   1.364  13.692  17.429 -0.0904  0.1929 -0.0312
  435POPC   C1B 5217   2.016  13.803  18.222 -0.0294  0.1789  0.2107
  435POPC   C2B 5218   2.152  13.973  17.803 -0.3347  0.3970  0.0600
  435POPC   C3B 5219   2.099  14.345  17.505  0.0164 -0.2284  0.2745
  435POPC   C4B 5220   2.193  14.444  17.050 -0.0246  0.0592 -0.0771
  436POPC   NC3 5221   6.940   1.823  19.539 -0.0583  0.2448 -0.3668
  436POPC   PO4 5222   6.953   1.601  19.212  0.1113  0.0929 -0.1458
  436POPC   GL1 5223   7.039   1.815  18.787  0.1730  0.1443 -0.4208
  436POPC   GL2 5224   6.829   1.976  18.680 -0.2242  0.0301 -0.0530
  436POPC   C1A 5225   7.260   1.993  18.416  0.1038 -0.1291  0.1157
  436POPC   D2A 5226   7.300   2.306  18.073 -0.1065 -0.2886 -0.1095
  436POPC   C3A 5227   6.911   2.611  17.939  0.1326 -0.0712  0.0075
  436POPC   C4A 5228   6.878   3.034  18.068 -0.1400  0.0635 -0.0249
  436POPC   C1B 5229   6.918   2.408  18.524  0.5563 -0.1440  0.3574
  436POPC   C2B 5230   7.186   2.760  18.365 -0.1837 -0.0529 -0.2025
  436POPC   C3B 5231   7.342   2.830  17.897 -0.1301  0.0180  0.3620
  436POPC   C4B 5232   7.121   3.202  17.641 -0.2190  0.1441 -0.3296
  437POPC   NC3 5233   5.765   4.916  19.483  0.2516  0.1659 -0.0900
  437POPC   PO4 5234   6.075   4.703  19.565 -0.0739  0.3509 -0.0649
  437POPC   GL1 5235   5.875   4.579  19.219 -0.1784 -0.0245  0.2615
  437POPC   GL2 5236   5.678   4.486  19.113  0.0652  0.0897  0.3918
  437POPC   C1A 5237   6.127   4.380  18.851 -0.2451  0.5042 -0.1849
  437POPC   D2A 5238   6.245   4.011  18.523 -0.0333  0.0142 -0.4151
  437POPC   C3A 5239   6.170   3.595  18.374 -0.2489 -0.2383 -0.0181
  437POPC   C4A 5240   6.276   3.158  18.188  0.1829  0.0030  0.3995
  437POPC   C1B 5241   5.670   4.218  18.693 -0.0803 -0.0783 -0.3104
  437POPC   C2B 5242   5.688   3.911  18.361 -0.1541  0.0862 -0.1508
  437POPC   C3B 5243   5.906   3.883  17.997  0.0167  0.1597 -0.1596
  437POPC   C4B 5244   5.888   3.786  17.567 -0.0654  0.0078 -0.0246
  438POPC   NC3 5245   3.204  28.647  19.479  0.0593  0.0473  0.2865
  438POPC   PO4 5246   3.211  28.990  19.347 -0.0795 -0.2872  0.2638
  438POPC   GL1 5247   3.266  28.826  19.040 -0.0189  0.2168  0.0513
  438POPC   GL2 5248   3.096  28.687  18.851  0.0296  0.1914  0.0898
  438POPC   C1A 5249   3.601  28.795  18.699 -0.0401  0.0690 -0.0700
  438POPC   D2A 5250   3.799  28.716  18.302  0.1856  0.0221  0.0638
  438POPC   C3A 5251   3.879  28.485  17.933  0.1282 -0.0670  0.1804
  438POPC   C4A 5252   4.290  28.317  17.856 -0.0374  0.2405  0.0500
  438POPC   C1B 5253   2.972  28.826  18.490  0.0482 -0.3149  0.1873
  438POPC   C2B 5254   2.934  28.984  18.089 -0.0629 -0.0259 -0.1185
  438POPC   C3B 5255   2.934  29.343  17.801 -0.0513 -0.0422 -0.1715
  438POPC   C4B 5256   2.800  29.707  17.544 -0.0265  0.4017 -0.0212
  439POPC   NC3 5257  10.307   1.269  19.478 -0.2296 -0.0523 -0.0859
  439POPC   PO4 5258  10.504   1.427  19.197  0.0978 -0.0968  0.3187
  439POPC   GL1 5259  10.461   1.222  18.882 -0.0228 -0.4426 -0.0921
  439POPC   GL2 5260  10.452   0.965  18.988  0.1654 -0.1469 -0.0009
  439POPC   C1A 5261  10.788   1.126  18.563  0.1827 -0.0952  0.1311
  439POPC   D2A 5262  11.145   1.281  18.314 -0.1002 -0.2067  0.1278
  439POPC   C3A 5263  11.236   1.322  17.867 -0.0527  0.1727  0.1557
  439POPC   C4A 5264  11.434   1.615  17.566  0.0625  0.2050  0.3664
  439POPC   C1B 5265  10.279   1.054  18.531  0.1229  0.1361  0.2382
  439POPC   C2B 5266  10.455   1.114  18.138  0.0953 -0.0813  0.1169
  439POPC   C3B 5267  10.673   1.164  17.706  0.2454  0.2352 -0.0986
  439POPC   C4B 5268  10.946   1.289  17.430 -0.1444 -0.0764 -0.0937
  440POPC   NC3 5269   7.819  23.834  19.010  0.4055 -0.2889 -0.1882
  440POPC   PO4 5270   7.954  23.960  19.362  0.0751 -0.0664 -0.0603
  440POPC   GL1 5271   7.923  24.282  19.117  0.3551  0.1069  0.2130
  440POPC   GL2 5272   8.140  24.382  18.920  0.0754 -0.4427  0.3509
  440POPC   C1A 5273   7.662  24.178  18.751  0.2943  0.0138 -0.0802
  440POPC   D2A 5274   7.665  24.164  18.269 -0.3652  0.1970 -0.7854
  440POPC   C3A 5275   8.119  24.284  18.103  0.3954  0.0960  0.0350
  440POPC   C4A 5276   8.176  24.690  17.831 -0.2966  0.0150 -0.3948
  440POPC   C1B 5277   8.003  24.624  18.552  0.1290  0.1515 -0.4412
  440POPC   C2B 5278   7.701  24.644  18.205 -0.1767  0.3037  0.0185
  440POPC   C3B 5279   7.593  24.476  17.756  0.0376 -0.0634 -0.0536
  440POPC   C4B 5280   7.916  24.300  17.424  0.1502  0.1085 -0.0005
  441POPC   NC3 5281  11.352  16.929  18.703  0.0929 -0.0807 -0.0600
  441POPC   PO4 5282  11.192  16.836  19.077 -0.0935 -0.2476  0.0643
  441POPC   GL1 5283  10.948  16.807  18.766 -0.0769  0.0442 -0.0483
  441POPC   GL2 5284  10.974  16.583  18.601 -0.1384  0.0304 -0.0329
  441POPC   C1A 5285  10.745  17.049  18.416 -0.1798  0.0225  0.3396
  441POPC   D2A 5286  10.881  17.317  18.060 -0.0903  0.2932 -0.2029
  441POPC   C3A 5287  11.262  17.427  17.813  0.1313  0.0694 -0.0227
  441POPC   C4A 5288  11.544  17.503  17.398 -0.2353  0.2965 -0.1140
  441POPC   C1B 5289  11.007  16.418  18.181 -0.2960 -0.1062 -0.0852
  441POPC   C2B 5290  11.084  16.469  17.774 -0.0854  0.3084 -0.1359
  441POPC   C3B 5291  11.057  16.463  17.315 -0.0093 -0.1321 -0.0487
  441POPC   C4B 5292  11.359  16.523  16.940 -0.1381 -0.1341 -0.1177
  442POPC   NC3 5293  12.416  13.470  19.076 -0.0724 -0.1555  0.0285
  442POPC   PO4 5294  12.588  13.826  19.138  0.2513 -0.1533 -0.0746
  442POPC   GL1 5295  12.635  13.838  18.736  0.2302 -0.1227 -0.1039
  442POPC   GL2 5296  12.372  13.967  18.662  0.0717  0.1037  0.2012
  442POPC   C1A 5297  12.637  13.571  18.362  0.1303 -0.0935  0.0783
  442POPC   D2A 5298  12.515  13.604  17.910  0.0116 -0.4622  0.1089
  442POPC   C3A 5299  12.419  13.332  17.544 -0.3132  0.1070  0.1723
  442POPC   C4A 5300  12.227  13.446  17.141  0.4041 -0.0465 -0.2437
  442POPC   C1B 5301  12.241  13.980  18.196  0.0506 -0.1781 -0.0544
  442POPC   C2B 5302  11.981  14.177  17.890  0.1407 -0.0430 -0.5164
  442POPC   C3B 5303  11.832  14.313  17.445 -0.0684 -0.2753 -0.3567
  442POPC   C4B 5304  11.955  14.254  17.061  0.0896 -0.1254  0.1262
  443POPC   NC3 5305   8.675   5.803  19.385  0.1004 -0.2773 -0.3527
  443POPC   PO4 5306   8.308   5.723  19.358 -0.1604 -0.1633 -0.4351
  443POPC   GL1 5307   8.326   5.733  18.903  0.1429 -0.1273  0.1655
  443POPC   GL2 5308   8.091   5.579  18.920  0.3382 -0.3802 -0.4180
  443POPC   C1A 5309   8.332   5.376  18.575 -0.0659 -0.0160  0.0797
  443POPC   D2A 5310   8.420   4.976  18.363  0.2336 -0.0859  0.1501
  443POPC   C3A 5311   8.302   4.670  18.059  0.0771  0.1220 -0.0751
  443POPC   C4A 5312   7.963   4.389  18.033 -0.0847  0.2325 -0.4886
  443POPC   C1B 5313   7.884   5.564  18.513 -0.0003  0.0152  0.0793
  443POPC   C2B 5314   7.910   5.385  18.080  0.2129 -0.0878  0.1621
  443POPC   C3B 5315   7.786   5.487  17.651 -0.0414  0.1629  0.2775
  443POPC   C4B 5316   7.680   5.926  17.423  0.2158 -0.0662 -0.0691
  444POPC   NC3 5317  13.129  14.908  19.756  0.0345 -0.0637  0.2238
  444POPC   PO4 5318  13.143  15.172  19.448 -0.1212  0.1792 -0.1607
  444POPC   GL1 5319  13.116  15.326  18.974 -0.4717  0.1140 -0.2676
  444POPC   GL2 5320  12.943  15.486  18.935 -0.1778 -0.0522  0.0373
  444POPC   C1A 5321  13.398  15.168  18.657 -0.0106  0.0222 -0.0432
  444POPC   D2A 5322  13.393  15.308  18.228 -0.2786 -0.2369 -0.2064
  444POPC   C3A 5323  13.723  15.227  17.838  0.0295  0.1097 -0.0989
  444POPC   C4A 5324  13.795  15.402  17.407  0.1469 -0.1895 -0.1660
  444POPC   C1B 5325  12.927  15.422  18.490  0.1471 -0.0526 -0.0569
  444POPC   C2B 5326  12.978  15.434  18.038 -0.4267 -0.0680  0.0500
  444POPC   C3B 5327  13.305  15.569  17.733 -0.2371  0.4127 -0.2167
  444POPC   C4B 5328  13.364  15.660  17.303  0.0962  0.1707  0.2555
  445POPC   NC3 5329   4.929   2.155  19.289  0.0489  0.3027 -0.0276
  445POPC   PO4 5330   4.657   2.378  19.085 -0.3410  0.1045  0.2005
  445POPC   GL1 5331   4.673   2.410  18.659  0.2169  0.0148 -0.3198
  445POPC   GL2 5332   4.777   2.114  18.636  0.2555  0.0534 -0.4161
  445POPC   C1A 5333   4.457   2.448  18.240  0.0591  0.2375 -0.2613
  445POPC   D2A 5334   4.462   2.246  17.848 -0.0571 -0.1336 -0.2371
  445POPC   C3A 5335   4.417   2.186  17.384  0.0322  0.0097 -0.2236
  445POPC   C4A 5336   4.647   1.966  17.065  0.0970  0.0637 -0.2786
  445POPC   C1B 5337   4.862   2.137  18.195 -0.0504 -0.0499 -0.2631
  445POPC   C2B 5338   4.983   2.408  17.905 -0.1685 -0.0672  0.1143
  445POPC   C3B 5339   4.794   2.546  17.495 -0.1018 -0.0295 -0.1438
  445POPC   C4B 5340   4.985   2.384  17.113  0.0250  0.3072  0.0122
  446POPC   NC3 5341  11.334  10.355  19.154 -0.0889  0.0732  0.0121
  446POPC   PO4 5342  11.479  10.099  19.375  0.1693  0.0499 -0.0134
  446POPC   GL1 5343  11.635   9.877  19.019  0.0757  0.2675  0.0259
  446POPC   GL2 5344  11.426   9.991  18.804  0.0385 -0.0120  0.1574
  446POPC   C1A 5345  11.898   9.934  18.654 -0.2488  0.2069 -0.0195
  446POPC   D2A 5346  12.117  10.309  18.590  0.1025 -0.0118  0.0379
  446POPC   C3A 5347  12.114  10.320  18.168  0.1002  0.0420 -0.1709
  446POPC   C4A 5348  12.171  10.518  17.725 -0.0049  0.1231 -0.3601
  446POPC   C1B 5349  11.672  10.405  18.705 -0.2788 -0.0263  0.1106
  446POPC   C2B 5350  11.942  10.801  18.519 -0.0563 -0.1197  0.0585
  446POPC   C3B 5351  11.779  11.165  18.347 -0.0165  0.0701  0.5422
  446POPC   C4B 5352  11.505  11.554  18.221  0.1537  0.1734 -0.2319
  447POPC   NC3 5353   9.183  29.621  19.157 -0.0365 -0.1808  0.2859
  447POPC   PO4 5354   9.052  29.991  19.065  0.0890  0.2581  0.1015
  447POPC   GL1 5355   8.859  29.836  18.749 -0.0554  0.1752  0.0821
  447POPC   GL2 5356   8.585  29.898  18.906 -0.0439 -0.1232  0.0562
  447POPC   C1A 5357   8.972  30.027  18.323  0.1337 -0.1816 -0.1090
  447POPC   D2A 5358   9.067  30.189  17.901 -0.4323 -0.1228  0.0424
  447POPC   C3A 5359   8.963  30.604  17.758  0.0309 -0.0390 -0.0694
  447POPC   C4A 5360   9.069  30.948  17.488 -0.4865 -0.1422  0.2449
  447POPC   C1B 5361   8.500  29.891  18.493 -0.0331  0.0690  0.1210
  447POPC   C2B 5362   8.214  30.059  18.107  0.3465  0.1297  0.0068
  447POPC   C3B 5363   8.013  30.367  17.845 -0.2425 -0.3259  0.0170
  447POPC   C4B 5364   7.889  30.533  17.461  0.2211 -0.3406 -0.1489
  448POPC   NC3 5365   5.106  22.169  19.246  0.0488 -0.0555 -0.1789
  448POPC   PO4 5366   5.441  22.312  19.385 -0.2505 -0.3403  0.3009
  448POPC   GL1 5367   5.609  22.528  19.061 -0.0859  0.1068 -0.5797
  448POPC   GL2 5368   5.838  22.378  19.136  0.0423  0.0569 -0.0368
  448POPC   C1A 5369   5.681  22.873  18.695 -0.0443 -0.0895 -0.2732
  448POPC   D2A 5370   5.621  23.142  18.353 -0.1783  0.0900 -0.1524
  448POPC   C3A 5371   5.653  23.242  17.850 -0.1059  0.1197  0.2637
  448POPC   C4A 5372   5.387  23.417  17.479  0.1881  0.0614  0.2184
  448POPC   C1B 5373   5.751  22.286  18.646 -0.0829  0.0765 -0.1107
  448POPC   C2B 5374   5.662  22.151  18.231  0.0580 -0.1796  0.1429
  448POPC   C3B 5375   5.420  22.061  17.837 -0.2693  0.2758  0.1480
  448POPC   C4B 5376   5.381  22.229  17.420  0.1261  0.0054 -0.1064
  449POPC   NC3 5377  11.367  29.531  19.715  0.2373  0.2153  0.0067
  449POPC   PO4 5378  10.966  29.370  19.824  0.0087 -0.1308  0.0404
  449POPC   GL1 5379  11.050  29.437  19.400  0.0235 -0.0927  0.4015
  449POPC   GL2 5380  10.915  29.657  19.326  0.1268  0.1361 -0.2189
  449POPC   C1A 5381  11.118  29.166  19.022 -0.1346 -0.0191  0.0011
  449POPC   D2A 5382  11.247  29.020  18.662  0.0422  0.2700  0.2732
  449POPC   C3A 5383  11.029  29.103  18.251  0.1788 -0.0328  0.1801
  449POPC   C4A 5384  11.029  29.033  17.775  0.1638 -0.1168  0.0438
  449POPC   C1B 5385  10.549  29.516  19.068  0.0467  0.0832 -0.2231
  449POPC   C2B 5386  10.140  29.584  18.883  0.0548  0.0154 -0.0688
  449POPC   C3B 5387   9.980  29.589  18.437  0.0547 -0.2310  0.0143
  449POPC   C4B 5388   9.754  29.707  18.100 -0.0724 -0.0744  0.0883
  450POPC   NC3 5389   4.168  25.389  19.342 -0.0081  0.1339  0.1063
  450POPC   PO4 5390   4.029  25.745  19.441 -0.3033  0.1013  0.1379
  450POPC   GL1 5391   4.150  25.813  19.024 -0.1471  0.0823 -0.2677
  450POPC   GL2 5392   4.383  25.919  19.074  0.0153 -0.0858  0.1962
  450POPC   C1A 5393   4.104  25.794  18.578  0.0923 -0.0955  0.1571
  450POPC   D2A 5394   3.863  25.885  18.254  0.1757 -0.0964  0.2602
  450POPC   C3A 5395   3.950  25.910  17.786 -0.0790 -0.3366  0.1665
  450POPC   C4A 5396   3.958  26.097  17.373  0.2021  0.0148  0.1433
  450POPC   C1B 5397   4.377  26.167  18.706 -0.1095  0.0551 -0.2675
  450POPC   C2B 5398   4.393  25.985  18.250  0.2696 -0.1820  0.1599
  450POPC   C3B 5399   4.457  26.048  17.784  0.0122 -0.1416 -0.2468
  450POPC   C4B 5400   4.856  26.050  17.495  0.0755 -0.2070 -0.1417
  451POPC   NC3 5401   4.847  12.846  19.289 -0.1620  0.0327  0.1616
  451POPC   PO4 5402   4.554  12.581  19.254 -0.2795 -0.3242 -0.0090
  451POPC   GL1 5403   4.644  12.660  18.861  0.0794  0.2022 -0.3609
  451POPC   GL2 5404   4.522  12.541  18.672  0.2311 -0.0853 -0.1339
  451POPC   C1A 5405   5.087  12.805  18.753  0.1763  0.1519 -0.0528
  451POPC   D2A 5406   5.463  12.960  18.455 -0.1040 -0.1294 -0.0367
  451POPC   C3A 5407   5.766  13.202  18.732 -0.0827  0.0867 -0.0082
  451POPC   C4A 5408   6.213  13.280  18.852 -0.3277  0.1568  0.0934
  451POPC   C1B 5409   4.575  12.391  18.249  0.0288  0.0416 -0.0880
  451POPC   C2B 5410   4.559  12.239  17.830  0.2092  0.1570 -0.2488
  451POPC   C3B 5411   4.289  12.085  17.486  0.0841  0.2267 -0.0798
  451POPC   C4B 5412   3.893  11.844  17.306 -0.1651  0.1047  0.0197
  452POPC   NC3 5413   5.517  14.384  19.224 -0.1194  0.0577 -0.0756
  452POPC   PO4 5414   5.763  14.101  19.357 -0.0747 -0.1904  0.0642
  452POPC   GL1 5415   5.736  14.066  19.032 -0.2266  0.1041 -0.5001
  452POPC   GL2 5416   5.948  14.210  18.879  0.2843 -0.2455 -0.4446
  452POPC   C1A 5417   5.839  13.752  18.701  0.1287 -0.0287  0.0341
  452POPC   D2A 5418   6.019  13.529  18.362  0.0154  0.2414  0.2011
  452POPC   C3A 5419   5.870  13.733  17.978  0.2122  0.1424  0.0585
  452POPC   C4A 5420   5.872  14.213  18.003 -0.0543 -0.0235 -0.0836
  452POPC   C1B 5421   5.674  14.362  18.553  0.4040 -0.1426 -0.1756
  452POPC   C2B 5422   5.525  14.758  18.311  0.2259  0.3925 -0.1955
  452POPC   C3B 5423   5.342  14.906  17.901 -0.1770  0.3242  0.3040
  452POPC   C4B 5424   5.205  15.186  17.512  0.0032  0.1257 -0.1788
  453POPC   NC3 5425   0.978  19.466  18.904  0.1505 -0.0568 -0.0230
  453POPC   PO4 5426   1.091  19.766  19.150 -0.2910 -0.1089 -0.0353
  453POPC   GL1 5427   1.516  19.882  18.986 -0.1849  0.2553  0.0888
  453POPC   GL2 5428   1.587  19.960  19.247  0.0546  0.1140 -0.3283
  453POPC   C1A 5429   1.707  19.894  18.566 -0.2228 -0.0777 -0.0716
  453POPC   D2A 5430   1.509  19.449  18.424  0.0567 -0.0519  0.2403
  453POPC   C3A 5431   1.879  19.208  18.341  0.0360  0.5691 -0.0709
  453POPC   C4A 5432   1.915  18.782  18.173 -0.0233  0.0270 -0.0493
  453POPC   C1B 5433   1.611  20.318  18.888  0.0485 -0.1470 -0.0704
  453POPC   C2B 5434   1.497  20.419  18.445 -0.3022  0.3022  0.0914
  453POPC   C3B 5435   1.450  20.437  17.977 -0.0135 -0.5659  0.0228
  453POPC   C4B 5436   1.356  20.252  17.571 -0.3879  0.0758  0.0963
  454POPC   NC3 5437  10.093  28.566  19.184 -0.1308 -0.0387  0.0759
  454POPC   PO4 5438   9.728  28.381  19.237 -0.0477 -0.1512  0.0145
  454POPC   GL1 5439   9.683  28.543  18.887 -0.0707 -0.0133  0.3068
  454POPC   GL2 5440   9.724  28.817  18.906 -0.1080 -0.2005 -0.0457
  454POPC   C1A 5441   9.432  28.432  18.483  0.1449 -0.2515 -0.1262
  454POPC   D2A 5442   9.100  28.507  18.144 -0.0880 -0.0708 -0.0082
  454POPC   C3A 5443   9.181  28.473  17.677  0.1535 -0.0490 -0.0728
  454POPC   C4A 5444   9.112  28.815  17.354 -0.0899  0.0597 -0.0180
  454POPC   C1B 5445   9.737  28.824  18.456 -0.0832  0.1637 -0.2060
  454POPC   C2B 5446   9.551  28.819  18.065  0.0122 -0.4521 -0.3163
  454POPC   C3B 5447   9.614  28.907  17.582  0.2549  0.1537 -0.0814
  454POPC   C4B 5448   9.615  28.862  17.108  0.1314 -0.0992 -0.0787
  455POPC   NC3 5449   9.123  15.963  19.059 -0.0526 -0.1918  0.1367
  455POPC   PO4 5450   9.444  16.171  19.018 -0.0486  0.1426 -0.0787
  455POPC   GL1 5451   9.454  16.224  18.617 -0.1562 -0.1210  0.1709
  455POPC   GL2 5452   9.172  16.293  18.570 -0.3899 -0.0887  0.0633
  455POPC   C1A 5453   9.494  16.525  18.235 -0.2580  0.0760 -0.2249
  455POPC   D2A 5454   9.621  16.583  17.787 -0.0573  0.0059  0.0454
  455POPC   C3A 5455   9.595  16.296  17.423  0.1204  0.0530  0.0399
  455POPC   C4A 5456   9.848  15.901  17.333  0.1518  0.0725  0.1181
  455POPC   C1B 5457   8.879  16.344  18.250  0.1039 -0.0762 -0.0109
  455POPC   C2B 5458   8.395  16.283  18.145 -0.0705 -0.0616 -0.0139
  455POPC   C3B 5459   8.143  16.320  17.769 -0.1870  0.2498  0.1145
  455POPC   C4B 5460   8.069  16.123  17.347  0.0455  0.1518 -0.1873
  456POPC   NC3 5461  10.157  11.768  19.558  0.1367 -0.0419  0.0621
  456POPC   PO4 5462  10.255  11.433  19.433 -0.2172  0.2018  0.0526
  456POPC   GL1 5463  10.094  11.446  19.073  0.0592  0.1081  0.0776
  456POPC   GL2 5464  10.140  11.754  19.030 -0.4945 -0.3022  0.2662
  456POPC   C1A 5465   9.970  11.373  18.623 -0.0616 -0.0010  0.0256
  456POPC   D2A 5466   9.784  11.604  18.240 -0.0742  0.1055 -0.2851
  456POPC   C3A 5467   9.867  11.635  17.781 -0.2399  0.3731 -0.0397
  456POPC   C4A 5468   9.626  11.584  17.357 -0.1446  0.2207 -0.4693
  456POPC   C1B 5469  10.206  11.925  18.584 -0.0874  0.1073 -0.0852
  456POPC   C2B 5470  10.291  12.028  18.126 -0.2388  0.2003 -0.3978
  456POPC   C3B 5471  10.287  12.263  17.841 -0.2014  0.3913  0.0617
  456POPC   C4B 5472  10.131  12.515  17.452 -0.1048  0.1996  0.1668
  457POPC   NC3 5473   1.034  26.151  19.085 -0.0447 -0.2517  0.1033
  457POPC   PO4 5474   1.062  25.815  18.929  0.1445  0.0201  0.0733
  457POPC   GL1 5475   0.851  25.872  18.627  0.0382  0.2047 -0.1799
  457POPC   GL2 5476   0.890  26.160  18.531 -0.0026  0.3367 -0.1723
  457POPC   C1A 5477   0.708  25.797  18.183 -0.2564 -0.0407 -0.1208
  457POPC   D2A 5478   0.433  25.934  17.790  0.0018  0.0254  0.1639
  457POPC   C3A 5479   0.365  26.344  17.633 -0.0303  0.0812  0.2428
  457POPC   C4A 5480   0.427  26.803  17.556  0.2267  0.1894 -0.0508
  457POPC   C1B 5481   0.923  26.584  18.353 -0.0488 -0.0271  0.3086
  457POPC   C2B 5482   1.157  26.653  17.910 -0.0711  0.0064 -0.2937
  457POPC   C3B 5483   1.401  26.741  17.519 -0.2394 -0.3521  0.0769
  457POPC   C4B 5484   1.707  26.462  17.240  0.0373 -0.1984 -0.0824
  458POPC   NC3 5485   7.949   8.753  19.209  0.0999  0.1347  0.1421
  458POPC   PO4 5486   8.020   8.441  19.388 -0.0651  0.0586 -0.2911
  458POPC   GL1 5487   7.776   8.184  19.179  0.1181 -0.3915  0.0400
  458POPC   GL2 5488   8.080   8.075  19.030  0.1257 -0.3141  0.1438
  458POPC   C1A 5489   7.625   8.161  18.743  0.3347  0.1527  0.0163
  458POPC   D2A 5490   7.758   7.876  18.360  0.1004 -0.0504  0.0327
  458POPC   C3A 5491   7.908   7.845  17.914  0.0735  0.3041  0.1321
  458POPC   C4A 5492   7.900   7.658  17.523  0.1076  0.0484 -0.1596
  458POPC   C1B 5493   8.196   8.207  18.579 -0.3062  0.2092 -0.0700
  458POPC   C2B 5494   8.218   8.160  18.128  0.1068 -0.0341 -0.1744
  458POPC   C3B 5495   8.250   8.105  17.645 -0.0813  0.2736 -0.0642
  458POPC   C4B 5496   8.461   8.043  17.268 -0.3123  0.4709 -0.1118
  459POPC   NC3 5497  13.611  26.549  20.064 -0.0397  0.2357 -0.0459
  459POPC   PO4 5498  13.446  26.186  19.961  0.1208 -0.1198  0.0091
  459POPC   GL1 5499  13.176  26.096  19.653 -0.3614  0.1163  0.4618
  459POPC   GL2 5500  13.367  25.909  19.450 -0.1820 -0.2696 -0.0012
  459POPC   C1A 5501  12.921  26.065  19.255  0.1955  0.1424  0.1531
  459POPC   D2A 5502  12.678  25.736  19.065  0.0274 -0.0239 -0.4298
  459POPC   C3A 5503  12.651  26.015  18.694 -0.0474 -0.0201 -0.0024
  459POPC   C4A 5504  12.664  26.348  18.416 -0.0493  0.0778  0.1560
  459POPC   C1B 5505  13.531  26.147  19.089  0.2123  0.0017  0.1148
  459POPC   C2B 5506  13.509  26.212  18.633 -0.1266  0.2284 -0.1487
  459POPC   C3B 5507  13.487  26.242  18.168  0.2863 -0.6282  0.3298
  459POPC   C4B 5508  13.628  26.330  17.755 -0.0004  0.4152 -0.1063
  460POPC   NC3 5509  12.973   9.397  19.273  0.1782 -0.0392  0.0873
  460POPC   PO4 5510  12.687   9.502  19.044 -0.0399 -0.2102  0.0499
  460POPC   GL1 5511  12.711   9.591  18.660 -0.4133  0.0116 -0.4923
  460POPC   GL2 5512  12.493   9.859  18.640  0.0678 -0.1645  0.2472
  460POPC   C1A 5513  12.735   9.685  18.201 -0.0719 -0.0641  0.0392
  460POPC   D2A 5514  13.018   9.922  17.942  0.1281  0.0039  0.1031
  460POPC   C3A 5515  13.401   9.850  17.688  0.0737  0.0970 -0.2147
  460POPC   C4A 5516  13.605   9.739  17.290 -0.0300 -0.0560  0.0776
  460POPC   C1B 5517  12.250   9.860  18.328 -0.1859  0.2456 -0.0153
  460POPC   C2B 5518  12.118   9.925  17.870 -0.0846 -0.1049 -0.3264
  460POPC   C3B 5519  11.740   9.900  17.622  0.1685  0.1211  0.2254
  460POPC   C4B 5520  11.644  10.044  17.195 -0.0162  0.1995 -0.2495
  461POPC   NC3 5521   4.310  10.074  19.727 -0.1281 -0.3553  0.2915
  461POPC   PO4 5522   4.700  10.082  19.579  0.0218 -0.3009 -0.1341
  461POPC   GL1 5523   4.836  10.081  19.227 -0.1044 -0.1211 -0.1298
  461POPC   GL2 5524   5.044   9.798  19.245  0.1377  0.1525  0.4453
  461POPC   C1A 5525   4.760  10.148  18.830 -0.0393 -0.3367 -0.0291
  461POPC   D2A 5526   5.009  10.233  18.458  0.1031  0.0836  0.0956
  461POPC   C3A 5527   4.753  10.629  18.429 -0.0012  0.0520  0.2933
  461POPC   C4A 5528   4.414  10.801  18.159 -0.0162 -0.1975 -0.0802
  461POPC   C1B 5529   5.199   9.835  18.787  0.1613  0.1669  0.1094
  461POPC   C2B 5530   5.370   9.849  18.347  0.1989  0.3233  0.3781
  461POPC   C3B 5531   5.304  10.144  18.007 -0.1628  0.0705 -0.0006
  461POPC   C4B 5532   5.092  10.469  17.768  0.2116 -0.3081 -0.1090
  462POPC   NC3 5533  14.328  16.188  20.237 -0.0482  0.0261  0.1014
  462POPC   PO4 5534  14.192  15.925  20.038  0.2656  0.1366  0.1937
  462POPC   GL1 5535  14.589  15.979  19.928 -0.4230 -0.0653 -0.1441
  462POPC   GL2 5536  14.588  16.167  19.741 -0.3086 -0.0150 -0.0874
  462POPC   C1A 5537  15.056  16.025  19.774  0.2161  0.0468 -0.1931
  462POPC   D2A 5538  15.342  16.337  19.600 -0.1829 -0.3094 -0.0999
  462POPC   C3A 5539  15.628  16.564  19.810  0.0379  0.3335 -0.1456
  462POPC   C4A 5540  15.649  17.015  19.754  0.2206 -0.1168  0.1270
  462POPC   C1B 5541  14.397  16.247  19.295  0.2451 -0.1964 -0.0024
  462POPC   C2B 5542  14.024  16.414  19.075 -0.0805 -0.2778  0.0529
  462POPC   C3B 5543  13.643  16.602  18.831 -0.1095  0.3458  0.1750
  462POPC   C4B 5544  13.316  16.322  18.654 -0.1991  0.0992 -0.1291
  463POPC   NC3 5545   1.011  11.531  18.695  0.0230 -0.1851  0.1202
  463POPC   PO4 5546   1.291  11.546  18.974 -0.0741  0.1690  0.2738
  463POPC   GL1 5547   1.351  11.291  18.681 -0.1965  0.2048  0.3204
  463POPC   GL2 5548   1.374  11.003  18.832  0.0040  0.0028 -0.1116
  463POPC   C1A 5549   1.174  11.404  18.245  0.1134  0.0433 -0.2190
  463POPC   D2A 5550   1.187  11.275  17.843 -0.2594 -0.3578  0.1090
  463POPC   C3A 5551   1.259  11.468  17.493 -0.0173 -0.0612 -0.1464
  463POPC   C4A 5552   1.130  11.664  17.081 -0.4042  0.0977 -0.0962
  463POPC   C1B 5553   1.413  10.565  18.685 -0.0191 -0.0909  0.6210
  463POPC   C2B 5554   1.598  10.393  18.274 -0.1229  0.5450  0.2130
  463POPC   C3B 5555   1.969  10.282  18.056 -0.0698 -0.0893 -0.0071
  463POPC   C4B 5556   2.257  10.082  17.751 -0.2449  0.0145  0.0162
  464POPC   NC3 5557  13.704  20.839  19.048  0.1460 -0.4213  0.0999
  464POPC   PO4 5558  13.921  21.125  19.214 -0.0398  0.2081 -0.1792
  464POPC   GL1 5559  14.151  21.061  18.913 -0.1525  0.0226 -0.1504
  464POPC   GL2 5560  14.189  20.735  18.965  0.2087  0.2652 -0.3284
  464POPC   C1A 5561  14.157  21.213  18.426 -0.2781 -0.0452  0.2412
  464POPC   D2A 5562  14.249  21.413  17.995 -0.2692 -0.1835 -0.0017
  464POPC   C3A 5563  14.393  21.537  17.577 -0.0453 -0.0784 -0.1628
  464POPC   C4A 5564  14.167  21.795  17.286 -0.3848 -0.1490  0.0497
  464POPC   C1B 5565  13.948  20.728  18.581  0.0115 -0.3648 -0.4768
  464POPC   C2B 5566  13.773  20.977  18.251 -0.1760 -0.4231  0.1542
  464POPC   C3B 5567  13.489  21.143  17.940 -0.1702 -0.2869  0.0143
  464POPC   C4B 5568  13.399  21.219  17.495  0.1084  0.0214  0.0325
  465POPC   NC3 5569   3.091  23.101  19.122 -0.0850  0.2246  0.1306
  465POPC   PO4 5570   3.139  22.705  19.184  0.1662 -0.3120 -0.4278
  465POPC   GL1 5571   3.256  22.530  18.808  0.2684  0.1622  0.0274
  465POPC   GL2 5572   3.026  22.654  18.715  0.3608  0.1646 -0.4066
  465POPC   C1A 5573   3.281  22.124  18.614 -0.1088  0.0857  0.2049
  465POPC   D2A 5574   3.523  21.927  18.266  0.0114 -0.4079 -0.0680
  465POPC   C3A 5575   3.292  21.743  17.918 -0.1104  0.3190  0.0431
  465POPC   C4A 5576   3.096  21.565  17.549 -0.1940  0.0129 -0.3408
  465POPC   C1B 5577   2.781  22.946  18.370  0.0722 -0.0820 -0.2192
  465POPC   C2B 5578   2.615  22.854  17.953  0.4581  0.0101  0.0273
  465POPC   C3B 5579   2.519  23.008  17.542 -0.2053 -0.1317  0.0353
  465POPC   C4B 5580   2.596  23.341  17.257 -0.0084 -0.1408  0.0387
  466POPC   NC3 5581   8.445  14.953  19.356  0.0130  0.1745  0.0732
  466POPC   PO4 5582   8.152  14.893  19.607  0.2014 -0.3934  0.0964
  466POPC   GL1 5583   7.977  14.997  19.224  0.0825  0.4835  0.6654
  466POPC   GL2 5584   8.105  15.127  18.963  0.1479 -0.2907 -0.1056
  466POPC   C1A 5585   7.493  15.044  19.198  0.1152 -0.2713 -0.0393
  466POPC   D2A 5586   7.108  15.216  19.401  0.0080 -0.0273  0.2957
  466POPC   C3A 5587   6.852  15.365  19.060 -0.3511 -0.1060 -0.2608
  466POPC   C4A 5588   6.610  15.698  18.816 -0.1241  0.0471 -0.2107
  466POPC   C1B 5589   7.718  15.220  18.805 -0.1287  0.1442  0.2367
  466POPC   C2B 5590   7.284  15.385  18.738  0.1877 -0.2333 -0.2964
  466POPC   C3B 5591   6.978  15.615  18.488  0.0008  0.0077  0.3075
  466POPC   C4B 5592   6.673  15.921  18.344  0.0305 -0.2382  0.2600
  467POPC   NC3 5593   7.304  11.997  19.184  0.2197  0.2195 -0.3736
  467POPC   PO4 5594   6.952  12.054  19.302  0.1164  0.2398 -0.1687
  467POPC   GL1 5595   6.800  12.000  19.008  0.1589  0.0460 -0.1536
  467POPC   GL2 5596   6.966  12.237  18.828  0.3184 -0.0038  0.2215
  467POPC   C1A 5597   6.454  12.138  18.798  0.1863  0.2765  0.0441
  467POPC   D2A 5598   6.343  11.981  18.399  0.3288  0.0469 -0.0128
  467POPC   C3A 5599   6.582  12.185  18.082  0.1162  0.3345 -0.1134
  467POPC   C4A 5600   6.476  12.380  17.635  0.2719 -0.2445 -0.0071
  467POPC   C1B 5601   7.012  12.079  18.457 -0.0740 -0.1578 -0.2627
  467POPC   C2B 5602   7.105  12.181  17.979 -0.0106 -0.0889 -0.0249
  467POPC   C3B 5603   7.159  12.258  17.545  0.0580  0.0319 -0.0418
  467POPC   C4B 5604   7.212  12.349  17.153  0.4404 -0.1301  0.2196
  468POPC   NC3 5605  13.252   5.516  19.084 -0.0570  0.0030 -0.0502
  468POPC   PO4 5606  12.967   5.284  19.222  0.1688  0.0429  0.1087
  468POPC   GL1 5607  13.158   5.069  18.948  0.1141  0.3868 -0.3005
  468POPC   GL2 5608  13.444   5.050  19.087 -0.2930  0.1030  0.0798
  468POPC   C1A 5609  13.407   5.181  18.565 -0.0530  0.3334  0.0820
  468POPC   D2A 5610  13.352   5.504  18.211 -0.1345 -0.3422 -0.1958
  468POPC   C3A 5611  13.340   5.970  18.218  0.0614  0.0050 -0.0029
  468POPC   C4A 5612  13.291   6.404  18.412 -0.0900 -0.2202  0.3962
  468POPC   C1B 5613  13.755   5.401  19.019  0.0627 -0.1930  0.3823
  468POPC   C2B 5614  13.973   5.775  18.921  0.0001 -0.2123 -0.1432
  468POPC   C3B 5615  14.406   5.888  19.091  0.4803  0.0467  0.1596
  468POPC   C4B 5616  14.665   6.081  19.390 -0.0406  0.1499 -0.0037
  469POPC   NC3 5617  10.939  19.224  19.898 -0.0145 -0.1103 -0.4214
  469POPC   PO4 5618  10.929  19.513  19.647  0.0542 -0.1535 -0.1402
  469POPC   GL1 5619  10.811  19.335  19.345  0.3012  0.1317  0.2091
  469POPC   GL2 5620  10.902  19.150  19.143 -0.0845  0.4110 -0.5169
  469POPC   C1A 5621  10.622  19.597  18.991  0.1999 -0.0127 -0.3315
  469POPC   D2A 5622  10.730  19.616  18.599  0.3192 -0.1416 -0.0471
  469POPC   C3A 5623  10.666  19.913  18.211 -0.0263  0.2355 -0.2866
  469POPC   C4A 5624  10.419  19.847  17.869 -0.0027 -0.0126  0.0933
  469POPC   C1B 5625  10.811  19.160  18.732 -0.0776 -0.3993  0.0224
  469POPC   C2B 5626  10.576  19.150  18.357 -0.2292  0.2653 -0.0495
  469POPC   C3B 5627  10.209  18.902  18.099 -0.1683  0.1708  0.2650
  469POPC   C4B 5628  10.143  18.958  17.611 -0.0298 -0.2135 -0.0401
  470POPC   NC3 5629   2.678   7.829  19.444 -0.1642  0.5419 -0.0654
  470POPC   PO4 5630   2.669   7.440  19.512 -0.0979  0.2448  0.0647
  470POPC   GL1 5631   2.577   7.331  19.217 -0.2068  0.0939 -0.1713
  470POPC   GL2 5632   2.671   7.512  19.019  0.1187  0.0530 -0.1145
  470POPC   C1A 5633   2.247   7.072  18.938  0.2642 -0.0945 -0.2086
  470POPC   D2A 5634   1.950   6.952  18.618  0.0286 -0.2353 -0.1746
  470POPC   C3A 5635   1.975   7.087  18.149  0.1228 -0.1045  0.0037
  470POPC   C4A 5636   1.605   7.273  18.008  0.1470 -0.3230 -0.1370
  470POPC   C1B 5637   2.406   7.534  18.670 -0.1572 -0.2295 -0.1014
  470POPC   C2B 5638   2.233   7.896  18.432 -0.2316  0.0744 -0.0790
  470POPC   C3B 5639   2.297   8.259  18.165  0.0479  0.0012 -0.1686
  470POPC   C4B 5640   2.300   8.369  17.698 -0.0532  0.4407  0.2689
  471POPC   NC3 5641   1.991  20.238  19.366 -0.0494  0.2854 -0.1669
  471POPC   PO4 5642   2.112  19.849  19.455 -0.2582  0.0745 -0.2428
  471POPC   GL1 5643   1.992  19.694  19.041  0.0577  0.1640  0.0113
  471POPC   GL2 5644   2.106  19.932  18.928  0.1020  0.0075  0.0090
  471POPC   C1A 5645   2.107  19.541  18.619  0.0459  0.3855  0.1603
  471POPC   D2A 5646   2.061  19.759  18.188 -0.1107  0.2711 -0.0772
  471POPC   C3A 5647   2.117  19.632  17.763  0.1328 -0.0907  0.1135
  471POPC   C4A 5648   2.198  19.333  17.372  0.0055 -0.2395  0.2319
  471POPC   C1B 5649   2.010  20.273  18.599  0.3218  0.0998  0.1570
  471POPC   C2B 5650   1.856  20.206  18.172  0.0504  0.1941 -0.0527
  471POPC   C3B 5651   1.812  20.059  17.702  0.2205  0.1693 -0.1611
  471POPC   C4B 5652   1.721  20.131  17.231 -0.0902 -0.5147  0.0143
  472POPC   NC3 5653   6.276  29.809  19.160 -0.0799  0.1609  0.0526
  472POPC   PO4 5654   6.389  29.573  19.436 -0.1294  0.1846  0.1796
  472POPC   GL1 5655   6.687  29.335  19.199  0.2377 -0.3224  0.0072
  472POPC   GL2 5656   6.502  29.378  18.959 -0.0225  0.3201 -0.1030
  472POPC   C1A 5657   7.078  29.246  19.016 -0.2811 -0.0491  0.3765
  472POPC   D2A 5658   7.136  29.097  18.587  0.1101 -0.1001 -0.1701
  472POPC   C3A 5659   7.042  28.991  18.151  0.0513  0.0507 -0.3238
  472POPC   C4A 5660   6.966  29.245  17.773 -0.1015 -0.1869  0.1237
  472POPC   C1B 5661   6.798  29.484  18.650 -0.0659  0.3416  0.0714
  472POPC   C2B 5662   6.912  29.548  18.192 -0.0066  0.1700  0.1542
  472POPC   C3B 5663   7.014  29.807  17.776 -0.1617  0.1113 -0.2054
  472POPC   C4B 5664   7.048  30.022  17.339 -0.0187  0.1242 -0.4713
  473POPC   NC3 5665   0.453   4.701  19.694 -0.0208  0.1278 -0.0596
  473POPC   PO4 5666   0.530   4.922  20.008 -0.1095  0.2387 -0.0839
  473POPC   GL1 5667   0.509   5.128  19.715  0.3379 -0.3769  0.1497
  473POPC   GL2 5668   0.768   5.056  19.548 -0.2397  0.2801  0.2008
  473POPC   C1A 5669   0.263   5.030  19.301 -0.0612 -0.0973  0.3141
  473POPC   D2A 5670  -0.059   4.849  18.994 -0.0675 -0.1143  0.0046
  473POPC   C3A 5671  -0.019   5.066  18.574  0.0518 -0.4035 -0.0513
  473POPC   C4A 5672  -0.107   5.489  18.391  0.0449  0.1573  0.0215
  473POPC   C1B 5673   0.690   5.344  19.201  0.1752  0.1356 -0.0019
  473POPC   C2B 5674   0.517   5.594  18.880  0.1709  0.2372  0.0343
  473POPC   C3B 5675   0.361   5.724  18.473  0.0332 -0.0436 -0.0493
  473POPC   C4B 5676   0.267   5.896  17.999  0.0719  0.1904 -0.0689
  474POPC   NC3 5677   4.183   5.365  19.124 -0.1470 -0.2602  0.1197
  474POPC   PO4 5678   4.517   5.565  19.025 -0.0083 -0.0040  0.1008
  474POPC   GL1 5679   4.596   5.505  18.648  0.0590 -0.2146 -0.3097
  474POPC   GL2 5680   4.556   5.218  18.647 -0.1240  0.2331  0.0576
  474POPC   C1A 5681   4.574   5.667  18.183  0.0827 -0.2017 -0.3702
  474POPC   D2A 5682   4.953   5.568  17.985 -0.1211  0.4625  0.0263
  474POPC   C3A 5683   4.995   5.686  17.560  0.2867 -0.1911  0.2843
  474POPC   C4A 5684   4.884   6.080  17.342  0.0978  0.0432 -0.0351
  474POPC   C1B 5685   4.378   5.192  18.231 -0.0652  0.1425  0.0226
  474POPC   C2B 5686   4.449   5.436  17.818  0.0805  0.4576  0.0883
  474POPC   C3B 5687   4.576   5.352  17.348  0.0618 -0.1143 -0.0146
  474POPC   C4B 5688   4.988   5.356  17.138  0.1453 -0.0365 -0.2804
  475POPC   NC3 5689  13.804  12.492  19.240  0.1690 -0.1196  0.1983
  475POPC   PO4 5690  13.957  12.893  19.232 -0.2036 -0.1981 -0.0871
  475POPC   GL1 5691  13.891  12.798  18.853  0.0267 -0.4339 -0.1092
  475POPC   GL2 5692  13.616  12.833  18.808 -0.3202 -0.1578  0.2135
  475POPC   C1A 5693  14.025  12.456  18.566  0.0510 -0.2904 -0.3227
  475POPC   D2A 5694  14.310  12.211  18.428 -0.0795  0.1728  0.0491
  475POPC   C3A 5695  14.294  11.841  18.159 -0.0407 -0.3791 -0.1003
  475POPC   C4A 5696  14.396  11.641  17.771 -0.0033  0.0369  0.2950
  475POPC   C1B 5697  13.360  12.942  18.466  0.1365 -0.1144 -0.0373
  475POPC   C2B 5698  13.529  12.985  18.044  0.1863 -0.6093 -0.0284
  475POPC   C3B 5699  13.500  12.876  17.582 -0.0822 -0.2307  0.1089
  475POPC   C4B 5700  13.561  12.539  17.255  0.0433 -0.3052 -0.4007
  476POPC   NC3 5701   2.183  15.945  19.135 -0.0738 -0.1728  0.0118
  476POPC   PO4 5702   2.123  15.572  19.076  0.0016  0.2584 -0.1331
  476POPC   GL1 5703   2.295  15.703  18.698 -0.2236 -0.2632 -0.1123
  476POPC   GL2 5704   2.405  15.485  18.703  0.0718  0.0953  0.3822
  476POPC   C1A 5705   2.061  15.873  18.267 -0.2197 -0.1763  0.1755
  476POPC   D2A 5706   2.132  16.319  18.106  0.2298  0.1539 -0.0145
  476POPC   C3A 5707   1.799  16.108  17.795 -0.3270  0.0848 -0.3463
  476POPC   C4A 5708   1.715  15.669  17.850 -0.1155  0.0300  0.0871
  476POPC   C1B 5709   2.449  15.535  18.251  0.2287  0.1793 -0.0212
  476POPC   C2B 5710   2.594  15.665  17.929  0.1866 -0.0583  0.1819
  476POPC   C3B 5711   2.795  15.565  17.558  0.0742 -0.2268  0.2380
  476POPC   C4B 5712   2.693  15.498  17.119  0.1278  0.0599 -0.1578
  477POPC   NC3 5713  13.232   3.690  19.788  0.1121  0.0222  0.0320
  477POPC   PO4 5714  13.060   3.575  19.473 -0.2112 -0.0107 -0.2120
  477POPC   GL1 5715  12.969   3.569  19.079  0.1329  0.3453 -0.1140
  477POPC   GL2 5716  12.813   3.299  19.056  0.0143  0.0473  0.1007
  477POPC   C1A 5717  13.081   3.292  18.659 -0.0924 -0.2779  0.1520
  477POPC   D2A 5718  13.020   2.962  18.308 -0.1302  0.0806  0.1366
  477POPC   C3A 5719  12.867   2.933  17.871 -0.2811 -0.0824  0.1917
  477POPC   C4A 5720  12.730   2.582  17.653 -0.2247  0.1882  0.0305
  477POPC   C1B 5721  12.680   3.510  18.653  0.1218 -0.0029 -0.2016
  477POPC   C2B 5722  12.901   3.608  18.293 -0.0075  0.2149  0.0015
  477POPC   C3B 5723  12.838   3.572  17.836 -0.0053  0.0818  0.0201
  477POPC   C4B 5724  13.135   3.355  17.608 -0.2687 -0.0682 -0.1933
  478POPC   NC3 5725   4.126  29.679  19.181  0.2205  0.4043  0.1829
  478POPC   PO4 5726   3.772  29.540  19.264 -0.4211 -0.0701  0.1662
  478POPC   GL1 5727   3.780  29.640  18.847  0.3234 -0.0584 -0.0313
  478POPC   GL2 5728   3.871  29.359  18.713 -0.3560  0.1156 -0.0971
  478POPC   C1A 5729   3.446  29.654  18.524  0.3172  0.1623 -0.1170
  478POPC   D2A 5730   3.142  29.696  18.159 -0.0842  0.0970  0.3927
  478POPC   C3A 5731   3.280  29.767  17.736 -0.0179  0.2027  0.2313
  478POPC   C4A 5732   3.239  29.877  17.339 -0.2441  0.1770 -0.0693
  478POPC   C1B 5733   3.906  29.621  18.325  0.3054 -0.3331  0.0121
  478POPC   C2B 5734   3.642  29.527  17.919  0.0065  0.2738 -0.0843
  478POPC   C3B 5735   3.429  29.146  17.796  0.0677  0.1583 -0.0302
  478POPC   C4B 5736   3.362  28.709  18.022 -0.3834 -0.0819  0.1078
  479POPC   NC3 5737   3.696   4.271  19.050  0.0774  0.0945  0.2580
  479POPC   PO4 5738   3.310   4.290  19.099  0.1229  0.0814  0.1315
  479POPC   GL1 5739   3.219   4.293  18.735  0.1800 -0.2040  0.3121
  479POPC   GL2 5740   3.427   4.408  18.595  0.0100 -0.2407 -0.0037
  479POPC   C1A 5741   2.923   4.326  18.329 -0.0277  0.2431 -0.0320
  479POPC   D2A 5742   2.635   4.473  17.975 -0.0232 -0.1551  0.1247
  479POPC   C3A 5743   2.777   4.651  17.568 -0.3279  0.1508 -0.1698
  479POPC   C4A 5744   2.819   5.055  17.319  0.0815  0.0952 -0.1534
  479POPC   C1B 5745   3.562   4.685  18.299  0.2933  0.0166  0.0020
  479POPC   C2B 5746   3.713   4.725  17.863  0.1277  0.0691 -0.1203
  479POPC   C3B 5747   3.757   5.038  17.588  0.2256  0.1032 -0.1520
  479POPC   C4B 5748   3.731   5.185  17.138  0.3326  0.2163  0.0543
  480POPC   NC3 5749   4.187   8.486  19.502 -0.4515 -0.0731 -0.0557
  480POPC   PO4 5750   3.980   8.797  19.412 -0.0158 -0.2499  0.1872
  480POPC   GL1 5751   4.188   8.877  19.001  0.1998  0.4291  0.0549
  480POPC   GL2 5752   4.050   9.093  18.868  0.1270 -0.2162  0.1713
  480POPC   C1A 5753   4.399   8.777  18.587 -0.0147  0.4826  0.1104
  480POPC   D2A 5754   4.418   8.684  18.101  0.2767 -0.2258  0.2060
  480POPC   C3A 5755   4.611   8.969  17.749  0.0210  0.0272  0.2277
  480POPC   C4A 5756   4.399   9.125  17.348 -0.1572 -0.0100 -0.1519
  480POPC   C1B 5757   4.024   8.960  18.398 -0.0484  0.0737  0.1510
  480POPC   C2B 5758   3.822   8.946  18.009 -0.2041  0.2297 -0.1132
  480POPC   C3B 5759   3.628   8.584  17.892  0.2575  0.1294  0.2160
  480POPC   C4B 5760   3.304   8.382  17.628 -0.1058 -0.2284  0.1211
  481POPC   NC3 5761   0.722  19.959  19.407 -0.4136 -0.1229 -0.0970
  481POPC   PO4 5762   0.583  19.781  19.096  0.1007  0.0024 -0.1398
  481POPC   GL1 5763   0.776  19.873  18.776  0.2987  0.0863  0.0571
  481POPC   GL2 5764   0.683  19.741  18.568  0.0089  0.2716  0.0597
  481POPC   C1A 5765   1.170  19.850  18.512 -0.2122  0.1095  0.2506
  481POPC   D2A 5766   1.369  19.953  18.125  0.0234 -0.2241  0.0975
  481POPC   C3A 5767   1.325  19.756  17.748 -0.0124  0.0365 -0.1832
  481POPC   C4A 5768   1.212  19.697  17.314  0.1514  0.2178 -0.0545
  481POPC   C1B 5769   0.748  19.996  18.206 -0.1708 -0.2558  0.2850
  481POPC   C2B 5770   0.852  20.297  17.841  0.4866  0.1314 -0.1956
  481POPC   C3B 5771   0.974  20.660  17.563  0.0401  0.6005  0.2728
  481POPC   C4B 5772   1.288  20.859  17.305 -0.0614 -0.0011  0.1187
  482POPC   NC3 5773   0.530  22.725  19.290 -0.1073 -0.1498 -0.2126
  482POPC   PO4 5774   0.710  22.412  19.540  0.0046 -0.2554 -0.0788
  482POPC   GL1 5775   0.955  22.470  19.138  0.2617  0.4195 -0.2226
  482POPC   GL2 5776   0.854  22.236  19.000  0.1992  0.0112  0.2060
  482POPC   C1A 5777   1.075  22.618  18.721 -0.0116 -0.0326  0.0016
  482POPC   D2A 5778   1.079  23.004  18.468 -0.2251 -0.0505 -0.0814
  482POPC   C3A 5779   1.055  22.947  17.978 -0.0230  0.2070  0.0641
  482POPC   C4A 5780   1.040  23.129  17.573  0.0364  0.2650 -0.2513
  482POPC   C1B 5781   0.878  22.130  18.563  0.0675 -0.1805 -0.2748
  482POPC   C2B 5782   0.641  21.979  18.186 -0.0348  0.0624 -0.0001
  482POPC   C3B 5783   0.296  22.009  17.854 -0.0335  0.0377 -0.1681
  482POPC   C4B 5784  -0.012  21.968  17.516  0.0223  0.1026 -0.0656
  483POPC   NC3 5785  14.216   0.496  19.301 -0.0170  0.1850 -0.0239
  483POPC   PO4 5786  14.431   0.153  19.249 -0.3363  0.0986  0.2010
  483POPC   GL1 5787  14.456   0.104  18.899  0.4752  0.1792 -0.1025
  483POPC   GL2 5788  14.266   0.256  18.771  0.1118  0.1839  0.2552
  483POPC   C1A 5789  14.353  -0.144  18.484  0.0500 -0.2014  0.1120
  483POPC   D2A 5790  14.509  -0.114  18.029 -0.0316 -0.1737 -0.2425
  483POPC   C3A 5791  14.893   0.068  17.852  0.2070 -0.0147  0.0677
  483POPC   C4A 5792  15.226   0.328  17.708 -0.2164 -0.1627 -0.0927
  483POPC   C1B 5793  14.154   0.375  18.252  0.3749  0.1438 -0.2603
  483POPC   C2B 5794  14.252   0.366  17.778  0.1006 -0.1797 -0.0097
  483POPC   C3B 5795  14.484   0.134  17.467  0.0278  0.4174 -0.0510
  483POPC   C4B 5796  14.599  -0.282  17.511  0.0259 -0.2827 -0.1705
  484POPC   NC3 5797   8.621  10.757  19.175 -0.1889  0.1236  0.0687
  484POPC   PO4 5798   8.284  10.613  19.074 -0.2166  0.3620 -0.0041
  484POPC   GL1 5799   8.411  10.597  18.677 -0.0623 -0.0882  0.2179
  484POPC   GL2 5800   8.606  10.860  18.701 -0.2083 -0.0889  0.0692
  484POPC   C1A 5801   8.659  10.572  18.298  0.3664  0.0526  0.3446
  484POPC   D2A 5802   8.783  10.361  17.885 -0.0459 -0.1871 -0.0068
  484POPC   C3A 5803   9.093  10.703  17.724 -0.2360  0.0931 -0.0814
  484POPC   C4A 5804   8.978  11.031  17.480  0.0730  0.0776 -0.0499
  484POPC   C1B 5805   8.877  11.047  18.388  0.1715 -0.3477  0.1148
  484POPC   C2B 5806   9.290  10.936  18.168 -0.0062  0.3753  0.0639
  484POPC   C3B 5807   9.553  10.590  17.943  0.2008 -0.0919  0.1842
  484POPC   C4B 5808   9.790  10.656  17.562  0.2685 -0.0843  0.1181
  485POPC   NC3 5809  14.815  15.568  19.955  0.0993 -0.3949  0.1001
  485POPC   PO4 5810  14.557  15.596  19.629  0.0161  0.2178  0.2161
  485POPC   GL1 5811  14.630  15.864  19.395 -0.0640 -0.1020 -0.1181
  485POPC   GL2 5812  14.860  15.700  19.258 -0.3559  0.1205 -0.2173
  485POPC   C1A 5813  14.916  16.236  19.344 -0.1634 -0.0389  0.0562
  485POPC   D2A 5814  15.123  16.624  19.214 -0.3028  0.1723  0.0429
  485POPC   C3A 5815  15.370  16.697  18.831 -0.3272 -0.1364 -0.1018
  485POPC   C4A 5816  15.706  16.819  18.557 -0.2677  0.0454 -0.0342
  485POPC   C1B 5817  14.636  15.999  18.960 -0.1435 -0.1295  0.2175
  485POPC   C2B 5818  14.650  16.137  18.492 -0.0647  0.0267 -0.2054
  485POPC   C3B 5819  14.486  16.416  18.118  0.0976  0.0620  0.0222
  485POPC   C4B 5820  14.589  16.644  17.710 -0.2082 -0.0348  0.0020
  486POPC   NC3 5821   2.961  18.629  18.982 -0.0823  0.1204 -0.2641
  486POPC   PO4 5822   2.796  18.275  19.100 -0.0627  0.1203 -0.4167
  486POPC   GL1 5823   2.708  18.267  18.685  0.1205  0.0986 -0.4703
  486POPC   GL2 5824   3.033  18.222  18.660  0.1342  0.2595  0.2478
  486POPC   C1A 5825   2.441  18.206  18.304  0.1427 -0.0333 -0.3739
  486POPC   D2A 5826   2.426  18.118  17.869  0.0040 -0.1324  0.3103
  486POPC   C3A 5827   2.374  18.237  17.412  0.6930 -0.0647 -0.0024
  486POPC   C4A 5828   2.233  18.063  17.010 -0.1020 -0.2905  0.0448
  486POPC   C1B 5829   2.942  18.138  18.189 -0.0763 -0.1821 -0.1684
  486POPC   C2B 5830   3.095  17.854  17.830  0.1399 -0.2825 -0.1118
  486POPC   C3B 5831   3.289  17.720  17.440 -0.1517 -0.2688 -0.0061
  486POPC   C4B 5832   3.116  17.501  17.059  0.0315  0.2178  0.1398
  487POPC   NC3 5833  12.839   9.928  19.245  0.0154  0.1166 -0.0500
  487POPC   PO4 5834  13.231   9.855  19.403  0.1877  0.0854 -0.1705
  487POPC   GL1 5835  13.336   9.942  19.040  0.1947  0.1426  0.1695
  487POPC   GL2 5836  13.115   9.777  18.874 -0.1225  0.1852  0.2099
  487POPC   C1A 5837  13.587   9.686  18.713  0.0754  0.1485 -0.0532
  487POPC   D2A 5838  13.553   9.311  18.461 -0.0827 -0.0925 -0.2582
  487POPC   C3A 5839  13.684   9.307  18.025  0.0555 -0.2801  0.2279
  487POPC   C4A 5840  13.491   9.176  17.596 -0.1615  0.2876 -0.2610
  487POPC   C1B 5841  13.139   9.546  18.484  0.0176 -0.0976  0.0651
  487POPC   C2B 5842  13.142   9.449  18.041 -0.0515 -0.1246  0.0859
  487POPC   C3B 5843  12.835   9.214  17.805  0.0677 -0.0389 -0.1128
  487POPC   C4B 5844  12.664   9.201  17.396 -0.0605  0.2243  0.1885
  488POPC   NC3 5845   6.913  29.768  19.799  0.0036 -0.0129  0.0256
  488POPC   PO4 5846   7.086  29.831  19.426 -0.0765 -0.1145 -0.0868
  488POPC   GL1 5847   7.286  30.019  19.065  0.1814  0.3229  0.4007
  488POPC   GL2 5848   7.327  29.740  18.979 -0.0991 -0.0244 -0.0208
  488POPC   C1A 5849   7.508  30.147  18.658 -0.1539 -0.0817  0.2118
  488POPC   D2A 5850   7.654  30.157  18.224 -0.0891  0.0460 -0.3282
  488POPC   C3A 5851   7.478  30.162  17.776 -0.1191 -0.0923 -0.1073
  488POPC   C4A 5852   7.453  30.329  17.335  0.3310 -0.1630 -0.0894
  488POPC   C1B 5853   7.330  29.537  18.573  0.0534 -0.2041  0.1644
  488POPC   C2B 5854   7.371  29.440  18.117 -0.2389  0.3093  0.1426
  488POPC   C3B 5855   7.452  29.481  17.657 -0.0468 -0.1156 -0.0286
  488POPC   C4B 5856   7.518  29.817  17.355 -0.0890  0.2811  0.0615
  489POPC   NC3 5857  13.009  18.077  19.481 -0.4168 -0.0928 -0.0977
  489POPC   PO4 5858  13.183  17.904  19.196 -0.3416  0.0592  0.2332
  489POPC   GL1 5859  13.145  17.895  18.753  0.2544  0.0390 -0.0299
  489POPC   GL2 5860  13.434  18.041  18.790  0.0560  0.0164 -0.0352
  489POPC   C1A 5861  12.991  18.231  18.498  0.0626 -0.1015  0.2390
  489POPC   D2A 5862  12.926  18.543  18.144  0.2363  0.3748 -0.2005
  489POPC   C3A 5863  12.941  18.691  17.687  0.0965 -0.1712 -0.4301
  489POPC   C4A 5864  12.832  18.943  17.392 -0.0708  0.0999  0.1565
  489POPC   C1B 5865  13.524  18.311  18.446 -0.0084 -0.2393 -0.0776
  489POPC   C2B 5866  13.385  18.374  18.050  0.0412 -0.2876 -0.3744
  489POPC   C3B 5867  13.504  18.318  17.598 -0.0898 -0.1369  0.0342
  489POPC   C4B 5868  13.466  18.072  17.208 -0.0167 -0.1345 -0.2149
  490POPC   NC3 5869   1.947  21.184  19.034  0.0287  0.0143 -0.0065
  490POPC   PO4 5870   2.121  21.500  19.020 -0.0135  0.2588 -0.0223
  490POPC   GL1 5871   2.210  21.517  18.618  0.0265 -0.0443  0.1664
  490POPC   GL2 5872   2.407  21.730  18.586 -0.1067 -0.0216  0.0959
  490POPC   C1A 5873   2.164  21.576  18.178 -0.2879  0.2398 -0.1522
  490POPC   D2A 5874   2.110  21.438  17.710  0.0514 -0.0433 -0.1766
  490POPC   C3A 5875   1.765  21.682  17.523 -0.0740  0.0048  0.1860
  490POPC   C4A 5876   1.527  21.654  17.140 -0.1525  0.1344 -0.0556
  490POPC   C1B 5877   2.600  21.433  18.343 -0.0815  0.0581 -0.2027
  490POPC   C2B 5878   2.489  21.182  17.980 -0.1317 -0.0432 -0.0668
  490POPC   C3B 5879   2.335  20.928  17.643  0.0815 -0.0343  0.0680
  490POPC   C4B 5880   2.634  20.619  17.517  0.0508  0.1199  0.3072
  491POPC   NC3 5881  12.182  27.825  19.658  0.1790  0.2919 -0.1525
  491POPC   PO4 5882  12.474  27.670  19.440 -0.0042 -0.5997 -0.1289
  491POPC   GL1 5883  12.406  27.543  19.051 -0.1681  0.0115  0.0713
  491POPC   GL2 5884  12.109  27.453  19.088  0.0373 -0.0395 -0.1532
  491POPC   C1A 5885  12.275  27.806  18.719 -0.1757 -0.2528  0.1598
  491POPC   D2A 5886  12.281  28.223  18.418 -0.1525 -0.0890 -0.1007
  491POPC   C3A 5887  12.052  28.368  17.999  0.1536  0.1255 -0.2761
  491POPC   C4A 5888  11.966  28.525  17.598 -0.2360  0.0303  0.0068
  491POPC   C1B 5889  11.883  27.197  18.857  0.0391  0.3148  0.1630
  491POPC   C2B 5890  11.792  27.228  18.434  0.1193  0.3267 -0.0967
  491POPC   C3B 5891  11.707  27.367  17.986  0.1201  0.3201  0.0212
  491POPC   C4B 5892  11.622  27.517  17.575  0.0233 -0.1040 -0.1713
  492POPC   NC3 5893   4.452   6.032  19.120 -0.1603 -0.0937  0.2666
  492POPC   PO4 5894   4.771   5.947  19.343 -0.0328 -0.2882  0.3438
  492POPC   GL1 5895   4.860   5.914  18.928 -0.1085 -0.0253 -0.2466
  492POPC   GL2 5896   5.172   6.027  18.995  0.1056 -0.1817 -0.0109
  492POPC   C1A 5897   5.029   5.846  18.485 -0.5209  0.4823  0.1582
  492POPC   D2A 5898   5.383   5.638  18.269 -0.0042  0.0497  0.0374
  492POPC   C3A 5899   5.371   5.738  17.799  0.2668 -0.0220  0.1814
  492POPC   C4A 5900   5.410   5.428  17.475 -0.1394 -0.0810  0.0532
  492POPC   C1B 5901   4.959   6.340  18.708  0.1220 -0.0397 -0.4624
  492POPC   C2B 5902   4.803   6.754  18.519  0.2786 -0.1223 -0.3745
  492POPC   C3B 5903   4.766   7.109  18.308  0.1042 -0.2052  0.0117
  492POPC   C4B 5904   4.870   7.484  18.044 -0.0199  0.0264  0.0049
  493POPC   NC3 5905   1.814  13.981  19.100 -0.1237 -0.1928  0.0623
  493POPC   PO4 5906   1.528  14.261  19.011  0.2987 -0.2606  0.2088
  493POPC   GL1 5907   1.520  14.481  18.671 -0.2786  0.0282 -0.2566
  493POPC   GL2 5908   1.501  14.766  18.631 -0.0333 -0.4111  0.1338
  493POPC   C1A 5909   1.372  14.517  18.217  0.3901 -0.1192 -0.0874
  493POPC   D2A 5910   1.365  14.626  17.731  0.1756 -0.1023  0.0157
  493POPC   C3A 5911   1.414  14.871  17.354  0.0140  0.1051 -0.1182
  493POPC   C4A 5912   1.219  15.119  17.089  0.0560  0.1853 -0.1901
  493POPC   C1B 5913   1.705  14.980  18.238  0.1537 -0.3900  0.1169
  493POPC   C2B 5914   1.561  15.217  17.870  0.1313  0.2184  0.0647
  493POPC   C3B 5915   1.366  15.421  17.499 -0.1938 -0.2145  0.0652
  493POPC   C4B 5916   1.574  15.551  17.127 -0.3881 -0.0007  0.1636
  494POPC   NC3 5917   2.351  12.263  19.616  0.0754 -0.0137 -0.2250
  494POPC   PO4 5918   2.194  12.437  19.313 -0.0191 -0.0804  0.1171
  494POPC   GL1 5919   2.175  12.614  19.006 -0.4216  0.4550  0.1332
  494POPC   GL2 5920   2.047  12.704  18.772  0.0478 -0.0266  0.1568
  494POPC   C1A 5921   2.374  12.323  18.644  0.1303 -0.3215 -0.0485
  494POPC   D2A 5922   2.440  12.195  18.199  0.0473 -0.0994 -0.1340
  494POPC   C3A 5923   2.367  12.181  17.771  0.1689 -0.2572 -0.0373
  494POPC   C4A 5924   2.114  12.193  17.400 -0.0197  0.2493 -0.0129
  494POPC   C1B 5925   2.235  12.807  18.337 -0.4300  0.2443 -0.0824
  494POPC   C2B 5926   2.470  12.940  17.966  0.0710  0.2365 -0.1049
  494POPC   C3B 5927   2.623  13.119  17.565  0.0864  0.1866 -0.1605
  494POPC   C4B 5928   2.750  13.566  17.517 -0.0251 -0.3485  0.0587
  495POPC   NC3 5929   6.774   8.040  18.942 -0.0522  0.2513 -0.0722
  495POPC   PO4 5930   6.585   8.347  18.979  0.0002  0.0588 -0.3359
  495POPC   GL1 5931   6.419   8.133  18.573  0.1149 -0.1380 -0.5031
  495POPC   GL2 5932   6.649   8.206  18.424  0.0206  0.2976  0.2379
  495POPC   C1A 5933   6.118   8.006  18.274  0.0543  0.0988 -0.1492
  495POPC   D2A 5934   5.708   7.815  18.303  0.2971 -0.2002  0.0847
  495POPC   C3A 5935   5.590   7.412  18.203 -0.1355 -0.2612  0.1999
  495POPC   C4A 5936   5.691   6.992  18.265 -0.3207 -0.4002  0.1331
  495POPC   C1B 5937   7.059   8.249  18.202 -0.0394  0.0945 -0.0599
  495POPC   C2B 5938   7.412   8.007  17.942  0.0901 -0.0590 -0.0944
  495POPC   C3B 5939   7.644   8.076  17.562  0.3803 -0.1500 -0.1500
  495POPC   C4B 5940   7.969   8.044  17.211  0.1874  0.3147  0.1786
  496POPC   NC3 5941   5.877  10.211  19.172 -0.0089  0.1438  0.2558
  496POPC   PO4 5942   5.713  10.494  19.437 -0.1740  0.0722 -0.1050
  496POPC   GL1 5943   5.668  10.649  19.056 -0.2105  0.0109 -0.0759
  496POPC   GL2 5944   6.000  10.705  18.959 -0.0542  0.2215 -0.2049
  496POPC   C1A 5945   5.493  10.737  18.639  0.0772  0.0306 -0.1970
  496POPC   D2A 5946   5.308  10.772  18.269  0.2800 -0.0553  0.0408
  496POPC   C3A 5947   5.533  10.621  17.926  0.0795  0.0591  0.2335
  496POPC   C4A 5948   5.486  10.749  17.502  0.0683  0.1262  0.0020
  496POPC   C1B 5949   6.010  10.418  18.614 -0.1295  0.0308  0.2683
  496POPC   C2B 5950   6.349  10.488  18.308 -0.1145  0.0758 -0.2432
  496POPC   C3B 5951   6.658  10.631  18.002 -0.0746  0.0454  0.0491
  496POPC   C4B 5952   6.859  10.759  17.635 -0.0774  0.2815 -0.1102
  497POPC   NC3 5953   9.366  14.938  19.466  0.1990  0.0454 -0.1333
  497POPC   PO4 5954   9.474  15.250  19.226 -0.1325  0.2307 -0.1748
  497POPC   GL1 5955   9.497  14.973  19.016 -0.2136 -0.2661  0.1613
  497POPC   GL2 5956   9.325  15.079  18.806  0.1155 -0.2470  0.1718
  497POPC   C1A 5957   9.247  14.624  18.892 -0.0478  0.2450  0.1186
  497POPC   D2A 5958   8.869  14.524  18.709 -0.2038  0.4230 -0.0966
  497POPC   C3A 5959   8.770  14.352  18.293  0.1371  0.1075  0.0680
  497POPC   C4A 5960   8.508  14.447  17.873 -0.0365  0.0190  0.2657
  497POPC   C1B 5961   9.406  15.240  18.398  0.1057 -0.1893 -0.2198
  497POPC   C2B 5962   9.333  15.119  17.982  0.0585 -0.1389  0.4049
  497POPC   C3B 5963   9.215  15.131  17.505  0.1002 -0.1061 -0.1440
  497POPC   C4B 5964   9.480  15.189  17.147 -0.1714  0.1651 -0.2004
  498POPC   NC3 5965  15.548   4.346  20.200 -0.0528 -0.0121 -0.2280
  498POPC   PO4 5966  15.524   4.728  20.161  0.0209 -0.1595  0.1383
  498POPC   GL1 5967  15.615   5.119  20.070  0.0985 -0.0983  0.2235
  498POPC   GL2 5968  15.373   5.135  19.938 -0.2956 -0.0254 -0.1977
  498POPC   C1A 5969  15.827   5.533  20.127 -0.4017 -0.1503 -0.1257
  498POPC   D2A 5970  15.691   5.931  20.340 -0.1552  0.0746 -0.0373
  498POPC   C3A 5971  16.109   5.940  20.405  0.0525 -0.0381 -0.0929
  498POPC   C4A 5972  16.552   5.817  20.311 -0.4593  0.0704 -0.2926
  498POPC   C1B 5973  15.327   5.353  19.544  0.1186  0.2478 -0.3753
  498POPC   C2B 5974  15.091   5.793  19.445  0.0444 -0.1113 -0.1878
  498POPC   C3B 5975  15.113   6.118  19.117  0.0658 -0.2454 -0.0043
  498POPC   C4B 5976  15.072   6.589  19.016 -0.4064  0.0425  0.0895
  499POPC   NC3 5977   7.762  15.888  19.613 -0.0235 -0.0680  0.1325
  499POPC   PO4 5978   7.451  16.130  19.743  0.0167 -0.3719 -0.0219
  499POPC   GL1 5979   7.391  16.189  19.374  0.1633  0.0948 -0.0786
  499POPC   GL2 5980   7.074  16.338  19.303 -0.1521  0.1599 -0.4531
  499POPC   C1A 5981   7.733  16.049  19.083  0.1111  0.0378  0.0928
  499POPC   D2A 5982   7.679  15.740  18.741 -0.2844 -0.3830  0.0978
  499POPC   C3A 5983   7.487  15.640  18.352  0.1113 -0.3985 -0.2385
  499POPC   C4A 5984   7.485  15.576  17.875 -0.1389  0.0472  0.0029
  499POPC   C1B 5985   6.913  16.218  18.868 -0.1217 -0.2907  0.3640
  499POPC   C2B 5986   6.895  16.454  18.477 -0.0415  0.0949 -0.2653
  499POPC   C3B 5987   6.839  16.252  18.034 -0.2617 -0.2622  0.1205
  499POPC   C4B 5988   6.793  16.312  17.626 -0.1719 -0.0686  0.0992
  500POPC   NC3 5989   6.831  23.064  19.896 -0.0689  0.2161  0.0455
  500POPC   PO4 5990   7.064  22.980  19.583 -0.0316  0.1586  0.4516
  500POPC   GL1 5991   6.778  22.785  19.168 -0.0990  0.1276  0.2400
  500POPC   GL2 5992   6.849  23.085  19.044  0.0648  0.3045 -0.2870
  500POPC   C1A 5993   6.652  22.751  18.712  0.2896 -0.4890  0.1023
  500POPC   D2A 5994   6.525  22.417  18.359  0.2338  0.1138  0.2265
  500POPC   C3A 5995   6.617  22.597  17.930  0.0558  0.2813  0.1318
  500POPC   C4A 5996   6.653  22.748  17.525 -0.4605  0.2456 -0.1152
  500POPC   C1B 5997   6.635  23.204  18.623  0.0477  0.0212  0.0121
  500POPC   C2B 5998   6.688  23.022  18.207  0.0953 -0.3268  0.0013
  500POPC   C3B 5999   6.617  23.186  17.782  0.3713  0.1938 -0.1393
  500POPC   C4B 6000   6.857  23.153  17.379  0.1466 -0.2144  0.3490
  501POPC   NC3 6001   2.196  27.054  19.168 -0.0042  0.1026  0.0194
  501POPC   PO4 6002   1.902  27.186  19.371  0.2291 -0.0172  0.1253
  501POPC   GL1 6003   1.812  27.204  18.928 -0.0473 -0.1188 -0.1322
  501POPC   GL2 6004   1.497  27.387  18.833  0.1182 -0.1592  0.2527
  501POPC   C1A 6005   1.839  27.214  18.446  0.0269  0.2206 -0.1082
  501POPC   D2A 6006   2.011  27.151  18.014  0.0646  0.2020 -0.1990
  501POPC   C3A 6007   2.042  27.503  17.689 -0.1526  0.1648 -0.4136
  501POPC   C4A 6008   2.143  27.948  17.521  0.1342 -0.0796 -0.0873
  501POPC   C1B 6009   1.481  27.609  18.434  0.2806  0.0817 -0.2118
  501POPC   C2B 6010   1.550  27.543  18.031  0.0907 -0.1122  0.1414
  501POPC   C3B 6011   1.596  27.775  17.630 -0.0852 -0.1624 -0.0816
  501POPC   C4B 6012   1.567  27.739  17.225 -0.1041 -0.1358 -0.1271
  502POPC   NC3 6013   6.280  24.881  19.159  0.0463 -0.1993  0.0358
  502POPC   PO4 6014   6.530  25.144  19.277 -0.0613 -0.2363  0.3389
  502POPC   GL1 6015   6.579  25.387  19.060  0.1938  0.0571 -0.0272
  502POPC   GL2 6016   6.732  25.611  19.146  0.1519 -0.1406 -0.2041
  502POPC   C1A 6017   6.624  25.643  18.667  0.1552 -0.2904 -0.1321
  502POPC   D2A 6018   6.676  25.644  18.209 -0.0359 -0.2274  0.0621
  502POPC   C3A 6019   6.636  25.665  17.734 -0.1495 -0.1882 -0.0258
  502POPC   C4A 6020   6.626  25.974  17.408 -0.2098  0.1738 -0.0427
  502POPC   C1B 6021   6.490  25.964  19.074  0.0575 -0.3718 -0.0087
  502POPC   C2B 6022   6.397  26.101  18.682  0.4323  0.3055  0.1862
  502POPC   C3B 6023   6.318  26.072  18.218  0.0605 -0.0429 -0.0024
  502POPC   C4B 6024   6.487  26.223  17.817 -0.1763 -0.0193 -0.3001
  503POPC   NC3 6025  11.741  26.699  19.583 -0.1986 -0.2602  0.0487
  503POPC   PO4 6026  11.501  26.439  19.431 -0.0970  0.0669 -0.1919
  503POPC   GL1 6027  11.217  26.480  19.153 -0.0398 -0.0784 -0.0704
  503POPC   GL2 6028  11.221  26.768  19.053  0.0567  0.0566 -0.0180
  503POPC   C1A 6029  11.043  26.281  18.772 -0.2044 -0.0874 -0.0299
  503POPC   D2A 6030  11.175  26.022  18.380  0.0603  0.0478 -0.0618
  503POPC   C3A 6031  11.352  25.834  17.980 -0.0664 -0.1380  0.0777
  503POPC   C4A 6032  11.661  25.847  17.623 -0.0235 -0.0073 -0.0357
  503POPC   C1B 6033  10.888  26.756  18.795  0.3354 -0.2387  0.1171
  503POPC   C2B 6034  10.916  26.517  18.335 -0.1616  0.2134 -0.1589
  503POPC   C3B 6035  10.909  26.368  17.909  0.0829 -0.0749  0.1033
  503POPC   C4B 6036  10.544  26.278  17.704 -0.2059 -0.2287  0.0081
  504POPC   NC3 6037   3.412  23.607  19.768  0.2448  0.1639 -0.0250
  504POPC   PO4 6038   3.400  23.426  19.425  0.1839  0.0135  0.0858
  504POPC   GL1 6039   3.531  23.409  19.090  0.1294 -0.1240 -0.1815
  504POPC   GL2 6040   3.530  23.140  18.938  0.5035  0.1743  0.0630
  504POPC   C1A 6041   3.638  23.539  18.651 -0.0062  0.0538 -0.1286
  504POPC   D2A 6042   3.615  23.822  18.272 -0.3002  0.1251  0.2378
  504POPC   C3A 6043   3.864  23.749  17.924  0.1157  0.1060  0.0023
  504POPC   C4A 6044   4.129  23.577  17.622  0.0004  0.0849 -0.2878
  504POPC   C1B 6045   3.186  23.211  18.600 -0.1299  0.3856  0.1396
  504POPC   C2B 6046   3.235  23.043  18.154 -0.1334  0.2645  0.2835
  504POPC   C3B 6047   3.331  23.026  17.716 -0.3426 -0.0306 -0.0200
  504POPC   C4B 6048   3.486  23.111  17.302 -0.2285  0.2921  0.2781
  505POPC   NC3 6049   7.218  14.738  19.720 -0.2220  0.3000 -0.1185
  505POPC   PO4 6050   7.157  14.357  19.798  0.2493 -0.0586  0.3276
  505POPC   GL1 6051   7.188  14.464  19.388 -0.0951  0.0700 -0.0727
  505POPC   GL2 6052   6.997  14.658  19.307  0.0826 -0.1637 -0.1455
  505POPC   C1A 6053   6.956  14.354  18.955  0.1617 -0.2580 -0.0168
  505POPC   D2A 6054   6.814  14.601  18.623  0.1546  0.0020 -0.2496
  505POPC   C3A 6055   6.584  14.555  18.202 -0.2104  0.2164 -0.1253
  505POPC   C4A 6056   6.553  14.476  17.761  0.2673  0.2753 -0.0168
  505POPC   C1B 6057   7.048  14.909  18.915 -0.0417 -0.1982 -0.0077
  505POPC   C2B 6058   6.785  15.138  18.532 -0.2168  0.0203 -0.0282
  505POPC   C3B 6059   6.699  15.296  18.086  0.1072  0.0449  0.0143
  505POPC   C4B 6060   6.638  15.133  17.646  0.0732  0.0307  0.1488
  506POPC   NC3 6061  15.091  22.778  19.061 -0.3876  0.1017 -0.0791
  506POPC   PO4 6062  15.298  22.668  19.368  0.3663 -0.0589  0.0578
  506POPC   GL1 6063  15.557  22.539  19.017 -0.0852 -0.1618 -0.1803
  506POPC   GL2 6064  15.723  22.367  18.863  0.2336 -0.0654 -0.1861
  506POPC   C1A 6065  15.487  22.843  18.618 -0.1794  0.2930 -0.0261
  506POPC   D2A 6066  15.194  23.160  18.481  0.3899 -0.0606 -0.3571
  506POPC   C3A 6067  15.258  23.531  18.233  0.0761  0.0095  0.1456
  506POPC   C4A 6068  15.186  23.793  17.907  0.1528 -0.0479 -0.1368
  506POPC   C1B 6069  15.837  22.464  18.404  0.1471  0.2543  0.1160
  506POPC   C2B 6070  15.713  22.285  17.987  0.2631  0.0469 -0.0563
  506POPC   C3B 6071  15.530  22.457  17.608  0.1172 -0.3773  0.2986
  506POPC   C4B 6072  15.327  22.816  17.400  0.0616  0.2694 -0.0721
  507POPC   NC3 6073  15.421   3.394  19.558  0.1887 -0.0437  0.4008
  507POPC   PO4 6074  15.596   3.197  19.291  0.0791  0.1127  0.0928
  507POPC   GL1 6075  15.535   3.269  18.929 -0.4431  0.2969 -0.2304
  507POPC   GL2 6076  15.435   3.494  18.944  0.1528 -0.1604 -0.0587
  507POPC   C1A 6077  15.820   3.479  18.649 -0.2118 -0.1533  0.0960
  507POPC   D2A 6078  16.241   3.533  18.635  0.0696  0.1939 -0.1377
  507POPC   C3A 6079  16.569   3.155  18.593  0.0295  0.0533  0.2702
  507POPC   C4A 6080  16.475   2.731  18.386  0.0506 -0.3190  0.0323
  507POPC   C1B 6081  15.385   3.707  18.554  0.4067  0.0034  0.0026
  507POPC   C2B 6082  15.258   4.108  18.448  0.1095 -0.2093  0.0882
  507POPC   C3B 6083  15.143   4.376  18.116  0.0547 -0.2567 -0.2218
  507POPC   C4B 6084  15.374   4.814  18.076  0.2882 -0.2259  0.1479
  508POPC   NC3 6085  11.253  16.332  18.984  0.1790  0.5600  0.2482
  508POPC   PO4 6086  11.580  16.139  18.966  0.0434  0.0792  0.3907
  508POPC   GL1 6087  11.478  16.066  18.630  0.1372 -0.3453  0.2200
  508POPC   GL2 6088  11.323  16.186  18.447  0.1634 -0.0839 -0.2489
  508POPC   C1A 6089  11.702  15.854  18.298  0.0249  0.2267  0.0307
  508POPC   D2A 6090  11.979  15.612  18.007 -0.0991 -0.2285  0.0377
  508POPC   C3A 6091  12.101  15.532  17.543 -0.0335 -0.2166 -0.1193
  508POPC   C4A 6092  11.884  15.211  17.352 -0.2342  0.3259  0.2742
  508POPC   C1B 6093  11.430  16.129  18.022  0.1628  0.0499  0.0526
  508POPC   C2B 6094  11.341  16.079  17.586 -0.2846 -0.1384  0.1585
  508POPC   C3B 6095  11.161  15.986  17.175 -0.1217 -0.0196  0.1145
  508POPC   C4B 6096  10.905  15.850  16.817  0.2651  0.0423  0.1161
  509POPC   NC3 6097   9.786  29.661  19.297  0.3100  0.1862 -0.1490
  509POPC   PO4 6098   9.910  29.331  19.498  0.0221  0.0033  0.2112
  509POPC   GL1 6099   9.978  29.190  19.113  0.0920 -0.0952 -0.0718
  509POPC   GL2 6100  10.189  29.074  19.058 -0.1849  0.1221  0.0406
  509POPC   C1A 6101   9.692  29.298  18.775 -0.0477  0.0205  0.0803
  509POPC   D2A 6102   9.527  29.289  18.353 -0.1402  0.0494  0.2869
  509POPC   C3A 6103   9.683  29.305  17.939 -0.1345  0.1160 -0.0449
  509POPC   C4A 6104  10.051  29.477  17.699  0.1364 -0.2400  0.0315
  509POPC   C1B 6105  10.138  29.089  18.624 -0.3442  0.1856 -0.1326
  509POPC   C2B 6106  10.031  29.087  18.207 -0.0508 -0.0080 -0.0539
  509POPC   C3B 6107  10.079  28.930  17.785  0.0094  0.0840 -0.0571
  509POPC   C4B 6108  10.472  28.822  17.580 -0.0307  0.0986 -0.0125
  510POPC   NC3 6109   1.878  10.489  19.586  0.1871  0.3262 -0.0466
  510POPC   PO4 6110   1.692  10.267  19.321  0.1853  0.2536 -0.2727
  510POPC   GL1 6111   1.736  10.441  18.967  0.2811  0.0587 -0.0592
  510POPC   GL2 6112   1.941  10.246  18.760 -0.2194 -0.0050 -0.1693
  510POPC   C1A 6113   1.876  10.748  18.619  0.3177 -0.1294  0.0068
  510POPC   D2A 6114   1.735  10.933  18.173 -0.3310  0.1688  0.0387
  510POPC   C3A 6115   1.837  10.706  17.743 -0.1222 -0.2084 -0.2410
  510POPC   C4A 6116   1.946  10.420  17.341  0.1701  0.0169 -0.0788
  510POPC   C1B 6117   1.874   9.949  18.436  0.3193  0.2827 -0.1680
  510POPC   C2B 6118   2.001   9.671  18.030 -0.1504 -0.1175  0.0103
  510POPC   C3B 6119   2.079   9.478  17.637 -0.0097  0.2584 -0.0571
  510POPC   C4B 6120   2.201   9.666  17.203 -0.0443 -0.0639  0.1532
  511POPC   NC3 6121   1.226   1.643  19.435 -0.0676  0.1562  0.1454
  511POPC   PO4 6122   1.444   1.529  19.151  0.0360 -0.0526  0.2054
  511POPC   GL1 6123   1.487   1.426  18.747 -0.0402  0.0790  0.1835
  511POPC   GL2 6124   1.267   1.443  18.580  0.0283  0.0525  0.1195
  511POPC   C1A 6125   1.774   1.306  18.376  0.1274 -0.3177 -0.0759
  511POPC   D2A 6126   1.888   1.204  17.995  0.0052 -0.0279 -0.1306
  511POPC   C3A 6127   1.618   1.064  17.642 -0.1326 -0.4254 -0.1762
  511POPC   C4A 6128   1.437   1.076  17.184 -0.0251 -0.0983  0.0340
  511POPC   C1B 6129   1.315   1.307  18.125  0.1143 -0.0688 -0.3793
  511POPC   C2B 6130   1.113   1.104  17.754 -0.0562 -0.0019 -0.2551
  511POPC   C3B 6131   0.951   1.148  17.304 -0.1569  0.0769  0.0175
  511POPC   C4B 6132   0.928   1.116  16.856  0.1876 -0.0077  0.1224
  512POPC   NC3 6133   7.983  27.136  19.653 -0.0081 -0.0666  0.4494
  512POPC   PO4 6134   7.594  27.002  19.632 -0.3454 -0.1036 -0.1734
  512POPC   GL1 6135   7.535  26.779  19.332  0.0528  0.2095  0.2348
  512POPC   GL2 6136   7.431  26.904  19.121 -0.2149  0.0029 -0.1617
  512POPC   C1A 6137   7.613  26.434  19.013 -0.0036 -0.2027 -0.0626
  512POPC   D2A 6138   7.815  26.392  18.625 -0.1585 -0.1446 -0.2136
  512POPC   C3A 6139   7.588  26.765  18.460 -0.0585 -0.1710  0.1286
  512POPC   C4A 6140   7.464  27.089  18.151 -0.4335 -0.3282 -0.3372
  512POPC   C1B 6141   7.540  27.152  18.760 -0.1466 -0.0388  0.0876
  512POPC   C2B 6142   7.163  27.037  18.538 -0.0422 -0.0969  0.0520
  512POPC   C3B 6143   6.993  27.035  18.119  0.2597 -0.0047  0.3400
  512POPC   C4B 6144   7.180  27.218  17.701 -0.3808 -0.0613  0.3009
  513POPC   NC3 6145  14.678  26.386  19.281  0.0633  0.1907 -0.0752
  513POPC   PO4 6146  14.992  26.197  19.455 -0.2416  0.1800  0.0483
  513POPC   GL1 6147  15.028  26.288  18.959 -0.0200 -0.2421 -0.3941
  513POPC   GL2 6148  15.026  26.046  18.946 -0.1165 -0.1147 -0.1465
  513POPC   C1A 6149  15.333  26.221  18.589 -0.2370 -0.2464  0.0815
  513POPC   D2A 6150  15.637  25.902  18.440 -0.1180 -0.2330 -0.2101
  513POPC   C3A 6151  15.452  25.625  18.119 -0.0142 -0.3148  0.3568
  513POPC   C4A 6152  15.077  25.618  17.782  0.0303  0.1751 -0.0568
  513POPC   C1B 6153  14.928  25.965  18.516 -0.0372  0.3129 -0.1000
  513POPC   C2B 6154  15.068  26.049  18.060  0.2349 -0.0418 -0.1114
  513POPC   C3B 6155  15.322  26.075  17.690  0.1101  0.2340  0.1476
  513POPC   C4B 6156  15.703  26.150  17.449  0.1984  0.2824 -0.1818
  514POPC   NC3 6157   7.033   9.447  18.728  0.1330  0.0020 -0.0132
  514POPC   PO4 6158   7.352   9.576  18.896  0.0103 -0.0038  0.2292
  514POPC   GL1 6159   7.412   9.656  18.510  0.1427  0.0092 -0.0132
  514POPC   GL2 6160   7.589   9.858  18.414  0.0708  0.3945  0.2920
  514POPC   C1A 6161   7.603   9.459  18.131  0.0660 -0.0916  0.2806
  514POPC   D2A 6162   7.779   9.378  17.708 -0.4157 -0.0830 -0.3371
  514POPC   C3A 6163   7.545   9.448  17.374  0.0841 -0.1396  0.0324
  514POPC   C4A 6164   7.603   9.731  16.959  0.0350 -0.0558 -0.5015
  514POPC   C1B 6165   7.206   9.820  18.138  0.0499 -0.0523  0.1376
  514POPC   C2B 6166   7.172   9.991  17.664  0.2952  0.0574  0.1894
  514POPC   C3B 6167   7.497  10.045  17.347  0.1656 -0.0172 -0.3197
  514POPC   C4B 6168   7.877  10.158  17.090  0.3105 -0.2780  0.3143
  515POPC   NC3 6169  10.201  23.046  19.627  0.1774  0.2649  0.2140
  515POPC   PO4 6170  10.452  23.049  19.333 -0.2223  0.2459  0.0738
  515POPC   GL1 6171  10.440  22.997  19.032 -0.0337  0.3274 -0.0366
  515POPC   GL2 6172  10.705  23.097  18.879 -0.1339 -0.0059  0.2576
  515POPC   C1A 6173  10.250  23.059  18.632  0.0638  0.1801 -0.0752
  515POPC   D2A 6174  10.225  22.700  18.315 -0.0720  0.1112 -0.0404
  515POPC   C3A 6175  10.664  22.694  18.140 -0.0958  0.1447 -0.1597
  515POPC   C4A 6176  10.868  22.730  17.723  0.2695 -0.0932 -0.1766
  515POPC   C1B 6177  10.944  22.987  18.444  0.2102  0.0308 -0.1670
  515POPC   C2B 6178  10.817  23.164  17.989  0.0647  0.1178 -0.3155
  515POPC   C3B 6179  10.550  23.218  17.605  0.2701 -0.0026 -0.0870
  515POPC   C4B 6180  10.173  23.105  17.467 -0.1848 -0.0504  0.1651
  516POPC   NC3 6181  11.885  18.329  19.294  0.0806 -0.4845  0.3429
  516POPC   PO4 6182  12.176  18.172  19.140 -0.0006  0.1841  0.0230
  516POPC   GL1 6183  12.025  17.993  18.813  0.1267 -0.0199 -0.2032
  516POPC   GL2 6184  11.812  18.180  18.780  0.0900 -0.2658  0.0235
  516POPC   C1A 6185  11.962  17.901  18.359 -0.1280  0.0294  0.1531
  516POPC   D2A 6186  11.908  18.135  17.985  0.0780  0.2683 -0.1552
  516POPC   C3A 6187  12.088  18.286  17.590  0.2319  0.2020 -0.0385
  516POPC   C4A 6188  12.115  18.284  17.141 -0.1179  0.1887 -0.0425
  516POPC   C1B 6189  12.155  18.362  18.544 -0.1339  0.0458 -0.0564
  516POPC   C2B 6190  12.265  18.446  18.118 -0.1650 -0.0718 -0.3383
  516POPC   C3B 6191  12.520  18.352  17.788  0.1270 -0.1447 -0.0159
  516POPC   C4B 6192  12.575  18.464  17.359 -0.3164  0.1347 -0.5080
  517POPC   NC3 6193   1.484  23.529  19.192  0.0034 -0.0300 -0.1767
  517POPC   PO4 6194   1.151  23.680  19.028 -0.0017 -0.0951 -0.2192
  517POPC   GL1 6195   0.974  23.548  18.741  0.0774 -0.2528 -0.0631
  517POPC   GL2 6196   1.273  23.395  18.682 -0.1504 -0.3236 -0.1289
  517POPC   C1A 6197   0.907  23.440  18.317 -0.0313  0.1690 -0.5442
  517POPC   D2A 6198   0.815  23.409  17.862  0.2882 -0.0896 -0.2937
  517POPC   C3A 6199   0.949  23.566  17.425  0.0028 -0.4866  0.0751
  517POPC   C4A 6200   0.689  23.903  17.221 -0.0688 -0.0712  0.1574
  517POPC   C1B 6201   1.385  23.366  18.216 -0.1305 -0.0384  0.0656
  517POPC   C2B 6202   1.360  23.508  17.786 -0.3290  0.2265  0.1138
  517POPC   C3B 6203   1.496  23.577  17.355  0.0377  0.0119 -0.0239
  517POPC   C4B 6204   1.335  23.952  17.164  0.1909 -0.2913  0.1123
  518POPC   NC3 6205   5.555  13.586  19.152  0.1110 -0.0669  0.0160
  518POPC   PO4 6206   5.220  13.343  19.200  0.5913  0.4145 -0.1084
  518POPC   GL1 6207   5.065  13.423  18.814  0.2321 -0.0762 -0.2401
  518POPC   GL2 6208   4.948  13.658  18.916 -0.3163 -0.0379  0.0462
  518POPC   C1A 6209   5.381  13.453  18.451 -0.0375 -0.0725  0.5485
  518POPC   D2A 6210   5.582  13.251  18.096 -0.1507 -0.1242  0.2475
  518POPC   C3A 6211   5.675  13.182  17.657 -0.1898  0.1070 -0.1074
  518POPC   C4A 6212   5.757  13.003  17.266  0.0093  0.1756  0.0387
  518POPC   C1B 6213   4.896  13.886  18.577 -0.1888 -0.2632 -0.0968
  518POPC   C2B 6214   4.938  13.906  18.099  0.0023  0.0865  0.1228
  518POPC   C3B 6215   4.791  14.065  17.672  0.0858 -0.0902  0.2549
  518POPC   C4B 6216   4.741  14.065  17.247  0.2544 -0.1892 -0.0994
  519POPC   NC3 6217  13.545  31.650  19.426  0.1194 -0.1477  0.1944
  519POPC   PO4 6218  13.921  31.750  19.462 -0.2118  0.3266 -0.0675
  519POPC   GL1 6219  13.950  31.909  19.077 -0.2334  0.1133 -0.0227
  519POPC   GL2 6220  13.767  31.766  18.970 -0.0087 -0.0369 -0.3342
  519POPC   C1A 6221  13.861  32.298  18.858 -0.3219 -0.1450 -0.0230
  519POPC   D2A 6222  13.867  32.541  18.496 -0.0939 -0.0145 -0.0323
  519POPC   C3A 6223  13.508  32.695  18.392 -0.0088 -0.2630  0.2769
  519POPC   C4A 6224  13.334  32.880  17.994  0.0378 -0.4656 -0.1504
  519POPC   C1B 6225  13.763  31.874  18.547 -0.3623  0.8181 -0.0654
  519POPC   C2B 6226  13.705  31.925  18.091 -0.1315 -0.0706  0.3133
  519POPC   C3B 6227  13.528  31.575  17.721  0.0940  0.0265 -0.1021
  519POPC   C4B 6228  13.238  31.426  17.456 -0.2332 -0.0891 -0.0737
  520POPC   NC3 6229   7.877  10.582  19.303  0.1276 -0.2007 -0.0879
  520POPC   PO4 6230   7.746  10.963  19.260  0.0393 -0.2654 -0.1312
  520POPC   GL1 6231   7.425  10.897  18.939  0.1235 -0.3101  0.1039
  520POPC   GL2 6232   7.249  11.031  19.172  0.0559 -0.3643  0.2774
  520POPC   C1A 6233   7.529  10.821  18.481  0.0202  0.2712 -0.0562
  520POPC   D2A 6234   7.646  10.652  18.098 -0.0012  0.2320 -0.2352
  520POPC   C3A 6235   7.841  10.280  17.924 -0.0750  0.3357  0.0281
  520POPC   C4A 6236   7.646   9.849  17.777  0.1529 -0.0242 -0.0870
  520POPC   C1B 6237   7.114  11.174  18.712 -0.3325 -0.0899 -0.2112
  520POPC   C2B 6238   6.874  11.151  18.382 -0.2561  0.2791 -0.1257
  520POPC   C3B 6239   6.778  11.143  17.982  0.1482  0.0954 -0.1983
  520POPC   C4B 6240   6.793  11.335  17.534 -0.0741  0.1052 -0.0731
  521POPC   NC3 6241  10.798  22.706  19.268 -0.3253 -0.3959 -0.1080
  521POPC   PO4 6242  11.159  22.840  19.468  0.1946  0.2253 -0.3656
  521POPC   GL1 6243  11.358  23.110  19.239  0.0942  0.3436  0.0869
  521POPC   GL2 6244  11.658  22.964  19.241  0.0295 -0.3345 -0.1383
  521POPC   C1A 6245  11.140  23.304  18.857  0.2842 -0.3826 -0.2576
  521POPC   D2A 6246  10.835  23.528  18.630 -0.0748  0.0576 -0.1193
  521POPC   C3A 6247  10.530  23.395  18.321 -0.1591 -0.2151 -0.1765
  521POPC   C4A 6248  10.317  23.030  18.040 -0.2120  0.0112 -0.0935
  521POPC   C1B 6249  11.571  23.032  18.824  0.1123  0.2993 -0.2859
  521POPC   C2B 6250  11.413  23.165  18.398  0.1518 -0.0311  0.2197
  521POPC   C3B 6251  11.107  23.506  18.230 -0.2148  0.0755 -0.2855
  521POPC   C4B 6252  10.748  23.666  17.942 -0.1422  0.1555 -0.0989
  522POPC   NC3 6253  12.557  20.454  19.638 -0.0949  0.0034  0.1648
  522POPC   PO4 6254  12.538  20.160  19.386 -0.3061 -0.0837 -0.3258
  522POPC   GL1 6255  12.712  20.153  19.030  0.5422  0.0636 -0.1568
  522POPC   GL2 6256  12.611  19.900  18.842  0.0213  0.3164  0.0606
  522POPC   C1A 6257  12.599  20.539  18.771 -0.3397 -0.0142  0.2719
  522POPC   D2A 6258  12.755  20.874  18.475  0.1691  0.0170  0.0135
  522POPC   C3A 6259  12.715  20.824  18.056  0.1730  0.0398  0.1000
  522POPC   C4A 6260  12.762  20.471  17.762 -0.0789  0.0399 -0.1722
  522POPC   C1B 6261  12.645  19.551  18.569  0.1051  0.0514  0.3376
  522POPC   C2B 6262  12.641  19.711  18.135 -0.2156  0.1397  0.1091
  522POPC   C3B 6263  12.881  19.940  17.825 -0.0652 -0.2171 -0.0336
  522POPC   C4B 6264  12.724  20.082  17.430 -0.0319  0.0019  0.1012
  523POPC   NC3 6265   6.155   9.338  19.181  0.1828 -0.1779  0.3279
  523POPC   PO4 6266   6.555   9.290  19.070  0.2335  0.0475  0.0752
  523POPC   GL1 6267   6.509   9.442  18.680 -0.4190 -0.1404 -0.1633
  523POPC   GL2 6268   6.570   9.218  18.568  0.0136 -0.1567  0.4642
  523POPC   C1A 6269   6.299   9.528  18.275  0.2153  0.2548 -0.2434
  523POPC   D2A 6270   6.210   9.550  17.848  0.0871  0.0250  0.0982
  523POPC   C3A 6271   6.372   9.555  17.448  0.0059  0.0152 -0.0738
  523POPC   C4A 6272   6.607   9.468  17.045 -0.1777  0.0691 -0.0633
  523POPC   C1B 6273   6.572   9.176  18.120  0.1136 -0.0084  0.0043
  523POPC   C2B 6274   6.825   9.049  17.764  0.2650 -0.0103 -0.2257
  523POPC   C3B 6275   7.077   9.100  17.383 -0.4518  0.2947 -0.0271
  523POPC   C4B 6276   7.372   9.176  16.968 -0.1914 -0.1466 -0.2606
  524POPC   NC3 6277   3.375  25.700  19.143  0.1414  0.0167  0.1913
  524POPC   PO4 6278   3.650  25.402  19.238  0.3710 -0.1681 -0.0024
  524POPC   GL1 6279   3.745  25.553  18.958 -0.1915 -0.3564 -0.0325
  524POPC   GL2 6280   3.977  25.437  18.873  0.2652 -0.0574  0.1437
  524POPC   C1A 6281   3.470  25.687  18.600 -0.1902  0.0587 -0.3457
  524POPC   D2A 6282   3.295  26.048  18.313  0.1364  0.2166 -0.2224
  524POPC   C3A 6283   3.495  26.280  18.004  0.0391 -0.2258 -0.0303
  524POPC   C4A 6284   3.522  26.230  17.558  0.2149 -0.4224 -0.0040
  524POPC   C1B 6285   4.369  25.390  18.843 -0.1653  0.0108  0.0764
  524POPC   C2B 6286   4.622  25.681  18.666  0.1139  0.0103 -0.2103
  524POPC   C3B 6287   5.026  25.781  18.437  0.0709 -0.1882 -0.1927
  524POPC   C4B 6288   5.457  25.822  18.312  0.1164 -0.2802 -0.3513
  525POPC   NC3 6289  10.849   3.265  19.460  0.0656 -0.2608  0.0205
  525POPC   PO4 6290  10.841   3.531  19.136  0.0332  0.3482 -0.4354
  525POPC   GL1 6291  10.636   3.730  18.903  0.3110 -0.3341 -0.0070
  525POPC   GL2 6292  10.361   3.675  18.910 -0.0002  0.1878 -0.1280
  525POPC   C1A 6293  10.568   3.511  18.455 -0.0275  0.3655  0.1341
  525POPC   D2A 6294  10.492   3.340  18.019 -0.2195 -0.2512  0.0304
  525POPC   C3A 6295  10.077   3.217  17.736 -0.0013  0.2653 -0.1976
  525POPC   C4A 6296   9.886   3.304  17.366  0.0816  0.1920 -0.0701
  525POPC   C1B 6297  10.050   3.436  18.662 -0.4486 -0.3107  0.3266
  525POPC   C2B 6298   9.854   3.423  18.323 -0.1301 -0.1074 -0.0351
  525POPC   C3B 6299   9.620   3.346  17.939  0.1063 -0.3470 -0.3435
  525POPC   C4B 6300   9.393   3.228  17.546  0.1229 -0.0174 -0.1980
  526POPC   NC3 6301   5.204   6.931  19.330 -0.2855 -0.0015 -0.0341
  526POPC   PO4 6302   5.063   7.221  19.083 -0.3109  0.0841  0.1764
  526POPC   GL1 6303   5.218   7.426  18.749 -0.1386 -0.3183  0.0433
  526POPC   GL2 6304   5.234   7.200  18.583  0.0249 -0.0132 -0.0880
  526POPC   C1A 6305   4.982   7.754  18.504  0.0519 -0.3030  0.0575
  526POPC   D2A 6306   4.780   8.041  18.196  0.1201  0.0229 -0.0000
  526POPC   C3A 6307   5.032   8.123  17.809 -0.1836 -0.2135 -0.1289
  526POPC   C4A 6308   5.383   8.017  17.535  0.0482 -0.3875  0.2328
  526POPC   C1B 6309   5.188   7.084  18.125  0.1002 -0.1404 -0.3553
  526POPC   C2B 6310   5.206   7.228  17.651 -0.1237 -0.1278  0.4524
  526POPC   C3B 6311   5.509   7.274  17.262  0.2681  0.2379 -0.0742
  526POPC   C4B 6312   5.823   7.460  17.036 -0.1001  0.5136  0.0454
  527POPC   NC3 6313  10.797   1.695  19.460 -0.2152 -0.0219 -0.0096
  527POPC   PO4 6314  10.430   1.743  19.575  0.1357 -0.0013 -0.0911
  527POPC   GL1 6315  10.304   1.818  19.218  0.0209 -0.2105  0.2509
  527POPC   GL2 6316  10.578   1.944  19.097  0.0731 -0.3414 -0.2066
  527POPC   C1A 6317   9.950   1.885  18.889 -0.0765 -0.0261  0.1567
  527POPC   D2A 6318   9.771   2.014  18.490 -0.0675  0.0135 -0.1062
  527POPC   C3A 6319   9.432   1.932  18.152 -0.2273 -0.0308 -0.2271
  527POPC   C4A 6320   9.202   1.747  17.812 -0.1993  0.0556  0.0911
  527POPC   C1B 6321  10.442   1.932  18.645  0.1101  0.1010 -0.0490
  527POPC   C2B 6322  10.345   2.169  18.255 -0.1858  0.1321 -0.0535
  527POPC   C3B 6323  10.402   2.229  17.773  0.0761  0.3093  0.0074
  527POPC   C4B 6324  10.370   2.099  17.362 -0.2486 -0.1998 -0.0868
  528POPC   NC3 6325   2.673  12.245  19.115 -0.3024 -0.4189 -0.0391
  528POPC   PO4 6326   2.672  12.529  19.321  0.1369  0.1356  0.3596
  528POPC   GL1 6327   2.698  12.831  19.053 -0.1585 -0.0935  0.0282
  528POPC   GL2 6328   2.551  12.756  18.826 -0.1067 -0.0464 -0.1741
  528POPC   C1A 6329   2.994  12.984  18.704  0.0234  0.0289 -0.1397
  528POPC   D2A 6330   3.155  12.944  18.256  0.2302 -0.1454 -0.1214
  528POPC   C3A 6331   3.448  13.109  18.002  0.0095 -0.1939  0.1264
  528POPC   C4A 6332   3.628  13.237  17.591  0.0960  0.3851  0.0786
  528POPC   C1B 6333   2.773  12.572  18.434  0.1304 -0.4588  0.2391
  528POPC   C2B 6334   2.742  12.503  17.931  0.1839 -0.1174 -0.0368
  528POPC   C3B 6335   2.503  12.564  17.515 -0.0825 -0.2489  0.0984
  528POPC   C4B 6336   2.308  12.606  17.084 -0.3446 -0.4347 -0.1424
  529POPC   NC3 6337   9.371   0.142  19.225 -0.1986 -0.0246  0.3939
  529POPC   PO4 6338   9.725   0.274  19.337  0.1438 -0.1033  0.0017
  529POPC   GL1 6339   9.727   0.365  18.991  0.0425 -0.1002  0.1294
  529POPC   GL2 6340   9.601   0.573  18.793 -0.0548 -0.2347 -0.0012
  529POPC   C1A 6341   9.849   0.039  18.698 -0.1330  0.0468  0.1774
  529POPC   D2A 6342   9.857  -0.496  18.745 -0.1648  0.1602 -0.2539
  529POPC   C3A 6343  10.106  -0.802  18.497 -0.2457  0.0303 -0.0099
  529POPC   C4A 6344  10.303  -1.239  18.466  0.1380  0.0411  0.0609
  529POPC   C1B 6345   9.710   0.366  18.379 -0.0357 -0.2883  0.1383
  529POPC   C2B 6346   9.634   0.312  17.921 -0.0494 -0.0426 -0.1494
  529POPC   C3B 6347   9.294   0.199  17.609  0.0222  0.0280  0.0895
  529POPC   C4B 6348   8.826   0.209  17.514 -0.1682  0.0093 -0.1448
  530POPC   NC3 6349   3.636  17.244  19.418 -0.1061  0.0593  0.2629
  530POPC   PO4 6350   3.295  17.455  19.379  0.0115  0.3885 -0.1574
  530POPC   GL1 6351   3.202  17.187  19.145  0.2027  0.0954  0.0670
  530POPC   GL2 6352   2.929  17.180  19.074  0.1149  0.0449 -0.0287
  530POPC   C1A 6353   3.349  17.261  18.694 -0.1453  0.1518 -0.0381
  530POPC   D2A 6354   3.386  17.143  18.260  0.1738 -0.0985 -0.0359
  530POPC   C3A 6355   3.633  17.272  17.873  0.1102 -0.1336  0.1289
  530POPC   C4A 6356   3.685  17.361  17.433  0.1565  0.1241 -0.3190
  530POPC   C1B 6357   2.978  16.884  18.751  0.0522 -0.1952 -0.0403
  530POPC   C2B 6358   3.050  16.788  18.314 -0.0666  0.1268 -0.1919
  530POPC   C3B 6359   3.364  16.820  17.931  0.0382 -0.2910 -0.0304
  530POPC   C4B 6360   3.713  16.815  17.645  0.0284  0.1055  0.1997
  531POPC   NC3 6361   1.907   1.396  18.945  0.0684 -0.3024  0.1372
  531POPC   PO4 6362   1.986   1.764  19.133 -0.0191  0.1970  0.2860
  531POPC   GL1 6363   2.211   1.858  18.755  0.0726  0.0235 -0.0769
  531POPC   GL2 6364   2.048   2.109  18.665  0.2242 -0.0256 -0.0827
  531POPC   C1A 6365   2.180   1.615  18.292  0.0297 -0.4531 -0.1530
  531POPC   D2A 6366   2.088   1.643  17.807 -0.2857  0.1970  0.1266
  531POPC   C3A 6367   2.424   1.626  17.494  0.0109  0.2351  0.0772
  531POPC   C4A 6368   2.848   1.631  17.390 -0.3505 -0.0333 -0.1552
  531POPC   C1B 6369   1.970   2.168  18.221  0.3230  0.0928  0.0170
  531POPC   C2B 6370   1.868   2.059  17.797  0.4099  0.0101  0.2835
  531POPC   C3B 6371   2.046   1.907  17.356  0.1439  0.1592 -0.0966
  531POPC   C4B 6372   2.162   1.549  17.102 -0.0751  0.4448  0.0952
  532POPC   NC3 6373  13.822   8.693  19.491  0.0979 -0.2095 -0.1304
  532POPC   PO4 6374  13.835   8.914  19.163 -0.1456  0.0950  0.2188
  532POPC   GL1 6375  13.970   9.129  18.836 -0.1900  0.3141  0.2887
  532POPC   GL2 6376  14.334   9.121  18.756  0.2011  0.0396  0.2805
  532POPC   C1A 6377  14.015   8.953  18.387  0.0172  0.1329 -0.1820
  532POPC   D2A 6378  13.984   8.819  17.932  0.1863 -0.2567  0.1355
  532POPC   C3A 6379  14.407   8.898  17.664  0.1319 -0.1311  0.1299
  532POPC   C4A 6380  14.710   9.203  17.585  0.4156  0.1146 -0.0331
  532POPC   C1B 6381  14.537   8.983  18.342  0.3956 -0.3139  0.0639
  532POPC   C2B 6382  14.902   8.962  18.022 -0.0475 -0.1735  0.1827
  532POPC   C3B 6383  15.399   8.898  17.952 -0.0117 -0.2400  0.2984
  532POPC   C4B 6384  15.872   8.814  18.179  0.1054 -0.1819  0.0187
  533POPC   NC3 6385   7.729   0.310  19.657 -0.1136 -0.3161  0.1902
  533POPC   PO4 6386   7.775   0.055  19.364  0.0488 -0.1657 -0.3555
  533POPC   GL1 6387   7.903   0.223  18.965 -0.2510  0.5102 -0.1200
  533POPC   GL2 6388   8.138   0.172  18.809 -0.0624 -0.0493 -0.0286
  533POPC   C1A 6389   7.701   0.238  18.570 -0.0100 -0.0726  0.0661
  533POPC   D2A 6390   7.812   0.214  18.123  0.1143 -0.2475  0.3979
  533POPC   C3A 6391   7.499   0.033  17.837  0.0525  0.0031  0.0996
  533POPC   C4A 6392   7.126  -0.034  17.529  0.2155  0.1898  0.0565
  533POPC   C1B 6393   8.086  -0.123  18.438  0.2784 -0.0469  0.0927
  533POPC   C2B 6394   8.007  -0.307  18.043 -0.2788 -0.2690  0.1041
  533POPC   C3B 6395   7.983  -0.057  17.655 -0.0281  0.1110  0.1173
  533POPC   C4B 6396   8.005  -0.118  17.221 -0.3012 -0.2892 -0.0894
  534POPC   NC3 6397  10.730   7.251  19.192 -0.2480  0.5336 -0.1283
  534POPC   PO4 6398  10.765   6.824  19.158 -0.0734  0.1686  0.1410
  534POPC   GL1 6399  10.700   6.991  18.776  0.3660  0.2815  0.4047
  534POPC   GL2 6400  11.040   7.090  18.783 -0.1036  0.1743 -0.1353
  534POPC   C1A 6401  10.309   7.176  18.608  0.0914 -0.2470 -0.1952
  534POPC   D2A 6402  10.115   7.485  18.911  0.0476 -0.0451 -0.0667
  534POPC   C3A 6403  10.437   7.839  18.947 -0.1129  0.1674  0.0415
  534POPC   C4A 6404  10.799   8.138  18.913  0.1627 -0.0944 -0.0213
  534POPC   C1B 6405  10.837   7.116  18.331 -0.0493  0.1770 -0.0656
  534POPC   C2B 6406  10.818   7.244  17.870  0.2107 -0.1999  0.0056
  534POPC   C3B 6407  10.508   7.333  17.514  0.0592 -0.1488  0.0875
  534POPC   C4B 6408  10.489   7.135  17.105  0.1965  0.0671  0.1639
  535POPC   NC3 6409  15.808  26.462  18.700  0.0699  0.1268 -0.0609
  535POPC   PO4 6410  15.762  26.521  19.099  0.1265 -0.2958 -0.0609
  535POPC   GL1 6411  15.521  26.763  18.867  0.2089  0.2429 -0.0447
  535POPC   GL2 6412  15.417  27.009  18.945  0.1344 -0.0951  0.0442
  535POPC   C1A 6413  15.350  26.688  18.450 -0.0958 -0.1866 -0.1067
  535POPC   D2A 6414  15.508  26.318  18.099 -0.1173 -0.2206 -0.1095
  535POPC   C3A 6415  15.791  26.513  17.747 -0.4963 -0.1016 -0.2530
  535POPC   C4A 6416  15.887  26.590  17.269  0.1478  0.0188  0.1075
  535POPC   C1B 6417  15.564  27.145  18.520  0.2925 -0.0929 -0.3331
  535POPC   C2B 6418  15.272  27.268  18.247  0.0638 -0.2241  0.0801
  535POPC   C3B 6419  14.795  27.164  18.134  0.0235  0.2809  0.2304
  535POPC   C4B 6420  14.375  26.994  17.968  0.0969  0.3132  0.0844
  536POPC   NC3 6421   2.749   6.145  19.401 -0.5880 -0.0957  0.1158
  536POPC   PO4 6422   3.118   6.217  19.252  0.2725 -0.0864 -0.1367
  536POPC   GL1 6423   3.064   6.230  18.911 -0.1287  0.1406 -0.3261
  536POPC   GL2 6424   2.864   6.423  18.867  0.1657 -0.3057  0.1369
  536POPC   C1A 6425   3.143   6.362  18.445 -0.5470 -0.1798  0.0504
  536POPC   D2A 6426   3.006   6.137  18.073  0.1336 -0.0241  0.4269
  536POPC   C3A 6427   2.998   6.006  17.635 -0.3504  0.0174  0.1279
  536POPC   C4A 6428   3.246   5.885  17.253 -0.2198  0.2387  0.0380
  536POPC   C1B 6429   2.483   6.120  18.828 -0.1022  0.0394  0.0790
  536POPC   C2B 6430   2.164   5.820  18.612 -0.1942  0.0734 -0.2145
  536POPC   C3B 6431   1.847   5.709  18.274 -0.0971  0.1764 -0.1865
  536POPC   C4B 6432   1.600   5.941  17.911  0.1635 -0.1936  0.3956
  537POPC   NC3 6433   3.601   4.749  18.937  0.1879 -0.2242  0.0671
  537POPC   PO4 6434   3.961   4.639  19.094  0.2972 -0.3533  0.0807
  537POPC   GL1 6435   4.023   4.544  18.712  0.1773 -0.2880  0.0242
  537POPC   GL2 6436   4.339   4.621  18.690  0.1622  0.0638 -0.3319
  537POPC   C1A 6437   3.930   4.378  18.268 -0.2163 -0.3123  0.0746
  537POPC   D2A 6438   3.765   4.226  17.839 -0.2697  0.1772  0.2431
  537POPC   C3A 6439   3.942   4.083  17.459 -0.5610 -0.0356  0.2230
  537POPC   C4A 6440   4.172   3.672  17.450  0.1771  0.1940 -0.0187
  537POPC   C1B 6441   4.431   4.598  18.242 -0.2131 -0.0597 -0.2124
  537POPC   C2B 6442   4.235   4.538  17.835 -0.0249 -0.2525  0.1939
  537POPC   C3B 6443   3.979   4.592  17.421 -0.0502 -0.2166  0.2592
  537POPC   C4B 6444   3.574   4.657  17.152  0.0669 -0.3204  0.1717
  538POPC   NC3 6445   5.197   1.420  19.296  0.3233 -0.0275  0.0711
  538POPC   PO4 6446   4.972   1.564  19.052  0.3254 -0.0429 -0.1807
  538POPC   GL1 6447   4.921   1.575  18.659  0.3249  0.0593  0.0937
  538POPC   GL2 6448   4.731   1.525  18.484  0.2303  0.0133 -0.2889
  538POPC   C1A 6449   5.228   1.710  18.339 -0.0734  0.0412 -0.1430
  538POPC   D2A 6450   5.574   1.982  18.238  0.2872  0.2506  0.1118
  538POPC   C3A 6451   5.409   2.184  17.885 -0.1604 -0.1064 -0.0322
  538POPC   C4A 6452   5.302   2.401  17.498 -0.4824 -0.1835 -0.0146
  538POPC   C1B 6453   4.836   1.498  17.993  0.2207  0.2769  0.1210
  538POPC   C2B 6454   4.750   1.176  17.670 -0.1001 -0.1453  0.1986
  538POPC   C3B 6455   4.961   1.104  17.270 -0.0670  0.0226  0.2495
  538POPC   C4B 6456   5.178   1.089  16.826 -0.0565  0.0665  0.1801
  539POPC   NC3 6457   8.171   2.023  19.529 -0.1117 -0.0400  0.2212
  539POPC   PO4 6458   8.364   2.138  19.221 -0.0371 -0.1937  0.0612
  539POPC   GL1 6459   8.051   2.421  19.121 -0.0292  0.3140  0.0827
  539POPC   GL2 6460   7.981   2.151  18.898 -0.1909  0.3892  0.0990
  539POPC   C1A 6461   7.854   2.798  19.231 -0.2122 -0.1104  0.1254
  539POPC   D2A 6462   7.669   3.271  19.275  0.0567  0.1363  0.1043
  539POPC   C3A 6463   7.248   3.281  19.468  0.0801 -0.1053 -0.1005
  539POPC   C4A 6464   6.827   3.372  19.605  0.1010 -0.1715 -0.2187
  539POPC   C1B 6465   8.098   2.134  18.493 -0.0989 -0.3156  0.1260
  539POPC   C2B 6466   8.378   2.307  18.179 -0.2334  0.1738 -0.0574
  539POPC   C3B 6467   8.507   2.467  17.789  0.0297  0.0414 -0.1873
  539POPC   C4B 6468   8.768   2.730  17.506 -0.3204  0.0903  0.1449
  540POPC   NC3 6469   1.301  14.667  19.101  0.0273  0.3254  0.0079
  540POPC   PO4 6470   1.527  14.853  19.370  0.2663  0.0635 -0.2053
  540POPC   GL1 6471   1.452  15.180  19.093  0.0513  0.0079 -0.1994
  540POPC   GL2 6472   1.218  15.108  18.959  0.2296 -0.2611  0.0955
  540POPC   C1A 6473   1.623  15.263  18.656 -0.2865  0.1361 -0.0886
  540POPC   D2A 6474   1.968  15.421  18.406  0.1528 -0.1615 -0.1902
  540POPC   C3A 6475   2.051  15.361  17.971  0.1636 -0.0088  0.4176
  540POPC   C4A 6476   1.918  15.331  17.473  0.0515 -0.2677 -0.0276
  540POPC   C1B 6477   1.014  15.285  18.632 -0.0048  0.0263 -0.4136
  540POPC   C2B 6478   0.772  15.126  18.307  0.0859  0.2579  0.2519
  540POPC   C3B 6479   0.596  15.233  17.850  0.4070 -0.0489 -0.0814
  540POPC   C4B 6480   0.729  15.354  17.386 -0.0307  0.2281  0.0444
  541POPC   NC3 6481   4.681  12.173  19.694 -0.2443  0.0237 -0.1039
  541POPC   PO4 6482   4.999  12.370  19.505  0.2350 -0.1625 -0.2322
  541POPC   GL1 6483   5.212  12.546  19.174 -0.2399 -0.0964  0.1555
  541POPC   GL2 6484   4.974  12.339  19.014  0.0385 -0.1003 -0.3067
  541POPC   C1A 6485   5.458  12.468  18.787  0.2540  0.1082  0.1619
  541POPC   D2A 6486   5.737  12.392  18.374  0.0610 -0.1425  0.0052
  541POPC   C3A 6487   5.744  12.744  18.079 -0.0921  0.1834  0.0735
  541POPC   C4A 6488   5.961  12.781  17.641  0.2067  0.1055  0.0026
  541POPC   C1B 6489   5.001  12.344  18.544 -0.1209 -0.0557 -0.3467
  541POPC   C2B 6490   5.289  12.542  18.214 -0.0029  0.0068  0.2408
  541POPC   C3B 6491   5.383  12.492  17.764  0.4346  0.2903 -0.0221
  541POPC   C4B 6492   5.651  12.497  17.365 -0.0293 -0.0348 -0.0485
  542POPC   NC3 6493  14.233  27.540  19.475  0.0851  0.2568 -0.0639
  542POPC   PO4 6494  14.352  27.122  19.515  0.0212  0.1581  0.2062
  542POPC   GL1 6495  14.412  27.175  19.134  0.2345 -0.0587  0.0809
  542POPC   GL2 6496  14.606  26.951  19.068  0.1873  0.3033 -0.1816
  542POPC   C1A 6497  14.442  27.398  18.723  0.1842 -0.0321  0.2116
  542POPC   D2A 6498  14.375  27.408  18.227 -0.2464  0.0073  0.0566
  542POPC   C3A 6499  14.356  27.458  17.801 -0.2932 -0.2246 -0.0950
  542POPC   C4A 6500  14.403  27.822  17.498 -0.1936 -0.0892  0.1361
  542POPC   C1B 6501  14.724  26.590  18.786 -0.0772 -0.0860 -0.1850
  542POPC   C2B 6502  14.904  26.453  18.372  0.2925 -0.2441  0.1637
  542POPC   C3B 6503  14.960  26.703  17.966  0.0792  0.1092 -0.0668
  542POPC   C4B 6504  14.772  27.014  17.636  0.1919  0.4749 -0.2696
  543POPC   NC3 6505  14.171   8.254  19.103 -0.2191 -0.0759 -0.0014
  543POPC   PO4 6506  14.285   8.615  19.228  0.0204 -0.1529  0.0069
  543POPC   GL1 6507  14.072   8.656  18.850 -0.2692 -0.1903  0.0410
  543POPC   GL2 6508  13.905   8.368  18.710 -0.0857 -0.1290 -0.0190
  543POPC   C1A 6509  14.309   8.519  18.472 -0.0882  0.3921  0.0347
  543POPC   D2A 6510  14.397   8.513  17.986 -0.1210 -0.2334 -0.2967
  543POPC   C3A 6511  14.827   8.519  17.712 -0.1060 -0.2257 -0.1736
  543POPC   C4A 6512  15.282   8.472  17.508 -0.0510  0.1452  0.0549
  543POPC   C1B 6513  13.819   8.494  18.222 -0.2888 -0.0982 -0.3193
  543POPC   C2B 6514  13.894   8.326  17.808  0.0182 -0.0980 -0.1994
  543POPC   C3B 6515  14.031   8.086  17.415  0.2856 -0.1373 -0.0626
  543POPC   C4B 6516  14.209   7.742  17.127  0.2788  0.0612 -0.1633
  544POPC   NC3 6517  13.354   8.065  19.399 -0.2519 -0.1709 -0.2629
  544POPC   PO4 6518  13.633   8.246  19.681 -0.1864  0.1939  0.0948
  544POPC   GL1 6519  13.807   8.151  19.392 -0.0319  0.1553 -0.0249
  544POPC   GL2 6520  13.857   7.888  19.348 -0.1671  0.2637 -0.0460
  544POPC   C1A 6521  13.630   8.010  18.947 -0.4049  0.1231  0.3634
  544POPC   D2A 6522  13.561   7.853  18.516 -0.0987 -0.3094 -0.0160
  544POPC   C3A 6523  13.840   7.547  18.311 -0.2923 -0.0486  0.0410
  544POPC   C4A 6524  14.208   7.458  18.030  0.2485 -0.1431 -0.2488
  544POPC   C1B 6525  13.843   7.578  18.977  0.4510  0.0410  0.0183
  544POPC   C2B 6526  14.172   7.367  18.624  0.2097  0.1998 -0.1208
  544POPC   C3B 6527  14.110   7.042  18.327 -0.0298  0.0151  0.2255
  544POPC   C4B 6528  14.342   6.691  18.082 -0.1875 -0.0932  0.1389
  545POPC   NC3 6529   6.040   9.326  18.656 -0.1589 -0.3085 -0.0031
  545POPC   PO4 6530   6.152   8.964  18.758  0.1744  0.1955  0.1328
  545POPC   GL1 6531   6.115   8.839  18.495 -0.0051 -0.1201  0.0523
  545POPC   GL2 6532   6.097   9.010  18.216  0.1082  0.0499  0.0787
  545POPC   C1A 6533   6.265   8.490  18.192 -0.0391  0.0352  0.1834
  545POPC   D2A 6534   6.377   8.098  17.857  0.1373  0.0236  0.3256
  545POPC   C3A 6535   6.484   8.222  17.404 -0.1222 -0.1793  0.0012
  545POPC   C4A 6536   6.355   8.137  16.966  0.2415 -0.1556  0.1787
  545POPC   C1B 6537   6.060   9.074  17.746  0.3166 -0.1598  0.2942
  545POPC   C2B 6538   5.964   9.045  17.280  0.1360 -0.2564  0.0147
  545POPC   C3B 6539   5.869   8.992  16.800  0.2272  0.0372  0.0540
  545POPC   C4B 6540   5.562   8.965  16.519  0.2112 -0.3386 -0.0848
  546POPC   NC3 6541   3.903  24.960  19.265  0.0901  0.3282  0.1457
  546POPC   PO4 6542   3.526  24.839  19.149  0.0840  0.0667 -0.3370
  546POPC   GL1 6543   3.477  24.968  18.751 -0.0840  0.4585  0.0473
  546POPC   GL2 6544   3.536  25.216  18.733 -0.4058  0.0930  0.1685
  546POPC   C1A 6545   3.639  24.744  18.356  0.1988 -0.0528 -0.2239
  546POPC   D2A 6546   3.772  24.808  17.964 -0.2357 -0.1617  0.0842
  546POPC   C3A 6547   3.612  24.746  17.555 -0.1711 -0.1786 -0.0409
  546POPC   C4A 6548   3.505  24.989  17.174 -0.0029  0.1204  0.1580
  546POPC   C1B 6549   3.401  25.127  18.306  0.3217 -0.0291  0.4563
  546POPC   C2B 6550   3.317  25.082  17.851  0.3114  0.1114 -0.2815
  546POPC   C3B 6551   3.496  25.323  17.548  0.0989 -0.1834 -0.3449
  546POPC   C4B 6552   3.832  25.530  17.391 -0.0656  0.1550 -0.5820
  547POPC   NC3 6553   9.129   2.112  19.535  0.1866 -0.2141 -0.1227
  547POPC   PO4 6554   9.432   2.216  19.299 -0.1707  0.1125  0.0254
  547POPC   GL1 6555   9.484   1.937  19.060 -0.0146  0.0665  0.2014
  547POPC   GL2 6556   9.244   2.023  18.897 -0.2562 -0.0824  0.0672
  547POPC   C1A 6557   9.572   1.634  18.764 -0.0834  0.0430  0.1092
  547POPC   D2A 6558   9.584   1.534  18.290 -0.0247 -0.0527  0.0242
  547POPC   C3A 6559   9.683   1.553  17.828 -0.0693 -0.1505  0.0674
  547POPC   C4A 6560   9.673   1.576  17.371 -0.2155 -0.0437 -0.1946
  547POPC   C1B 6561   9.354   2.227  18.529  0.0755 -0.0445 -0.1057
  547POPC   C2B 6562   9.412   2.437  18.106  0.1296  0.1668 -0.2299
  547POPC   C3B 6563   9.210   2.677  17.809  0.2587 -0.3394 -0.3448
  547POPC   C4B 6564   9.262   2.758  17.380 -0.1349  0.2315 -0.0519
  548POPC   NC3 6565   7.225  22.595  19.236  0.0277 -0.0513 -0.0722
  548POPC   PO4 6566   6.890  22.349  19.199 -0.2702  0.1693 -0.0373
  548POPC   GL1 6567   7.045  22.496  18.835  0.2159  0.1841  0.1244
  548POPC   GL2 6568   7.089  22.317  18.567 -0.1502  0.2879 -0.1533
  548POPC   C1A 6569   7.194  22.919  18.678  0.0332 -0.0031 -0.0206
  548POPC   D2A 6570   7.309  23.076  18.266  0.1622  0.0748 -0.0862
  548POPC   C3A 6571   7.547  23.032  17.869  0.1274 -0.1172  0.0238
  548POPC   C4A 6572   7.842  22.964  17.573 -0.1079  0.0957 -0.3422
  548POPC   C1B 6573   7.039  22.604  18.226  0.1094  0.2308  0.0838
  548POPC   C2B 6574   7.037  22.920  17.830  0.1253  0.0627  0.1101
  548POPC   C3B 6575   7.260  22.875  17.441 -0.0241 -0.0009  0.2026
  548POPC   C4B 6576   7.576  22.924  17.138  0.1623  0.0574  0.3474
  549POPC   NC3 6577  12.252   8.887  19.146  0.4291 -0.0220  0.1229
  549POPC   PO4 6578  12.520   9.121  19.299 -0.0273  0.1626 -0.0430
  549POPC   GL1 6579  12.486   9.169  18.815 -0.1761 -0.0360  0.4123
  549POPC   GL2 6580  12.196   9.215  18.759 -0.0624 -0.2222 -0.0032
  549POPC   C1A 6581  12.506   9.233  18.370  0.1593 -0.2424  0.0685
  549POPC   D2A 6582  12.363   9.436  17.993  0.1540 -0.0143  0.0934
  549POPC   C3A 6583  12.559   9.662  17.611 -0.0990  0.0573  0.1413
  549POPC   C4A 6584  12.995   9.567  17.455  0.1758 -0.0364 -0.3382
  549POPC   C1B 6585  12.019   9.492  18.510 -0.2371 -0.1908  0.1543
  549POPC   C2B 6586  11.848   9.461  18.081 -0.0884 -0.2848  0.0066
  549POPC   C3B 6587  11.945   9.457  17.605 -0.1266 -0.0077 -0.0639
  549POPC   C4B 6588  12.161   9.649  17.207 -0.1192  0.0506 -0.0332
  550POPC   NC3 6589   4.626   9.593  19.385 -0.2895 -0.2815 -0.1003
  550POPC   PO4 6590   4.874   9.309  19.342  0.1382  0.1289 -0.0225
  550POPC   GL1 6591   4.937   9.290  18.938 -0.2672  0.1856  0.0410
  550POPC   GL2 6592   4.816   9.513  18.854 -0.1579 -0.2155 -0.0107
  550POPC   C1A 6593   4.921   9.038  18.547  0.0391 -0.2850  0.0040
  550POPC   D2A 6594   4.662   9.128  18.206 -0.0612  0.2059 -0.0938
  550POPC   C3A 6595   4.844   9.366  17.905 -0.3520 -0.0119 -0.0476
  550POPC   C4A 6596   5.210   9.634  17.776  0.1608 -0.0666 -0.0870
  550POPC   C1B 6597   4.880   9.599  18.442 -0.0696  0.1434  0.1807
  550POPC   C2B 6598   4.887   9.839  18.074  0.1622 -0.1937  0.0486
  550POPC   C3B 6599   4.905   9.978  17.632 -0.0327 -0.4225 -0.1484
  550POPC   C4B 6600   4.780   9.832  17.212  0.0905  0.0617 -0.1709
  551POPC   NC3 6601   1.254  13.086  19.056  0.0158 -0.0839  0.1201
  551POPC   PO4 6602   1.518  12.801  18.954  0.0348  0.0761 -0.0728
  551POPC   GL1 6603   1.620  12.662  18.698  0.1427  0.0229 -0.2034
  551POPC   GL2 6604   1.692  12.389  18.645 -0.0067 -0.0620  0.2903
  551POPC   C1A 6605   1.697  12.821  18.231  0.1604  0.4221  0.0662
  551POPC   D2A 6606   1.955  12.912  17.837 -0.0536  0.0954 -0.0429
  551POPC   C3A 6607   2.177  12.907  17.437 -0.0697 -0.1644  0.0663
  551POPC   C4A 6608   2.013  13.051  17.086 -0.1642 -0.4814  0.1915
  551POPC   C1B 6609   1.948  12.369  18.335  0.1135  0.1509  0.3518
  551POPC   C2B 6610   1.959  12.436  17.906  0.1106 -0.0368  0.1074
  551POPC   C3B 6611   1.792  12.643  17.457  0.1794 -0.2982 -0.2444
  551POPC   C4B 6612   1.339  12.695  17.346 -0.0123 -0.0046 -0.0022
  552POPC   NC3 6613  12.024  26.621  20.068  0.1313  0.1928  0.0195
  552POPC   PO4 6614  12.204  26.681  19.713 -0.0884  0.2177  0.0520
  552POPC   GL1 6615  12.136  26.673  19.285 -0.0020 -0.0373 -0.1231
  552POPC   GL2 6616  12.050  26.389  19.316 -0.0256 -0.1557 -0.1376
  552POPC   C1A 6617  12.301  26.958  18.922 -0.2279  0.1999 -0.0017
  552POPC   D2A 6618  12.298  27.267  18.636 -0.3343  0.0059  0.0128
  552POPC   C3A 6619  12.228  27.193  18.148  0.1820  0.1271 -0.0229
  552POPC   C4A 6620  12.174  26.916  17.755 -0.1047  0.4048  0.3304
  552POPC   C1B 6621  12.135  26.477  18.860 -0.3409 -0.2701  0.0286
  552POPC   C2B 6622  11.939  26.604  18.458 -0.3905  0.5415  0.1711
  552POPC   C3B 6623  11.773  26.836  18.075  0.0375  0.0748  0.5577
  552POPC   C4B 6624  11.699  27.035  17.613 -0.1162 -0.0175  0.0493
  553POPC   NC3 6625   6.383  10.962  19.212  0.2543  0.1542 -0.0446
  553POPC   PO4 6626   6.805  10.935  19.335  0.1059 -0.1306 -0.2202
  553POPC   GL1 6627   6.772  10.889  19.024  0.0983 -0.0474  0.3352
  553POPC   GL2 6628   6.930  10.641  18.926 -0.2429 -0.1444  0.0602
  553POPC   C1A 6629   6.599  11.216  18.753  0.1833  0.0338  0.1556
  553POPC   D2A 6630   6.704  11.663  18.661  0.1661 -0.2276 -0.0100
  553POPC   C3A 6631   7.047  11.640  18.339  0.0175  0.3128 -0.1336
  553POPC   C4A 6632   7.248  11.394  17.970  0.0196  0.0570  0.0734
  553POPC   C1B 6633   7.003  10.695  18.528  0.2376 -0.0351  0.2832
  553POPC   C2B 6634   7.159  10.881  18.074 -0.1592  0.1951 -0.2222
  553POPC   C3B 6635   7.425  11.041  17.721  0.3036  0.1042 -0.1900
  553POPC   C4B 6636   7.243  10.894  17.315 -0.1514 -0.3707  0.0074
  554POPC   NC3 6637  12.689  22.471  19.487 -0.1447 -0.0126 -0.1200
  554POPC   PO4 6638  12.501  22.520  19.167  0.1443 -0.4919 -0.0231
  554POPC   GL1 6639  12.461  22.623  18.783 -0.0802 -0.1208  0.1254
  554POPC   GL2 6640  12.688  22.823  18.766 -0.0711 -0.1466  0.0520
  554POPC   C1A 6641  12.340  22.841  18.407  0.2331 -0.1433 -0.0548
  554POPC   D2A 6642  12.103  22.932  18.002  0.1393 -0.1045 -0.3418
  554POPC   C3A 6643  12.123  22.595  17.675  0.0687 -0.0026  0.1761
  554POPC   C4A 6644  12.229  22.143  17.767 -0.1631  0.0628  0.0055
  554POPC   C1B 6645  12.856  22.916  18.312 -0.0068 -0.0497 -0.1336
  554POPC   C2B 6646  13.000  22.866  17.870 -0.1477 -0.0046 -0.2816
  554POPC   C3B 6647  13.261  22.736  17.481  0.2026 -0.0031  0.0748
  554POPC   C4B 6648  13.502  22.430  17.164 -0.0299 -0.0909 -0.0599
  555POPC   NC3 6649   1.999  31.698  19.603  0.1877 -0.0926  0.2665
  555POPC   PO4 6650   2.146  31.458  19.328  0.1884 -0.1031  0.1932
  555POPC   GL1 6651   2.015  31.505  18.894 -0.3210  0.2594  0.0151
  555POPC   GL2 6652   2.247  31.559  18.740  0.1158  0.2262 -0.1490
  555POPC   C1A 6653   1.695  31.719  18.689  0.2268 -0.0860 -0.1192
  555POPC   D2A 6654   1.431  31.689  18.292  0.0006 -0.3392 -0.0902
  555POPC   C3A 6655   1.260  31.302  18.179  0.0909  0.1175  0.1098
  555POPC   C4A 6656   1.152  31.124  17.771  0.0852 -0.1115  0.0570
  555POPC   C1B 6657   2.564  31.475  18.455  0.1559  0.2742 -0.1680
  555POPC   C2B 6658   2.649  31.698  18.081 -0.0743 -0.0524  0.3677
  555POPC   C3B 6659   2.528  31.743  17.638 -0.2630 -0.1871  0.1722
  555POPC   C4B 6660   2.428  31.962  17.241  0.0044  0.1743 -0.1249
  556POPC   NC3 6661   1.351  27.074  19.181  0.4402 -0.0787 -0.0324
  556POPC   PO4 6662   0.967  27.175  19.312  0.0170 -0.1278  0.0916
  556POPC   GL1 6663   1.043  27.214  18.887  0.0726 -0.0342  0.0184
  556POPC   GL2 6664   1.104  26.930  18.794 -0.0886  0.0556 -0.1321
  556POPC   C1A 6665   0.822  27.237  18.426  0.0595  0.1103 -0.3787
  556POPC   D2A 6666   1.070  27.271  18.047 -0.0252  0.0010 -0.3955
  556POPC   C3A 6667   1.138  27.609  17.683  0.0138 -0.0476  0.1767
  556POPC   C4A 6668   1.163  28.026  17.469 -0.2009 -0.0592 -0.1709
  556POPC   C1B 6669   1.301  26.960  18.389 -0.1079 -0.1794 -0.0224
  556POPC   C2B 6670   1.520  26.990  17.974  0.0484 -0.2167  0.1764
  556POPC   C3B 6671   1.513  27.269  17.651  0.0537  0.1836 -0.1563
  556POPC   C4B 6672   1.351  27.307  17.255 -0.1579 -0.0819 -0.0517
  557POPC   NC3 6673   2.805   3.389  19.364  0.1938 -0.3860  0.0834
  557POPC   PO4 6674   2.709   3.665  19.059 -0.1612 -0.0955  0.2750
  557POPC   GL1 6675   2.561   3.748  18.752 -0.1122 -0.2899 -0.0509
  557POPC   GL2 6676   2.797   3.938  18.648 -0.0905  0.0548 -0.1280
  557POPC   C1A 6677   2.706   3.421  18.398 -0.0949 -0.0127  0.1956
  557POPC   D2A 6678   2.574   3.046  18.123 -0.1048 -0.0330 -0.1227
  557POPC   C3A 6679   2.385   2.965  17.658 -0.2347 -0.1740  0.0760
  557POPC   C4A 6680   2.244   2.962  17.262  0.2239  0.4378  0.3228
  557POPC   C1B 6681   2.720   3.880  18.200 -0.2220  0.0093 -0.3230
  557POPC   C2B 6682   2.660   3.864  17.767 -0.0351 -0.3008  0.3007
  557POPC   C3B 6683   2.481   3.975  17.328  0.0486  0.0844 -0.1333
  557POPC   C4B 6684   2.447   4.098  16.843 -0.1304  0.2037  0.1598
  558POPC   NC3 6685   1.306   5.216  19.645  0.0064 -0.1877  0.4494
  558POPC   PO4 6686   1.021   5.319  19.876  0.0689 -0.0758  0.1529
  558POPC   GL1 6687   0.903   5.614  19.579 -0.1122 -0.1024  0.3404
  558POPC   GL2 6688   0.749   5.763  19.796 -0.0531 -0.0298  0.2691
  558POPC   C1A 6689   0.641   5.866  19.329  0.0287 -0.1662  0.1828
  558POPC   D2A 6690   0.339   6.186  19.447 -0.1470 -0.5262 -0.0586
  558POPC   C3A 6691  -0.123   6.217  19.445 -0.0989 -0.1492  0.0816
  558POPC   C4A 6692  -0.319   6.331  19.078 -0.0480 -0.0879  0.0232
  558POPC   C1B 6693   0.309   5.839  19.855 -0.0422  0.0931 -0.3791
  558POPC   C2B 6694   0.009   6.247  19.981  0.1573 -0.0126 -0.0558
  558POPC   C3B 6695  -0.244   6.611  20.106 -0.1235  0.2593  0.1573
  558POPC   C4B 6696  -0.586   6.778  20.279 -0.2071 -0.2049 -0.0361
  559POPC   NC3 6697   1.960   5.451  19.465 -0.1206  0.3538  0.0874
  559POPC   PO4 6698   1.770   5.201  19.198  0.0407  0.0672  0.0615
  559POPC   GL1 6699   1.706   5.242  18.829  0.1511  0.1341 -0.1831
  559POPC   GL2 6700   1.824   5.500  18.740 -0.0767  0.0747  0.2315
  559POPC   C1A 6701   1.689   5.254  18.365  0.1920  0.2304  0.0305
  559POPC   D2A 6702   1.833   4.925  18.173  0.4633 -0.2120  0.0069
  559POPC   C3A 6703   1.520   4.973  17.778  0.0448  0.2882  0.0774
  559POPC   C4A 6704   1.100   4.938  17.600 -0.1971 -0.0646 -0.0609
  559POPC   C1B 6705   1.600   5.896  18.678 -0.1532  0.0041  0.0174
  559POPC   C2B 6706   1.477   6.206  18.331 -0.0997  0.0874 -0.0118
  559POPC   C3B 6707   1.254   6.360  17.933 -0.1350 -0.2861 -0.4587
  559POPC   C4B 6708   1.125   6.657  17.556  0.1314  0.0342 -0.1734
  560POPC   NC3 6709   9.403  12.233  19.323  0.0010 -0.1588 -0.3367
  560POPC   PO4 6710   9.712  12.014  19.478 -0.0569 -0.2795  0.2392
  560POPC   GL1 6711   9.709  12.025  19.100 -0.5895 -0.3050 -0.0050
  560POPC   GL2 6712   9.516  11.804  19.061  0.0565 -0.2221 -0.1986
  560POPC   C1A 6713   9.485  12.310  18.795 -0.3308 -0.0469 -0.0680
  560POPC   D2A 6714   9.342  12.313  18.341 -0.0882  0.0433  0.0199
  560POPC   C3A 6715   9.353  11.905  18.161  0.2008 -0.1122 -0.2730
  560POPC   C4A 6716   9.349  11.503  18.018 -0.2255  0.3425  0.2715
  560POPC   C1B 6717   9.723  11.815  18.689  0.1486 -0.2490 -0.0238
  560POPC   C2B 6718   9.792  12.156  18.402 -0.1394 -0.1534  0.0463
  560POPC   C3B 6719   9.946  12.538  18.177 -0.0662 -0.3525  0.1632
  560POPC   C4B 6720  10.374  12.729  17.992  0.0040 -0.0950  0.0999
  561POPC   NC3 6721  11.563  16.982  19.401  0.3153  0.1226 -0.3481
  561POPC   PO4 6722  11.460  17.283  19.104  0.3597  0.0145  0.0103
  561POPC   GL1 6723  11.370  17.498  18.744  0.0820 -0.2373 -0.1006
  561POPC   GL2 6724  11.568  17.607  18.607 -0.2678 -0.3196 -0.0376
  561POPC   C1A 6725  11.273  17.290  18.358 -0.2838 -0.0035  0.1596
  561POPC   D2A 6726  11.197  16.909  18.093 -0.0184  0.1977  0.2008
  561POPC   C3A 6727  10.825  16.861  17.868  0.0417 -0.2295  0.0364
  561POPC   C4A 6728  10.686  16.767  17.426  0.0357 -0.0890 -0.1055
  561POPC   C1B 6729  11.607  17.599  18.152  0.1008  0.1481 -0.0174
  561POPC   C2B 6730  11.849  17.674  17.784 -0.3465 -0.2664  0.2292
  561POPC   C3B 6731  11.969  17.809  17.377 -0.1262  0.0715  0.2195
  561POPC   C4B 6732  12.259  17.741  16.991  0.2435 -0.0091  0.2364
  562POPC   NC3 6733  10.793  13.898  19.507  0.1822 -0.0529  0.1167
  562POPC   PO4 6734  10.474  13.723  19.619 -0.0955  0.2797 -0.0112
  562POPC   GL1 6735  10.549  13.540  19.206 -0.2751 -0.0974 -0.1250
  562POPC   GL2 6736  10.540  13.780  19.056 -0.3874 -0.0447 -0.0970
  562POPC   C1A 6737  10.687  13.288  18.826 -0.1545 -0.1603 -0.2396
  562POPC   D2A 6738  10.599  13.163  18.359  0.1013  0.1926  0.5166
  562POPC   C3A 6739  10.525  13.206  17.879 -0.2596 -0.0385  0.1580
  562POPC   C4A 6740  10.331  13.076  17.522  0.1591  0.0901 -0.0881
  562POPC   C1B 6741  10.412  13.653  18.645 -0.6241 -0.4431  0.1129
  562POPC   C2B 6742  10.336  13.613  18.180  0.1494 -0.0128  0.1889
  562POPC   C3B 6743  10.073  13.568  17.791  0.1251  0.0296 -0.2133
  562POPC   C4B 6744   9.861  13.817  17.495 -0.0319 -0.1932  0.1697
  563POPC   NC3 6745  13.585  20.314  19.659  0.0197 -0.0184 -0.1595
  563POPC   PO4 6746  13.731  20.006  19.388  0.0151  0.1877 -0.0236
  563POPC   GL1 6747  13.587  19.752  19.139  0.1410  0.1276  0.0178
  563POPC   GL2 6748  13.526  19.930  18.941 -0.0790  0.2155  0.2044
  563POPC   C1A 6749  13.699  19.496  18.762  0.0109  0.1782  0.1745
  563POPC   D2A 6750  13.620  19.259  18.373  0.2735 -0.3213  0.1467
  563POPC   C3A 6751  13.946  19.121  18.112 -0.2668  0.2595 -0.1002
  563POPC   C4A 6752  14.381  18.847  18.129 -0.3747  0.0314 -0.1869
  563POPC   C1B 6753  13.483  19.840  18.452  0.0281  0.0775  0.1933
  563POPC   C2B 6754  13.390  20.064  18.065  0.2071 -0.1054  0.3055
  563POPC   C3B 6755  13.235  20.270  17.670  0.1098  0.1046 -0.1724
  563POPC   C4B 6756  13.090  20.406  17.224 -0.0940  0.1175  0.2817
  564POPC   NC3 6757   5.572  18.116  19.266  0.0754  0.2248  0.0962
  564POPC   PO4 6758   5.720  17.764  19.336 -0.1664  0.0764  0.0034
  564POPC   GL1 6759   5.883  17.856  18.986  0.1024 -0.0764 -0.1958
  564POPC   GL2 6760   5.679  17.974  18.768  0.3257 -0.0797  0.0700
  564POPC   C1A 6761   6.292  17.855  18.772 -0.3154 -0.1512 -0.4737
  564POPC   D2A 6762   6.772  17.790  18.737 -0.5358  0.0861  0.1942
  564POPC   C3A 6763   6.995  17.491  18.495 -0.0847 -0.1967 -0.2936
  564POPC   C4A 6764   7.277  17.426  18.147  0.1368 -0.0666 -0.1132
  564POPC   C1B 6765   6.004  18.075  18.422  0.1707  0.1027 -0.3052
  564POPC   C2B 6766   6.128  18.153  18.012 -0.1932  0.1197 -0.1820
  564POPC   C3B 6767   6.150  17.919  17.586 -0.3057 -0.0154 -0.0947
  564POPC   C4B 6768   6.397  17.957  17.239 -0.0994 -0.0285 -0.3081
  565POPC   NC3 6769   8.243  16.892  19.581  0.1485 -0.2972 -0.0775
  565POPC   PO4 6770   8.509  17.157  19.728 -0.1154  0.0832 -0.2153
  565POPC   GL1 6771   8.379  17.357  19.403 -0.0894 -0.3167  0.2545
  565POPC   GL2 6772   8.492  17.189  19.183 -0.1408 -0.2782  0.1023
  565POPC   C1A 6773   8.119  17.588  19.087 -0.2067 -0.1328 -0.1265
  565POPC   D2A 6774   7.923  17.408  18.709 -0.0433  0.1126  0.0104
  565POPC   C3A 6775   8.057  17.668  18.389  0.3105 -0.0057  0.0756
  565POPC   C4A 6776   8.146  17.873  18.019  0.0372  0.0134  0.0586
  565POPC   C1B 6777   8.504  17.424  18.798  0.2389  0.1702  0.4266
  565POPC   C2B 6778   8.565  17.651  18.450  0.2355  0.2827  0.0592
  565POPC   C3B 6779   8.594  17.694  17.999  0.1908 -0.1366  0.2510
  565POPC   C4B 6780   8.526  17.830  17.521  0.2299 -0.0835 -0.3777
  566POPC   NC3 6781   8.884  27.558  18.651 -0.0283 -0.1743  0.1203
  566POPC   PO4 6782   8.657  27.813  18.852  0.0532  0.0356  0.1625
  566POPC   GL1 6783   8.270  27.870  18.788 -0.1467  0.0123  0.0650
  566POPC   GL2 6784   8.077  27.673  18.899  0.3135  0.1320 -0.1748
  566POPC   C1A 6785   8.194  27.834  18.333 -0.4608  0.2153  0.0365
  566POPC   D2A 6786   8.161  27.954  17.826  0.3454  0.1094  0.1274
  566POPC   C3A 6787   7.940  27.870  17.472  0.0120  0.0958  0.1253
  566POPC   C4A 6788   7.924  27.892  17.044  0.0539 -0.0314  0.0742
  566POPC   C1B 6789   7.791  27.571  18.543 -0.0868  0.1412 -0.1785
  566POPC   C2B 6790   7.358  27.634  18.345  0.0811 -0.1473  0.1728
  566POPC   C3B 6791   7.379  27.588  17.897  0.0334 -0.0380 -0.1825
  566POPC   C4B 6792   7.502  27.601  17.528 -0.0448 -0.0749  0.0358
  567POPC   NC3 6793   2.801   5.018  19.523 -0.1588 -0.2362  0.2003
  567POPC   PO4 6794   2.913   5.308  19.255 -0.3110 -0.0141 -0.0636
  567POPC   GL1 6795   2.888   5.177  18.806 -0.1555  0.1687  0.0161
  567POPC   GL2 6796   3.146   5.144  18.864 -0.2223 -0.2224  0.2743
  567POPC   C1A 6797   2.721   5.124  18.383  0.1413  0.1825  0.2159
  567POPC   D2A 6798   2.821   5.144  17.920  0.1248 -0.0243  0.3134
  567POPC   C3A 6799   2.536   5.330  17.593 -0.0214  0.1804 -0.1226
  567POPC   C4A 6800   2.171   5.444  17.335 -0.3473 -0.0355 -0.1902
  567POPC   C1B 6801   3.119   4.825  18.469 -0.1855 -0.1169  0.0334
  567POPC   C2B 6802   3.185   4.824  18.048  0.1932 -0.0131  0.3378
  567POPC   C3B 6803   3.267   4.461  17.754  0.0666 -0.0802  0.0149
  567POPC   C4B 6804   3.413   4.166  17.363  0.0404  0.2995 -0.2158
  568POPC   NC3 6805   4.640   3.353  19.793  0.3454  0.0903  0.0866
  568POPC   PO4 6806   4.622   3.270  19.357  0.1654  0.0282 -0.0292
  568POPC   GL1 6807   4.645   3.500  19.112  0.1593 -0.2309 -0.3052
  568POPC   GL2 6808   4.809   3.350  18.884 -0.0477  0.1488  0.1107
  568POPC   C1A 6809   4.344   3.731  18.776  0.2105  0.2294  0.1234
  568POPC   D2A 6810   4.253   4.013  18.454  0.3711  0.0504  0.2251
  568POPC   C3A 6811   4.252   4.055  18.002 -0.2297 -0.1646  0.1789
  568POPC   C4A 6812   4.462   4.069  17.565 -0.2464  0.1362  0.0351
  568POPC   C1B 6813   4.986   3.715  18.673 -0.1657 -0.3861 -0.1578
  568POPC   C2B 6814   4.956   3.716  18.197  0.0313 -0.0273 -0.2725
  568POPC   C3B 6815   5.163   3.467  17.955  0.3023  0.2177  0.0445
  568POPC   C4B 6816   5.591   3.419  17.999  0.0123 -0.2297 -0.3313
  569POPC   NC3 6817   1.402  22.568  19.144 -0.0859 -0.0360 -0.0447
  569POPC   PO4 6818   1.693  22.399  18.983 -0.0239  0.2837 -0.2213
  569POPC   GL1 6819   1.647  22.285  18.675 -0.1922  0.0585 -0.0518
  569POPC   GL2 6820   1.327  22.104  18.782 -0.3810  0.3975  0.1484
  569POPC   C1A 6821   1.866  22.370  18.258 -0.0062  0.2145 -0.3715
  569POPC   D2A 6822   2.143  22.471  17.863  0.0193  0.0655  0.2536
  569POPC   C3A 6823   1.827  22.341  17.572 -0.1802  0.0661  0.0500
  569POPC   C4A 6824   1.491  22.256  17.207  0.2686  0.0666 -0.0424
  569POPC   C1B 6825   1.276  22.229  18.340 -0.1549  0.1919  0.1654
  569POPC   C2B 6826   1.322  22.463  17.944 -0.0555  0.0419  0.1958
  569POPC   C3B 6827   1.381  22.623  17.524 -0.0198  0.0703  0.1664
  569POPC   C4B 6828   1.422  22.774  17.040 -0.4177 -0.1649  0.0754
  570POPC   NC3 6829   7.301   6.421  19.197  0.1964  0.0598 -0.0819
  570POPC   PO4 6830   7.488   6.129  19.051 -0.1040  0.0891  0.2643
  570POPC   GL1 6831   7.327   6.019  18.662 -0.0426 -0.1484  0.1930
  570POPC   GL2 6832   7.166   6.327  18.675 -0.3096 -0.1395  0.2766
  570POPC   C1A 6833   7.468   5.919  18.237 -0.1572 -0.1162  0.1993
  570POPC   D2A 6834   7.340   5.757  17.841  0.0210 -0.0523 -0.0426
  570POPC   C3A 6835   7.227   6.089  17.490  0.1256  0.0988  0.1952
  570POPC   C4A 6836   7.369   6.151  17.040  0.1349 -0.0966  0.0844
  570POPC   C1B 6837   7.459   6.394  18.282  0.2405 -0.1570  0.1549
  570POPC   C2B 6838   7.505   6.284  17.850  0.0766  0.1732 -0.1197
  570POPC   C3B 6839   7.574   6.448  17.454 -0.3027  0.2245 -0.0070
  570POPC   C4B 6840   7.656   6.878  17.406 -0.0426 -0.0991  0.4000
  571POPC   NC3 6841  15.732  30.918  19.340 -0.4521 -0.1606  0.0407
  571POPC   PO4 6842  15.775  31.343  19.367  0.2026  0.1595  0.0395
  571POPC   GL1 6843  15.595  31.494  19.050 -0.0602  0.2346 -0.1983
  571POPC   GL2 6844  15.580  31.199  18.917  0.3678  0.1535  0.0249
  571POPC   C1A 6845  15.820  31.767  18.703  0.2649 -0.0867 -0.4423
  571POPC   D2A 6846  15.621  32.005  18.318  0.0360 -0.0858 -0.0643
  571POPC   C3A 6847  15.478  31.712  17.962 -0.2282 -0.1785  0.0352
  571POPC   C4A 6848  15.624  31.831  17.482  0.3620  0.2302  0.0674
  571POPC   C1B 6849  15.851  31.156  18.556  0.0909  0.1296 -0.4085
  571POPC   C2B 6850  16.106  31.060  18.155 -0.2858  0.0922 -0.0534
  571POPC   C3B 6851  15.934  31.205  17.767 -0.5154 -0.3043  0.3534
  571POPC   C4B 6852  15.652  31.171  17.407  0.2496 -0.0494 -0.0491
  572POPC   NC3 6853   9.707   9.501  19.732  0.1193  0.0373 -0.1879
  572POPC   PO4 6854   9.542   9.854  19.627  0.3016 -0.3455 -0.1306
  572POPC   GL1 6855   9.572   9.922  19.309  0.5444  0.2892  0.0764
  572POPC   GL2 6856   9.695  10.105  19.151  0.1539 -0.0671  0.0670
  572POPC   C1A 6857   9.449   9.738  18.897 -0.0371  0.0038  0.0729
  572POPC   D2A 6858   9.669   9.440  18.686  0.1567 -0.2147  0.2518
  572POPC   C3A 6859   9.744   9.113  18.945  0.0838 -0.0399 -0.1896
  572POPC   C4A 6860   9.976   9.132  19.406 -0.2883  0.1353  0.0193
  572POPC   C1B 6861   9.982   9.869  18.904 -0.2731  0.0819 -0.0537
  572POPC   C2B 6862   9.923   9.878  18.438 -0.1985  0.0977  0.1024
  572POPC   C3B 6863   9.940   9.785  17.999  0.0126 -0.1764 -0.0022
  572POPC   C4B 6864   9.641   9.644  17.709 -0.2672  0.1231  0.2039
  573POPC   NC3 6865   1.008   1.527  18.984  0.1796  0.2336 -0.0298
  573POPC   PO4 6866   0.886   1.893  19.153 -0.2598  0.1389 -0.1020
  573POPC   GL1 6867   0.824   1.826  18.731  0.0314  0.0797 -0.0361
  573POPC   GL2 6868   0.558   1.892  18.710 -0.0917  0.1212 -0.2970
  573POPC   C1A 6869   0.752   1.496  18.467  0.1519  0.2389  0.0065
  573POPC   D2A 6870   0.788   1.160  18.128  0.0830  0.0267 -0.2271
  573POPC   C3A 6871   0.515   0.726  18.166 -0.0788 -0.0664 -0.0134
  573POPC   C4A 6872   0.254   0.340  18.285  0.0111 -0.1998  0.0891
  573POPC   C1B 6873   0.613   1.963  18.246  0.1509  0.1882 -0.1358
  573POPC   C2B 6874   0.647   1.993  17.796 -0.1762  0.1702 -0.0182
  573POPC   C3B 6875   0.792   1.846  17.359  0.0311 -0.0692  0.2627
  573POPC   C4B 6876   0.782   1.584  17.007 -0.3241  0.0556 -0.1396
  574POPC   NC3 6877  13.452   9.301  19.068 -0.1220  0.2884  0.0720
  574POPC   PO4 6878  13.326   9.022  19.332  0.2631 -0.1072 -0.1348
  574POPC   GL1 6879  13.208   8.953  18.922  0.0476 -0.2753  0.2295
  574POPC   GL2 6880  12.997   9.121  18.881 -0.0777  0.2407  0.1673
  574POPC   C1A 6881  13.091   8.611  18.617  0.0749  0.0916 -0.1718
  574POPC   D2A 6882  12.836   8.349  18.356 -0.1645  0.0051 -0.1813
  574POPC   C3A 6883  12.384   8.430  18.234 -0.3275 -0.3046  0.1366
  574POPC   C4A 6884  11.940   8.439  18.154 -0.0619 -0.3573 -0.1771
  574POPC   C1B 6885  13.144   9.033  18.437  0.1734  0.1339  0.1528
  574POPC   C2B 6886  13.267   8.970  17.997  0.3902 -0.0238 -0.0648
  574POPC   C3B 6887  12.986   8.817  17.609 -0.1951 -0.0479  0.1883
  574POPC   C4B 6888  12.935   8.402  17.772  0.0366 -0.0947 -0.0294
  575POPC   NC3 6889  15.826  25.794  19.777 -0.0666 -0.3223 -0.0273
  575POPC   PO4 6890  15.684  25.710  19.427 -0.2085  0.1234  0.0391
  575POPC   GL1 6891  15.533  25.573  19.020 -0.4344 -0.0932  0.2485
  575POPC   GL2 6892  15.707  25.758  18.875 -0.0234 -0.0320 -0.0495
  575POPC   C1A 6893  15.258  25.186  18.841 -0.2252 -0.2134  0.0728
  575POPC   D2A 6894  14.967  24.952  18.578  0.0534 -0.1679 -0.0531
  575POPC   C3A 6895  15.082  24.519  18.627 -0.0345 -0.1714  0.0462
  575POPC   C4A 6896  15.071  24.157  18.327 -0.2977 -0.1923  0.0044
  575POPC   C1B 6897  15.696  25.383  18.534 -0.2355 -0.1608  0.1454
  575POPC   C2B 6898  15.762  25.213  18.147 -0.0797 -0.0873  0.2595
  575POPC   C3B 6899  15.787  25.226  17.711 -0.2065  0.2354 -0.0209
  575POPC   C4B 6900  15.642  25.243  17.210 -0.0590 -0.2945  0.1952
  576POPC   NC3 6901   6.206  31.062  19.339 -0.0608  0.0182  0.1637
  576POPC   PO4 6902   6.023  31.383  19.210  0.0523  0.0687  0.1753
  576POPC   GL1 6903   6.173  31.420  18.876 -0.0362  0.0952 -0.0982
  576POPC   GL2 6904   6.006  31.234  18.759  0.2689  0.1002  0.1043
  576POPC   C1A 6905   6.402  31.426  18.471  0.3094 -0.0927  0.0359
  576POPC   D2A 6906   6.492  31.489  17.994  0.1278  0.1835  0.2970
  576POPC   C3A 6907   6.276  31.249  17.690  0.1947 -0.1077 -0.1493
  576POPC   C4A 6908   5.923  31.343  17.402  0.1804 -0.2865 -0.0815
  576POPC   C1B 6909   5.824  31.601  18.477  0.0267  0.1229 -0.2850
  576POPC   C2B 6910   6.049  31.740  18.161 -0.0868 -0.0772 -0.2606
  576POPC   C3B 6911   6.174  31.736  17.729 -0.0020 -0.0577 -0.0500
  576POPC   C4B 6912   6.294  31.640  17.311  0.1023 -0.4001 -0.0772
  577POPC   NC3 6913   8.387  22.723  19.312  0.2033 -0.2036  0.2528
  577POPC   PO4 6914   8.262  23.093  19.358 -0.0859  0.3507  0.2655
  577POPC   GL1 6915   8.387  23.250  19.079  0.4912  0.0892  0.0703
  577POPC   GL2 6916   8.241  23.568  19.088  0.0165 -0.3258  0.1935
  577POPC   C1A 6917   8.765  23.185  18.771  0.2092  0.1190 -0.2780
  577POPC   D2A 6918   8.873  23.476  18.383  0.0720 -0.3005  0.1411
  577POPC   C3A 6919   9.016  23.372  17.962 -0.1821  0.0159  0.1486
  577POPC   C4A 6920   8.951  23.158  17.558 -0.0589 -0.1026 -0.1786
  577POPC   C1B 6921   8.045  23.449  18.716  0.0778 -0.0903 -0.0639
  577POPC   C2B 6922   8.355  23.465  18.379  0.1708  0.0702 -0.2929
  577POPC   C3B 6923   8.554  23.446  17.985  0.1996 -0.0475  0.0539
  577POPC   C4B 6924   8.606  23.528  17.544  0.0476 -0.2990 -0.0909
  578POPC   NC3 6925   9.463  30.958  19.297  0.2231 -0.0364  0.0164
  578POPC   PO4 6926   9.361  30.596  19.160 -0.3891 -0.2756 -0.3345
  578POPC   GL1 6927   9.201  30.444  18.825  0.2868  0.3704 -0.0914
  578POPC   GL2 6928   9.373  30.303  18.738  0.0479 -0.0429  0.0918
  578POPC   C1A 6929   9.063  30.489  18.419 -0.0144  0.2067  0.0736
  578POPC   D2A 6930   9.323  30.636  18.088 -0.0697  0.1247  0.0053
  578POPC   C3A 6931   9.464  30.517  17.669 -0.0707  0.2559 -0.1560
  578POPC   C4A 6932   9.892  30.518  17.680 -0.1158 -0.1204  0.0903
  578POPC   C1B 6933   9.451  30.175  18.303  0.2081  0.0982 -0.1096
  578POPC   C2B 6934   9.574  30.137  17.928 -0.1686  0.4338  0.2275
  578POPC   C3B 6935   9.765  29.956  17.555  0.0772 -0.2448 -0.1967
  578POPC   C4B 6936  10.128  29.930  17.243  0.0756 -0.0268 -0.1168
  579POPC   NC3 6937  15.383  27.019  19.582 -0.0763  0.1337  0.2325
  579POPC   PO4 6938  15.190  27.288  19.412  0.0448 -0.1523  0.2754
  579POPC   GL1 6939  15.091  27.478  19.092  0.2192 -0.2571 -0.2128
  579POPC   GL2 6940  14.834  27.368  19.110  0.2729 -0.0582  0.1956
  579POPC   C1A 6941  15.319  27.595  18.687  0.2422  0.2737 -0.0033
  579POPC   D2A 6942  15.543  27.826  18.365 -0.2156 -0.2217  0.0100
  579POPC   C3A 6943  15.530  27.938  17.973 -0.0221 -0.4748 -0.1483
  579POPC   C4A 6944  15.825  28.045  17.578  0.2717 -0.1905  0.0094
  579POPC   C1B 6945  14.936  27.118  18.709  0.1599  0.2394  0.0722
  579POPC   C2B 6946  14.495  26.959  18.510 -0.1774  0.1685  0.2701
  579POPC   C3B 6947  14.338  26.551  18.318 -0.1783 -0.0793  0.1607
  579POPC   C4B 6948  14.012  26.245  18.158 -0.1769  0.0926  0.2526
  580POPC   NC3 6949  14.879   1.448  19.588 -0.1756 -0.0464  0.1011
  580POPC   PO4 6950  14.774   1.779  19.642  0.0589  0.1544 -0.0191
  580POPC   GL1 6951  14.965   1.836  19.315  0.2927 -0.1232 -0.0777
  580POPC   GL2 6952  14.803   1.987  19.146 -0.2678  0.4362 -0.1174
  580POPC   C1A 6953  15.139   1.494  19.072  0.1869 -0.1636  0.1933
  580POPC   D2A 6954  15.368   1.110  18.995  0.1721 -0.1188 -0.0513
  580POPC   C3A 6955  15.712   1.027  18.762  0.1710 -0.0972  0.0912
  580POPC   C4A 6956  16.092   0.977  18.500 -0.1079  0.2879  0.0402
  580POPC   C1B 6957  14.842   1.690  18.774 -0.1628 -0.3156 -0.0539
  580POPC   C2B 6958  15.006   1.733  18.350 -0.2892  0.2188 -0.0429
  580POPC   C3B 6959  14.874   1.728  17.879  0.0866  0.0091  0.0515
  580POPC   C4B 6960  14.673   1.575  17.389  0.2441 -0.1012 -0.2003
  581POPC   NC3 6961   6.506  24.428  19.821 -0.0543  0.0580 -0.0860
  581POPC   PO4 6962   6.296  24.558  19.513 -0.1595  0.0663  0.0121
  581POPC   GL1 6963   6.435  24.406  19.194  0.1669 -0.1037 -0.1930
  581POPC   GL2 6964   6.138  24.221  19.054 -0.0510 -0.2275  0.0870
  581POPC   C1A 6965   6.540  24.573  18.801  0.2616 -0.0372  0.1387
  581POPC   D2A 6966   6.870  24.722  18.472 -0.1981 -0.1603 -0.1278
  581POPC   C3A 6967   6.847  24.823  18.011 -0.0835 -0.1713 -0.2228
  581POPC   C4A 6968   6.720  24.695  17.575 -0.0232 -0.0801 -0.3707
  581POPC   C1B 6969   6.225  24.114  18.644 -0.0770 -0.0306  0.0970
  581POPC   C2B 6970   6.256  24.108  18.150  0.2967  0.0982  0.1534
  581POPC   C3B 6971   6.500  24.233  17.789  0.0876 -0.0345 -0.1179
  581POPC   C4B 6972   6.443  24.350  17.353 -0.5396 -0.3560  0.1270
  582POPC   NC3 6973  12.369  18.705  19.070  0.0561  0.2564  0.1991
  582POPC   PO4 6974  12.771  18.729  19.202 -0.2666 -0.1425  0.2526
  582POPC   GL1 6975  12.776  18.791  18.904  0.1516  0.2220 -0.1315
  582POPC   GL2 6976  12.966  18.681  18.630 -0.1288 -0.0411  0.2159
  582POPC   C1A 6977  12.537  18.700  18.451  0.0297  0.0506  0.1699
  582POPC   D2A 6978  12.510  18.837  18.002  0.0319 -0.2008 -0.0162
  582POPC   C3A 6979  12.287  18.762  17.613 -0.4832 -0.1740 -0.1686
  582POPC   C4A 6980  12.168  18.795  17.229  0.0949 -0.1322 -0.0214
  582POPC   C1B 6981  13.337  18.810  18.332  0.1684  0.1598  0.1475
  582POPC   C2B 6982  13.483  18.859  17.891 -0.0122  0.1162 -0.1959
  582POPC   C3B 6983  13.422  18.761  17.467 -0.2127 -0.2030  0.1460
  582POPC   C4B 6984  13.561  18.583  17.065  0.3652 -0.5134  0.0372
  583POPC   NC3 6985  14.322  25.669  19.517  0.3461 -0.1405 -0.3403
  583POPC   PO4 6986  14.423  26.078  19.602  0.0736  0.0414  0.0123
  583POPC   GL1 6987  14.263  26.136  19.225  0.2705  0.3954  0.2381
  583POPC   GL2 6988  13.978  26.185  19.266  0.0046  0.0845  0.1593
  583POPC   C1A 6989  14.223  26.506  18.951 -0.0074  0.1841 -0.3840
  583POPC   D2A 6990  14.102  26.943  18.917 -0.1462 -0.3183  0.0016
  583POPC   C3A 6991  13.662  27.017  18.861  0.1259 -0.2961 -0.0760
  583POPC   C4A 6992  13.210  27.029  18.684 -0.0796  0.0732  0.1327
  583POPC   C1B 6993  13.963  26.082  18.797 -0.1501  0.0024  0.1006
  583POPC   C2B 6994  13.930  25.844  18.383  0.1722 -0.3322 -0.0875
  583POPC   C3B 6995  13.767  25.870  17.930  0.1221 -0.1660  0.0503
  583POPC   C4B 6996  13.821  25.929  17.478  0.3500 -0.0902  0.0108
  584POPC   NC3 6997   3.575  30.925  18.978 -0.0898  0.1622 -0.1117
  584POPC   PO4 6998   3.233  30.828  19.024  0.0082  0.4753  0.2159
  584POPC   GL1 6999   3.216  30.895  18.654 -0.4114 -0.0443 -0.1374
  584POPC   GL2 7000   3.324  30.645  18.567 -0.0473  0.0029 -0.0645
  584POPC   C1A 7001   2.941  31.113  18.309 -0.1673 -0.0076  0.2282
  584POPC   D2A 7002   2.581  31.193  18.022 -0.4123  0.0873 -0.1538
  584POPC   C3A 7003   2.239  31.449  18.055  0.0092  0.0461  0.2427
  584POPC   C4A 7004   1.975  31.622  18.337 -0.1608 -0.0350  0.1878
  584POPC   C1B 7005   3.472  30.487  18.165 -0.1685 -0.0565  0.0285
  584POPC   C2B 7006   3.617  30.608  17.789 -0.1029  0.0855 -0.0994
  584POPC   C3B 7007   3.705  30.873  17.320 -0.0437 -0.1823  0.2568
  584POPC   C4B 7008   3.897  30.773  16.892  0.2594 -0.1446  0.1071
  585POPC   NC3 7009   5.653  10.679  19.884  0.1229  0.1913 -0.2465
  585POPC   PO4 7010   5.413  10.994  19.804  0.2804 -0.3575 -0.1586
  585POPC   GL1 7011   5.468  10.971  19.430 -0.3529 -0.0345 -0.0355
  585POPC   GL2 7012   5.257  10.751  19.385  0.1012 -0.1276 -0.1460
  585POPC   C1A 7013   5.664  11.119  19.068 -0.2906  0.0252  0.0885
  585POPC   D2A 7014   5.999  11.071  18.677  0.2262  0.1815  0.0293
  585POPC   C3A 7015   5.748  11.115  18.312  0.0804 -0.1684  0.5262
  585POPC   C4A 7016   5.495  11.083  17.880  0.0094  0.1779 -0.1142
  585POPC   C1B 7017   5.160  11.013  19.012  0.1374 -0.2764  0.0395
  585POPC   C2B 7018   5.021  11.093  18.570 -0.1272 -0.2028  0.2595
  585POPC   C3B 7019   4.831  11.105  18.141 -0.2887  0.0182  0.1144
  585POPC   C4B 7020   5.000  11.131  17.727  0.2271  0.0203 -0.4191
  586POPC   NC3 7021   3.182  19.429  19.010 -0.2042 -0.0534  0.1356
  586POPC   PO4 7022   3.158  19.075  18.859 -0.0064  0.3812  0.4017
  586POPC   GL1 7023   3.353  19.246  18.503  0.4417  0.3325 -0.0376
  586POPC   GL2 7024   3.380  19.503  18.463 -0.1295 -0.1152 -0.2167
  586POPC   C1A 7025   3.428  19.190  18.075 -0.0301 -0.0794  0.0734
  586POPC   D2A 7026   3.321  19.371  17.578 -0.2333  0.2205  0.0056
  586POPC   C3A 7027   3.114  19.290  17.158 -0.0408  0.1842 -0.1156
  586POPC   C4A 7028   3.135  19.568  16.795  0.1420  0.2697 -0.0008
  586POPC   C1B 7029   3.131  19.620  18.122 -0.1606  0.3500 -0.2715
  586POPC   C2B 7030   3.078  19.811  17.664 -0.0185 -0.0560  0.1456
  586POPC   C3B 7031   2.800  19.732  17.277  0.1640 -0.2919 -0.4485
  586POPC   C4B 7032   2.582  20.008  16.958  0.2223 -0.3601 -0.0206
  587POPC   NC3 7033   7.760  25.480  19.762 -0.0171 -0.1808 -0.2439
  587POPC   PO4 7034   7.891  25.671  19.438  0.1843 -0.1742  0.1793
  587POPC   GL1 7035   7.661  25.713  19.031 -0.0201 -0.0785 -0.0618
  587POPC   GL2 7036   7.744  26.005  19.042  0.0349 -0.0253 -0.0853
  587POPC   C1A 7037   7.709  25.622  18.585 -0.0778 -0.0341  0.2347
  587POPC   D2A 7038   7.535  25.472  18.203 -0.2121 -0.0700  0.1057
  587POPC   C3A 7039   7.395  25.070  18.144 -0.0601 -0.3927 -0.0439
  587POPC   C4A 7040   7.285  24.943  17.730  0.0881 -0.0979  0.0547
  587POPC   C1B 7041   7.431  26.109  18.664 -0.0128 -0.1592 -0.2676
  587POPC   C2B 7042   7.396  26.184  18.208  0.1176 -0.0896  0.3028
  587POPC   C3B 7043   7.391  26.223  17.765  0.0901  0.1544  0.2492
  587POPC   C4B 7044   7.352  26.232  17.286  0.2501  0.2318 -0.1395
  588POPC   NC3 7045   1.925  22.812  19.709 -0.4218  0.0203  0.0680
  588POPC   PO4 7046   1.837  22.735  19.277  0.0693 -0.0155 -0.1024
  588POPC   GL1 7047   1.694  22.904  18.944 -0.4044 -0.0594 -0.0848
  588POPC   GL2 7048   1.565  22.775  18.707 -0.0284 -0.1199 -0.0558
  588POPC   C1A 7049   1.715  23.234  18.605  0.0107  0.1763  0.0375
  588POPC   D2A 7050   1.923  23.377  18.206  0.2624 -0.0092  0.0308
  588POPC   C3A 7051   1.844  23.355  17.746 -0.0952 -0.1545 -0.0907
  588POPC   C4A 7052   2.093  23.290  17.391  0.0425 -0.1389  0.0203
  588POPC   C1B 7053   1.556  22.829  18.219  0.0122  0.4830  0.0866
  588POPC   C2B 7054   1.521  23.008  17.847 -0.0954 -0.0131  0.0588
  588POPC   C3B 7055   1.593  23.089  17.389  0.1250 -0.1608  0.2216
  588POPC   C4B 7056   1.341  23.264  17.041 -0.0253 -0.0484  0.1358
  589POPC   NC3 7057  11.739  20.576  19.651 -0.1631  0.2272 -0.2335
  589POPC   PO4 7058  11.692  20.937  19.728 -0.1523 -0.0304 -0.5575
  589POPC   GL1 7059  11.271  20.971  19.552  0.1470 -0.0983 -0.0416
  589POPC   GL2 7060  11.272  20.752  19.326 -0.2185 -0.0066 -0.1606
  589POPC   C1A 7061  11.022  21.123  19.159 -0.1132  0.2402  0.2022
  589POPC   D2A 7062  10.766  21.039  18.814  0.1578  0.0826 -0.1958
  589POPC   C3A 7063  10.703  21.272  18.422  0.0212 -0.2643  0.1216
  589POPC   C4A 7064  10.570  21.317  18.003 -0.1951  0.0365  0.0300
  589POPC   C1B 7065  11.202  20.605  18.843 -0.1036 -0.1342  0.0614
  589POPC   C2B 7066  11.106  20.490  18.435  0.0168  0.1518 -0.0692
  589POPC   C3B 7067  10.929  20.365  18.041  0.0038 -0.0082 -0.2802
  589POPC   C4B 7068  10.855  20.115  17.709 -0.0733  0.0233  0.3460
  590POPC   NC3 7069  14.655  11.206  19.119 -0.2898  0.0556  0.3391
  590POPC   PO4 7070  14.448  11.387  19.428 -0.1730 -0.1490 -0.2579
  590POPC   GL1 7071  14.228  11.392  19.102 -0.1721  0.1824 -0.5244
  590POPC   GL2 7072  14.229  11.655  19.069  0.0206 -0.0944  0.1644
  590POPC   C1A 7073  14.328  11.166  18.719  0.1618 -0.1978  0.2312
  590POPC   D2A 7074  14.028  10.917  18.496 -0.0171  0.3263 -0.1884
  590POPC   C3A 7075  14.141  10.701  18.033  0.0799  0.1701 -0.1616
  590POPC   C4A 7076  14.026  10.700  17.555  0.2558  0.3823  0.3027
  590POPC   C1B 7077  14.244  11.626  18.593  0.0437  0.0147 -0.2196
  590POPC   C2B 7078  14.212  11.303  18.212  0.0329  0.1848  0.0316
  590POPC   C3B 7079  14.470  11.105  17.862  0.3097  0.0062 -0.0490
  590POPC   C4B 7080  14.469  10.906  17.425 -0.0195 -0.1001  0.0974
  591POPC   NC3 7081   8.655  16.605  19.554 -0.0411 -0.2819 -0.1826
  591POPC   PO4 7082   8.403  16.314  19.620  0.0964  0.3114 -0.1630
  591POPC   GL1 7083   8.361  16.386  19.234  0.1221 -0.1135 -0.1991
  591POPC   GL2 7084   8.317  16.694  19.142  0.2078  0.2464  0.0931
  591POPC   C1A 7085   8.223  16.122  18.872 -0.0678  0.1966 -0.2745
  591POPC   D2A 7086   8.070  15.933  18.485 -0.3401 -0.4138 -0.0274
  591POPC   C3A 7087   8.123  15.720  18.037  0.0605 -0.0763 -0.0614
  591POPC   C4A 7088   8.151  15.740  17.578 -0.0114  0.1108  0.1188
  591POPC   C1B 7089   8.228  16.926  18.774  0.0770 -0.0463 -0.1513
  591POPC   C2B 7090   8.283  17.140  18.370 -0.1072  0.1617 -0.0971
  591POPC   C3B 7091   8.282  17.308  17.912  0.0523  0.3413  0.1381
  591POPC   C4B 7092   8.433  17.298  17.449 -0.0464 -0.0126  0.1992
  592POPC   NC3 7093   2.988  29.944  19.264 -0.0293 -0.1531  0.1680
  592POPC   PO4 7094   2.909  30.341  19.214 -0.0495  0.1832 -0.1671
  592POPC   GL1 7095   2.986  30.233  18.855  0.0836  0.0695  0.1198
  592POPC   GL2 7096   2.880  30.559  18.747 -0.1691  0.0411 -0.3887
  592POPC   C1A 7097   3.068  30.178  18.379  0.2008 -0.2405  0.1414
  592POPC   D2A 7098   3.061  30.194  17.920  0.0849  0.0077 -0.2445
  592POPC   C3A 7099   2.936  30.346  17.492 -0.0433  0.1464 -0.1118
  592POPC   C4A 7100   2.810  30.613  17.133  0.0873  0.0242  0.0458
  592POPC   C1B 7101   2.878  30.607  18.263 -0.1299 -0.2509 -0.1774
  592POPC   C2B 7102   2.739  30.728  17.898  0.0496  0.1802 -0.0067
  592POPC   C3B 7103   2.562  30.833  17.473  0.0807  0.2516  0.1172
  592POPC   C4B 7104   2.332  31.065  17.136  0.1199  0.1825  0.1843
  593POPC   NC3 7105   1.630   4.529  19.323 -0.0017 -0.1788 -0.1515
  593POPC   PO4 7106   1.354   4.698  19.560 -0.1163  0.0791 -0.0395
  593POPC   GL1 7107   1.273   4.905  19.260  0.0053  0.1347  0.1182
  593POPC   GL2 7108   1.518   4.834  18.958  0.2222  0.5050 -0.0111
  593POPC   C1A 7109   1.093   5.133  18.891  0.0651 -0.2151 -0.0909
  593POPC   D2A 7110   0.844   5.376  18.608  0.1398  0.0231 -0.1620
  593POPC   C3A 7111   0.759   5.546  18.189  0.3290 -0.1216  0.0634
  593POPC   C4A 7112   0.683   5.387  17.794  0.4420 -0.5093  0.1627
  593POPC   C1B 7113   1.419   4.906  18.544 -0.1312 -0.0861  0.1405
  593POPC   C2B 7114   1.230   5.145  18.161  0.3704  0.1430  0.0899
  593POPC   C3B 7115   1.189   5.418  17.819  0.1496  0.1752 -0.0862
  593POPC   C4B 7116   1.167   5.730  17.543 -0.1176  0.0594 -0.1063
  594POPC   NC3 7117   0.327  24.791  19.538  0.2086 -0.2510 -0.1933
  594POPC   PO4 7118   0.597  24.729  19.251  0.0451  0.1917 -0.0640
  594POPC   GL1 7119   0.378  24.639  18.973 -0.1886  0.0711  0.0489
  594POPC   GL2 7120   0.379  24.318  18.965 -0.2050  0.3463 -0.1734
  594POPC   C1A 7121   0.456  24.949  18.637 -0.0960  0.1935 -0.1134
  594POPC   D2A 7122   0.387  25.002  18.216 -0.1575  0.2408 -0.1844
  594POPC   C3A 7123   0.388  25.427  17.906 -0.0385  0.3302  0.0367
  594POPC   C4A 7124   0.313  25.443  17.437  0.0653 -0.2046 -0.0250
  594POPC   C1B 7125   0.526  24.495  18.531  0.2907 -0.1487  0.1629
  594POPC   C2B 7126   0.482  24.472  18.077 -0.0254  0.3305  0.0848
  594POPC   C3B 7127   0.261  24.714  17.783  0.0667 -0.0305  0.1075
  594POPC   C4B 7128   0.113  24.897  17.361 -0.0400  0.0127 -0.3002
  595POPC   NC3 7129  13.213  12.044  19.139 -0.1637 -0.0966 -0.3698
  595POPC   PO4 7130  12.908  11.827  19.037 -0.1410 -0.1090 -0.0028
  595POPC   GL1 7131  13.001  11.733  18.756  0.1005  0.1900 -0.1659
  595POPC   GL2 7132  13.305  11.559  18.797  0.3048 -0.5004  0.1693
  595POPC   C1A 7133  12.911  11.735  18.328 -0.2730 -0.2328  0.0214
  595POPC   D2A 7134  12.930  11.646  17.923  0.0208 -0.2794 -0.2671
  595POPC   C3A 7135  13.218  11.728  17.609 -0.1046 -0.4472 -0.1730
  595POPC   C4A 7136  13.403  11.683  17.232 -0.0980 -0.0789  0.3919
  595POPC   C1B 7137  13.424  11.890  18.501 -0.2328  0.1437  0.2078
  595POPC   C2B 7138  13.405  11.948  18.045  0.2189 -0.1154 -0.1775
  595POPC   C3B 7139  13.515  12.137  17.664 -0.0570  0.0485 -0.1166
  595POPC   C4B 7140  13.755  12.068  17.261 -0.3044  0.1091  0.1392
  596POPC   NC3 7141  10.182  31.592  19.896  0.1312  0.0602  0.1574
  596POPC   PO4 7142  10.276  31.569  19.504  0.1402  0.1325 -0.0545
  596POPC   GL1 7143  10.609  31.520  19.143  0.1385  0.0366 -0.1508
  596POPC   GL2 7144  10.859  31.694  19.061 -0.1051 -0.0516  0.0516
  596POPC   C1A 7145  10.880  31.172  19.094  0.1653  0.2947 -0.3458
  596POPC   D2A 7146  11.007  30.778  18.879  0.3039  0.1357 -0.0787
  596POPC   C3A 7147  11.242  30.490  18.597 -0.0410 -0.1371 -0.0153
  596POPC   C4A 7148  11.707  30.437  18.703  0.1087 -0.2205  0.1470
  596POPC   C1B 7149  10.826  31.517  18.667  0.0201  0.0166 -0.4100
  596POPC   C2B 7150  10.571  31.374  18.289 -0.1166  0.0536  0.2418
  596POPC   C3B 7151  10.364  31.177  17.881 -0.4196  0.0950  0.2478
  596POPC   C4B 7152  10.346  30.798  17.579 -0.0132 -0.0504 -0.3831
  597POPC   NC3 7153   6.998  10.421  19.349  0.1748  0.1579 -0.3614
  597POPC   PO4 7154   7.363  10.528  19.230 -0.1074 -0.0765 -0.2849
  597POPC   GL1 7155   7.615  10.504  18.938  0.1908  0.3087  0.0888
  597POPC   GL2 7156   7.862  10.671  18.812 -0.4491  0.0465  0.2325
  597POPC   C1A 7157   7.759  10.280  18.492 -0.2587  0.1543 -0.0937
  597POPC   D2A 7158   8.193  10.266  18.324  0.0373 -0.0081  0.1283
  597POPC   C3A 7159   8.437   9.992  18.016 -0.1520 -0.0352 -0.0407
  597POPC   C4A 7160   8.612   9.891  17.625  0.0370  0.0262 -0.3612
  597POPC   C1B 7161   8.035  10.730  18.359  0.1502  0.0089  0.0439
  597POPC   C2B 7162   8.268  10.595  17.950  0.3614 -0.3570  0.1162
  597POPC   C3B 7163   8.253  10.280  17.633  0.3305  0.0015 -0.0744
  597POPC   C4B 7164   8.421  10.281  17.149 -0.0961 -0.1932 -0.1327
  598POPC   NC3 7165  13.077  21.130  19.453  0.2805 -0.1748  0.1177
  598POPC   PO4 7166  13.349  21.155  19.204  0.1583 -0.1743  0.0324
  598POPC   GL1 7167  13.453  21.220  18.854  0.0672 -0.1146 -0.2989
  598POPC   GL2 7168  13.827  21.338  18.753  0.0281 -0.1605 -0.4095
  598POPC   C1A 7169  13.346  20.943  18.528  0.0878  0.0832 -0.0840
  598POPC   D2A 7170  13.160  20.694  18.192  0.2005 -0.1104  0.0076
  598POPC   C3A 7171  13.106  20.823  17.692  0.0290 -0.0576 -0.1344
  598POPC   C4A 7172  12.797  20.830  17.386  0.0804  0.1225  0.2241
  598POPC   C1B 7173  13.791  21.542  18.314 -0.0904  0.2132  0.0987
  598POPC   C2B 7174  13.992  21.889  18.145 -0.2059 -0.1951  0.0824
  598POPC   C3B 7175  13.826  22.252  17.917  0.0188 -0.1775  0.2470
  598POPC   C4B 7176  13.810  22.401  17.500 -0.2617  0.1146  0.2867
  599POPC   NC3 7177  11.912   6.501  18.946  0.0385 -0.0118  0.2013
  599POPC   PO4 7178  11.875   6.860  19.077  0.0091 -0.1956  0.0771
  599POPC   GL1 7179  11.978   6.960  18.707 -0.0759  0.3461 -0.1716
  599POPC   GL2 7180  11.871   7.225  18.721 -0.1068 -0.1076  0.1022
  599POPC   C1A 7181  11.795   6.909  18.281 -0.4735 -0.0351 -0.2528
  599POPC   D2A 7182  11.837   6.556  18.016 -0.1297  0.0039 -0.1276
  599POPC   C3A 7183  11.975   6.531  17.575  0.1504 -0.2390  0.0188
  599POPC   C4A 7184  12.100   6.640  17.176  0.1763 -0.6744 -0.1242
  599POPC   C1B 7185  11.994   7.362  18.325 -0.2512  0.0636  0.0871
  599POPC   C2B 7186  12.184   7.504  17.908  0.0732  0.2480  0.0010
  599POPC   C3B 7187  12.508   7.684  17.656 -0.1893  0.1344  0.0577
  599POPC   C4B 7188  12.797   7.881  17.325  0.3165 -0.3149 -0.1260
  600POPC   NC3 7189   9.415   2.781  19.197  0.4713 -0.0131 -0.2277
  600POPC   PO4 7190   9.647   3.014  19.376 -0.0688  0.0062  0.1087
  600POPC   GL1 7191   9.831   2.923  18.983  0.0900 -0.3559  0.1216
  600POPC   GL2 7192  10.069   2.768  18.990 -0.1386 -0.0656  0.2447
  600POPC   C1A 7193   9.828   2.969  18.541 -0.0040 -0.1942  0.1047
  600POPC   D2A 7194  10.174   3.040  18.242 -0.0579 -0.1253 -0.2537
  600POPC   C3A 7195  10.210   2.734  17.898 -0.1394  0.0527 -0.0045
  600POPC   C4A 7196  10.013   2.474  17.569  0.0183  0.0618  0.3024
  600POPC   C1B 7197   9.659   2.584  18.808 -0.1911 -0.3659 -0.1219
  600POPC   C2B 7198   9.181   2.561  18.813  0.4099  0.0728  0.0549
  600POPC   C3B 7199   8.823   2.287  18.690 -0.1248 -0.3990 -0.0919
  600POPC   C4B 7200   8.569   1.947  18.500 -0.0212  0.2014  0.2750
  601POPC   NC3 7201   4.547   7.544  19.186  0.1082  0.2820 -0.2410
  601POPC   PO4 7202   4.267   7.339  19.399 -0.3171  0.1605 -0.0582
  601POPC   GL1 7203   4.082   7.520  19.027  0.0867 -0.1858  0.3567
  601POPC   GL2 7204   3.862   7.324  19.038 -0.0128  0.2549 -0.0108
  601POPC   C1A 7205   4.103   7.339  18.573  0.1794 -0.1730 -0.1273
  601POPC   D2A 7206   4.189   7.022  18.320 -0.0112  0.0224  0.1999
  601POPC   C3A 7207   4.351   7.055  17.881  0.1848 -0.1913  0.1996
  601POPC   C4A 7208   4.697   7.210  17.607 -0.1894 -0.0121  0.1582
  601POPC   C1B 7209   3.624   7.430  18.647 -0.0068  0.2098 -0.1280
  601POPC   C2B 7210   3.493   7.385  18.222 -0.4451  0.2241 -0.0800
  601POPC   C3B 7211   3.523   7.554  17.806 -0.0961 -0.0183  0.1094
  601POPC   C4B 7212   3.473   7.919  17.546  0.1020 -0.1157 -0.0795
  602POPC   NC3 7213  14.697  14.120  18.995  0.3605 -0.2134  0.1559
  602POPC   PO4 7214  14.537  14.433  18.902 -0.1540 -0.2158 -0.2133
  602POPC   GL1 7215  14.434  14.790  18.720  0.0543  0.3611 -0.3446
  602POPC   GL2 7216  14.445  15.035  18.820 -0.0614  0.0557 -0.0275
  602POPC   C1A 7217  14.703  15.014  18.354 -0.0378  0.0942  0.0050
  602POPC   D2A 7218  14.709  15.207  17.942 -0.3369 -0.0832 -0.0855
  602POPC   C3A 7219  15.097  15.236  17.728 -0.1273  0.3229  0.0486
  602POPC   C4A 7220  15.161  15.537  17.372 -0.1700 -0.2096  0.2514
  602POPC   C1B 7221  14.372  15.423  18.509  0.0940  0.1777 -0.0249
  602POPC   C2B 7222  14.292  15.813  18.332 -0.1811  0.3369  0.2267
  602POPC   C3B 7223  14.070  16.091  18.052  0.0823  0.0340 -0.0606
  602POPC   C4B 7224  13.990  16.368  17.778  0.2376  0.2365  0.0228
  603POPC   NC3 7225   7.475  23.321  19.682  0.0002  0.1095 -0.1160
  603POPC   PO4 7226   7.077  23.506  19.698  0.1341  0.0547  0.0538
  603POPC   GL1 7227   7.136  23.415  19.292 -0.0095 -0.0641  0.0404
  603POPC   GL2 7228   6.933  23.587  19.208 -0.3020 -0.0108  0.0603
  603POPC   C1A 7229   7.360  23.499  18.881 -0.4019  0.1233  0.2286
  603POPC   D2A 7230   7.645  23.614  18.553  0.1561  0.2183 -0.2883
  603POPC   C3A 7231   7.411  23.671  18.163  0.1585  0.1141 -0.2465
  603POPC   C4A 7232   7.363  23.989  17.774  0.0644 -0.1189 -0.0192
  603POPC   C1B 7233   6.771  23.616  18.782  0.0478  0.4146 -0.2220
  603POPC   C2B 7234   7.065  23.431  18.481  0.1658  0.0125  0.0518
  603POPC   C3B 7235   7.045  23.380  17.991 -0.0618  0.1972 -0.3762
  603POPC   C4B 7236   7.181  23.402  17.597 -0.1214 -0.0641 -0.1307
  604POPC   NC3 7237  13.384  22.822  19.418  0.1685  0.3996  0.1536
  604POPC   PO4 7238  13.798  22.814  19.431  0.0958  0.4154  0.1309
  604POPC   GL1 7239  13.746  22.649  19.111  0.2642  0.0061 -0.1769
  604POPC   GL2 7240  13.787  22.356  19.130  0.3949  0.1719 -0.0763
  604POPC   C1A 7241  14.067  22.602  18.811 -0.1218 -0.1732  0.3563
  604POPC   D2A 7242  14.360  22.693  18.444 -0.2180  0.0548  0.0538
  604POPC   C3A 7243  14.210  22.713  18.012  0.1629 -0.0301  0.2980
  604POPC   C4A 7244  14.299  22.596  17.559 -0.3115  0.2869 -0.1788
  604POPC   C1B 7245  13.624  22.294  18.721  0.0504 -0.2747 -0.1398
  604POPC   C2B 7246  13.551  22.074  18.301  0.4092  0.1025 -0.1990
  604POPC   C3B 7247  13.477  21.748  17.970  0.1433 -0.1449 -0.4009
  604POPC   C4B 7248  13.867  21.570  17.725  0.3999  0.0844 -0.0697
  605POPC   NC3 7249  10.378  23.517  19.105  0.3817  0.1756  0.3374
  605POPC   PO4 7250  10.041  23.451  19.357 -0.0809  0.0562 -0.0512
  605POPC   GL1 7251  10.055  23.253  19.046 -0.0675 -0.0008  0.2249
  605POPC   GL2 7252   9.999  22.982  19.097 -0.1236 -0.0005  0.2508
  605POPC   C1A 7253   9.777  23.245  18.624 -0.0629 -0.2490 -0.2278
  605POPC   D2A 7254   9.806  22.923  18.247  0.1703 -0.0302 -0.2125
  605POPC   C3A 7255   9.933  22.705  17.859  0.5003 -0.2114 -0.2091
  605POPC   C4A 7256   9.901  22.660  17.465  0.0938 -0.0827 -0.1879
  605POPC   C1B 7257   9.930  22.717  18.728  0.1465 -0.0718  0.2612
  605POPC   C2B 7258   9.847  22.411  18.397 -0.1304 -0.1530  0.2718
  605POPC   C3B 7259   9.865  22.214  17.968  0.1961  0.1148 -0.2160
  605POPC   C4B 7260   9.673  21.888  17.654 -0.0170  0.1603  0.0377
  606POPC   NC3 7261  13.114   7.006  19.655  0.1786 -0.1574 -0.1030
  606POPC   PO4 7262  13.169   7.195  19.290  0.1919 -0.0497 -0.2221
  606POPC   GL1 7263  13.335   7.221  18.890 -0.2478 -0.0106  0.0961
  606POPC   GL2 7264  13.542   7.155  18.997 -0.1765 -0.2118  0.0623
  606POPC   C1A 7265  13.290   7.436  18.508  0.2936 -0.0046  0.2814
  606POPC   D2A 7266  13.400   7.584  18.062  0.1030  0.1633 -0.2028
  606POPC   C3A 7267  13.509   7.417  17.615  0.0242 -0.3423 -0.3455
  606POPC   C4A 7268  13.360   7.070  17.362  0.1152  0.2419 -0.0866
  606POPC   C1B 7269  13.645   7.012  18.543  0.0528 -0.0910 -0.5053
  606POPC   C2B 7270  13.755   6.707  18.269  0.0434  0.0314 -0.1505
  606POPC   C3B 7271  13.462   6.420  17.909 -0.2463 -0.1786 -0.2048
  606POPC   C4B 7272  13.303   6.338  17.532  0.2062  0.0325  0.0825
  607POPC   NC3 7273  15.570  30.006  18.882 -0.1679 -0.3576  0.0526
  607POPC   PO4 7274  15.594  29.960  19.292 -0.2056 -0.3148 -0.0308
  607POPC   GL1 7275  15.797  29.599  19.141 -0.0657  0.0529 -0.1106
  607POPC   GL2 7276  15.520  29.433  19.012 -0.0649 -0.1032  0.3089
  607POPC   C1A 7277  16.155  29.760  18.894  0.4347 -0.0512 -0.2376
  607POPC   D2A 7278  16.487  29.655  18.599 -0.2794 -0.2528  0.0796
  607POPC   C3A 7279  16.449  29.666  18.107 -0.0796  0.0522 -0.1938
  607POPC   C4A 7280  16.332  29.749  17.623  0.1391 -0.2327  0.2957
  607POPC   C1B 7281  15.741  29.646  18.616 -0.0952 -0.1587 -0.1003
  607POPC   C2B 7282  15.961  29.728  18.233 -0.0813 -0.0662  0.3174
  607POPC   C3B 7283  16.099  30.097  17.955 -0.2764  0.3524 -0.0816
  607POPC   C4B 7284  15.964  30.187  17.500 -0.1062 -0.1360  0.1194
  608POPC   NC3 7285   0.678  18.427  19.812 -0.1900 -0.2578 -0.0943
  608POPC   PO4 7286   0.325  18.351  19.800  0.3625  0.3369  0.0163
  608POPC   GL1 7287   0.272  18.303  19.368 -0.2290 -0.2157 -0.2286
  608POPC   GL2 7288   0.274  18.433  19.137 -0.0309 -0.3059  0.1134
  608POPC   C1A 7289   0.379  17.922  19.100  0.1970  0.0931 -0.1145
  608POPC   D2A 7290   0.272  17.712  18.726 -0.1065 -0.0031  0.0132
  608POPC   C3A 7291   0.083  17.307  18.631 -0.4447  0.1823  0.1436
  608POPC   C4A 7292  -0.148  17.157  18.972  0.1856 -0.2005  0.3382
  608POPC   C1B 7293  -0.042  18.151  19.057  0.0849  0.0398 -0.0168
  608POPC   C2B 7294  -0.074  17.631  19.133  0.0963  0.1258 -0.0129
  608POPC   C3B 7295   0.245  17.340  19.139  0.1410 -0.1096  0.2364
  608POPC   C4B 7296   0.321  16.904  19.252  0.2310 -0.2259 -0.0252
  609POPC   NC3 7297   7.535   9.654  19.331 -0.1904 -0.1058 -0.0023
  609POPC   PO4 7298   7.447   9.264  19.389  0.0492  0.2834  0.4007
  609POPC   GL1 7299   7.643   9.252  18.973  0.0116 -0.1089  0.0582
  609POPC   GL2 7300   7.548   9.020  18.898 -0.0391  0.1780 -0.0529
  609POPC   C1A 7301   8.066   9.117  18.828 -0.1847 -0.3017  0.2031
  609POPC   D2A 7302   8.339   9.064  18.501  0.1846  0.0294 -0.0428
  609POPC   C3A 7303   8.800   9.100  18.453 -0.1603 -0.0129 -0.0942
  609POPC   C4A 7304   9.136   8.760  18.439 -0.1364 -0.1232  0.3674
  609POPC   C1B 7305   7.704   8.993  18.445  0.0488  0.0757 -0.4146
  609POPC   C2B 7306   7.820   8.925  18.028  0.3599 -0.2552  0.1229
  609POPC   C3B 7307   8.078   8.981  17.646 -0.3385  0.0166  0.3248
  609POPC   C4B 7308   8.285   8.956  17.295 -0.0771  0.1725 -0.0282
  610POPC   NC3 7309  12.028   5.191  19.369  0.1038 -0.0005  0.0591
  610POPC   PO4 7310  11.688   5.135  19.237  0.1164  0.0745  0.3171
  610POPC   GL1 7311  11.841   5.191  18.922 -0.0292 -0.3492  0.0418
  610POPC   GL2 7312  11.999   5.439  18.926  0.1435  0.1609 -0.1057
  610POPC   C1A 7313  11.737   4.958  18.527 -0.0369  0.2849  0.0408
  610POPC   D2A 7314  11.616   4.567  18.435  0.4405 -0.0045  0.2206
  610POPC   C3A 7315  11.628   4.334  18.011 -0.1558 -0.0689  0.2722
  610POPC   C4A 7316  11.538   4.258  17.580 -0.1645 -0.2949 -0.0577
  610POPC   C1B 7317  11.814   5.443  18.517 -0.0774 -0.2943  0.1003
  610POPC   C2B 7318  11.944   5.603  17.997 -0.1303  0.2953 -0.1921
  610POPC   C3B 7319  11.899   5.711  17.498  0.3453  0.0165 -0.0746
  610POPC   C4B 7320  11.866   5.820  17.044  0.1540 -0.2259  0.0409
  611POPC   NC3 7321   9.749  17.930  20.420  0.1337 -0.1022 -0.0787
  611POPC   PO4 7322   9.899  17.963  20.093  0.3421 -0.0501  0.2788
  611POPC   GL1 7323   9.554  18.121  19.791  0.1714  0.0161 -0.2646
  611POPC   GL2 7324   9.674  18.268  19.568 -0.1552  0.0590 -0.1477
  611POPC   C1A 7325   9.131  17.962  19.761 -0.1538  0.2066  0.1778
  611POPC   D2A 7326   8.861  17.612  19.518 -0.2240 -0.1826  0.3056
  611POPC   C3A 7327   8.914  17.604  19.055 -0.0499  0.2059  0.1993
  611POPC   C4A 7328   9.086  17.661  18.598 -0.1211  0.0649 -0.0988
  611POPC   C1B 7329   9.312  18.168  19.302  0.0062  0.1909  0.1384
  611POPC   C2B 7330   8.871  18.098  19.177  0.0295  0.1081 -0.1296
  611POPC   C3B 7331   8.511  17.937  19.234  0.0063  0.0702 -0.0436
  611POPC   C4B 7332   8.068  18.093  19.224  0.1793  0.3118 -0.0952
  612POPC   NC3 7333   1.135  31.554  19.341 -0.1238  0.0263 -0.0787
  612POPC   PO4 7334   1.294  31.220  19.509 -0.3594  0.4143 -0.2337
  612POPC   GL1 7335   1.493  31.142  19.264  0.1156 -0.3657  0.0983
  612POPC   GL2 7336   1.811  31.141  19.043  0.2261  0.1882  0.0830
  612POPC   C1A 7337   1.305  31.314  18.878 -0.1851  0.3848 -0.1589
  612POPC   D2A 7338   1.122  31.040  18.537 -0.1354 -0.2427  0.0859
  612POPC   C3A 7339   1.351  30.831  18.155 -0.2145 -0.1438  0.1833
  612POPC   C4A 7340   1.652  30.598  17.906 -0.0849 -0.2238  0.0266
  612POPC   C1B 7341   1.751  31.125  18.602 -0.2143 -0.0732  0.0322
  612POPC   C2B 7342   1.767  31.270  18.121 -0.0153  0.5025 -0.1406
  612POPC   C3B 7343   1.512  31.516  17.825  0.1316  0.3416  0.3083
  612POPC   C4B 7344   1.114  31.581  17.517  0.1512  0.2094  0.2211
  613POPC   NC3 7345  12.411  12.658  19.064 -0.1253 -0.2018  0.1924
  613POPC   PO4 7346  12.275  12.986  19.165  0.1868  0.2002  0.0794
  613POPC   GL1 7347  12.142  13.012  18.884 -0.3228  0.0476 -0.1443
  613POPC   GL2 7348  12.342  13.140  18.714  0.1262 -0.2264  0.2551
  613POPC   C1A 7349  11.902  13.061  18.478  0.0651  0.0614 -0.1645
  613POPC   D2A 7350  11.608  13.330  18.197 -0.0868 -0.2398 -0.1382
  613POPC   C3A 7351  11.543  13.280  17.740  0.3743 -0.3875 -0.1281
  613POPC   C4A 7352  11.749  13.442  17.277  0.0668  0.0193  0.2708
  613POPC   C1B 7353  12.398  13.069  18.259  0.1640 -0.3741  0.0520
  613POPC   C2B 7354  12.570  13.036  17.883 -0.1067 -0.0842 -0.3151
  613POPC   C3B 7355  12.619  12.902  17.459 -0.1782 -0.0560 -0.2505
  613POPC   C4B 7356  12.627  13.125  17.096  0.0813  0.0087  0.5338
  614POPC   NC3 7357   8.273   0.887  19.165  0.3694 -0.1922  0.1353
  614POPC   PO4 7358   7.970   0.602  19.257  0.2795 -0.0247  0.2022
  614POPC   GL1 7359   8.084   0.645  18.838  0.1687  0.1826 -0.1559
  614POPC   GL2 7360   7.843   0.696  18.732  0.1244  0.1524  0.0070
  614POPC   C1A 7361   8.117   0.574  18.361 -0.0791  0.0983  0.1052
  614POPC   D2A 7362   8.209   0.578  17.950 -0.2993  0.0514  0.2230
  614POPC   C3A 7363   7.831   0.509  17.696 -0.0362 -0.1067 -0.1761
  614POPC   C4A 7364   7.617   0.671  17.311  0.3010 -0.3187  0.1115
  614POPC   C1B 7365   7.361   0.618  18.631  0.3257 -0.2369 -0.0874
  614POPC   C2B 7366   7.049   0.389  18.330  0.1235 -0.1031 -0.0397
  614POPC   C3B 7367   6.940   0.217  17.925 -0.0872 -0.2342  0.1823
  614POPC   C4B 7368   6.644   0.185  17.553 -0.2044 -0.0925 -0.3879
  615POPC   NC3 7369  14.403  20.449  19.412 -0.3092 -0.4096  0.1096
  615POPC   PO4 7370  14.251  20.073  19.457  0.0013  0.0138  0.0980
  615POPC   GL1 7371  14.128  19.919  19.029  0.0363  0.1667  0.2575
  615POPC   GL2 7372  14.194  20.202  18.976 -0.2507  0.2737  0.1084
  615POPC   C1A 7373  13.902  19.999  18.643 -0.5248 -0.0352  0.0999
  615POPC   D2A 7374  13.947  20.062  18.220  0.2217 -0.1162  0.0193
  615POPC   C3A 7375  13.810  20.179  17.787  0.2640 -0.1274 -0.1445
  615POPC   C4A 7376  13.641  20.152  17.346 -0.0156 -0.1744  0.0550
  615POPC   C1B 7377  14.279  20.361  18.559  0.2930  0.3522 -0.1933
  615POPC   C2B 7378  14.080  20.555  18.165  0.0109  0.0238  0.2816
  615POPC   C3B 7379  13.974  20.808  17.817  0.1099 -0.1264  0.2140
  615POPC   C4B 7380  14.011  21.112  17.569 -0.1509  0.0592  0.0458
  616POPC   NC3 7381  15.618  22.989  19.152 -0.2927  0.1264  0.0308
  616POPC   PO4 7382  15.936  22.725  19.218  0.2614 -0.2196  0.1520
  616POPC   GL1 7383  16.109  22.813  18.851  0.0291  0.0822  0.1528
  616POPC   GL2 7384  16.293  22.602  18.835  0.0040  0.0560 -0.2957
  616POPC   C1A 7385  15.988  22.935  18.444  0.0325  0.0618  0.1309
  616POPC   D2A 7386  15.767  22.779  18.082 -0.1805  0.0106  0.0920
  616POPC   C3A 7387  15.935  22.896  17.645 -0.1106  0.0836  0.0020
  616POPC   C4A 7388  15.844  22.977  17.181  0.0295  0.2094 -0.1745
  616POPC   C1B 7389  16.497  22.592  18.464 -0.2493  0.1207  0.0966
  616POPC   C2B 7390  16.719  22.455  18.074 -0.1717 -0.0311  0.0421
  616POPC   C3B 7391  16.617  22.142  17.721 -0.1814 -0.1060  0.1034
  616POPC   C4B 7392  16.465  22.167  17.293  0.4404  0.0704  0.1156
  617POPC   NC3 7393   8.923  30.434  19.387  0.1178 -0.1032 -0.0647
  617POPC   PO4 7394   8.649  30.731  19.353 -0.0566  0.1227 -0.0165
  617POPC   GL1 7395   8.676  30.713  18.984  0.6567 -0.0086 -0.0125
  617POPC   GL2 7396   8.858  30.863  18.888 -0.0007 -0.0427 -0.0863
  617POPC   C1A 7397   8.519  30.374  18.650 -0.1037  0.1840 -0.3130
  617POPC   D2A 7398   8.610  30.278  18.229 -0.0170  0.1803 -0.0462
  617POPC   C3A 7399   8.651  29.898  17.998 -0.0020 -0.3443 -0.0359
  617POPC   C4A 7400   8.476  29.830  17.589 -0.0171 -0.2078 -0.0024
  617POPC   C1B 7401   8.627  30.799  18.454 -0.1261 -0.2134  0.1417
  617POPC   C2B 7402   8.559  30.710  18.028  0.1724 -0.3276 -0.0697
  617POPC   C3B 7403   8.572  30.332  17.691  0.0862 -0.0429 -0.2305
  617POPC   C4B 7404   8.352  30.207  17.286 -0.0522 -0.0189 -0.1566
  618POPC   NC3 7405  11.160  27.735  19.433 -0.0851 -0.0143 -0.1866
  618POPC   PO4 7406  10.809  27.552  19.389  0.3240  0.1492  0.0125
  618POPC   GL1 7407  10.833  27.637  19.024  0.1049  0.0898 -0.2308
  618POPC   GL2 7408  10.674  27.407  18.870 -0.0326 -0.0493  0.1089
  618POPC   C1A 7409  11.087  27.505  18.679 -0.1763  0.2838 -0.1774
  618POPC   D2A 7410  11.174  27.525  18.253  0.1692  0.2260  0.0764
  618POPC   C3A 7411  11.412  27.792  17.958 -0.1171  0.0628 -0.3418
  618POPC   C4A 7412  11.462  27.955  17.510 -0.2199  0.1220 -0.1525
  618POPC   C1B 7413  10.216  27.388  18.632 -0.0751  0.0271 -0.0839
  618POPC   C2B 7414   9.931  27.454  18.314  0.0894  0.0337 -0.0430
  618POPC   C3B 7415   9.916  27.528  17.932  0.1213 -0.2267 -0.0803
  618POPC   C4B 7416   9.895  27.277  17.556  0.0629  0.1747  0.1191
  619POPC   NC3 7417   8.153  28.379  19.860  0.0376  0.4308  0.0967
  619POPC   PO4 7418   7.936  28.078  19.696  0.0995 -0.2225 -0.0000
  619POPC   GL1 7419   7.940  28.235  19.357 -0.0463 -0.3403 -0.2265
  619POPC   GL2 7420   7.751  28.281  19.147 -0.1071 -0.3046  0.1386
  619POPC   C1A 7421   8.282  28.514  19.111  0.0400  0.4176  0.3225
  619POPC   D2A 7422   8.436  28.285  18.761  0.0051  0.0025  0.1521
  619POPC   C3A 7423   8.478  28.511  18.375  0.0788 -0.2778 -0.0506
  619POPC   C4A 7424   8.382  28.569  17.935  0.1327  0.1255 -0.0043
  619POPC   C1B 7425   7.737  28.609  18.745  0.0459  0.1688 -0.0897
  619POPC   C2B 7426   7.519  28.755  18.349  0.0485 -0.0154  0.0315
  619POPC   C3B 7427   7.464  28.960  17.885  0.4459 -0.1727  0.0168
  619POPC   C4B 7428   7.360  29.032  17.399 -0.3653 -0.1798  0.1515
  620POPC   NC3 7429   9.037  25.418  19.423 -0.2126  0.0893 -0.0644
  620POPC   PO4 7430   9.024  25.774  19.297  0.1354  0.0507 -0.0566
  620POPC   GL1 7431   9.205  25.674  18.987 -0.1626  0.0552 -0.0497
  620POPC   GL2 7432   9.225  25.891  18.831  0.0699 -0.0446 -0.1375
  620POPC   C1A 7433   9.325  25.223  18.865  0.1849 -0.2477  0.0376
  620POPC   D2A 7434   9.406  24.779  18.755 -0.0895  0.2318 -0.2709
  620POPC   C3A 7435   9.302  24.667  18.301  0.2705 -0.0104 -0.1005
  620POPC   C4A 7436   9.200  24.858  17.937  0.0842  0.2773  0.0353
  620POPC   C1B 7437   9.118  25.647  18.436  0.1241 -0.0508 -0.2176
  620POPC   C2B 7438   8.905  25.365  18.132  0.1285 -0.0707 -0.2893
  620POPC   C3B 7439   8.784  25.275  17.677 -0.4847 -0.1785  0.0082
  620POPC   C4B 7440   8.761  25.452  17.310  0.3291  0.1089 -0.2599
  621POPC   NC3 7441   5.818  23.347  19.708 -0.2540  0.0699 -0.1216
  621POPC   PO4 7442   5.623  23.600  19.467  0.0103  0.0001 -0.0534
  621POPC   GL1 7443   5.614  23.784  19.090 -0.1127 -0.3214 -0.0562
  621POPC   GL2 7444   5.407  23.970  19.045  0.0270 -0.0938 -0.2563
  621POPC   C1A 7445   6.020  23.709  18.887 -0.4114 -0.0155 -0.1911
  621POPC   D2A 7446   6.343  23.597  18.595 -0.1885  0.2792 -0.5252
  621POPC   C3A 7447   6.622  23.564  18.231 -0.0477  0.0062  0.2355
  621POPC   C4A 7448   6.445  23.679  17.833 -0.2888  0.1617  0.4497
  621POPC   C1B 7449   5.613  24.030  18.667  0.1494 -0.0363 -0.0918
  621POPC   C2B 7450   5.769  24.366  18.469 -0.0900 -0.2626 -0.3829
  621POPC   C3B 7451   5.789  24.639  18.107  0.0709 -0.3536 -0.1748
  621POPC   C4B 7452   5.584  24.784  17.710 -0.0192  0.0710  0.0895
  622POPC   NC3 7453   6.336  19.145  19.118 -0.0142  0.0233 -0.0503
  622POPC   PO4 7454   6.234  18.767  19.129  0.1285  0.1111 -0.0617
  622POPC   GL1 7455   6.430  18.778  18.790 -0.0338 -0.1001  0.0278
  622POPC   GL2 7456   6.724  18.782  18.845 -0.1167 -0.4686  0.0010
  622POPC   C1A 7457   6.412  18.470  18.505  0.0499  0.1051  0.0739
  622POPC   D2A 7458   6.567  18.064  18.361 -0.2018  0.2784  0.0838
  622POPC   C3A 7459   6.660  17.780  17.938  0.0040 -0.0379 -0.0396
  622POPC   C4A 7460   6.624  17.612  17.525  0.1582 -0.2280  0.2397
  622POPC   C1B 7461   6.834  18.821  18.430  0.0724 -0.0584  0.0875
  622POPC   C2B 7462   6.883  18.734  18.012  0.2873 -0.1828  0.2517
  622POPC   C3B 7463   6.919  18.611  17.543 -0.2295  0.0282 -0.1331
  622POPC   C4B 7464   7.078  18.565  17.117 -0.2323 -0.2866 -0.4245
  623POPC   NC3 7465   3.587  20.074  19.180 -0.2294 -0.1638 -0.0961
  623POPC   PO4 7466   3.580  19.753  18.930  0.1503 -0.2722 -0.4996
  623POPC   GL1 7467   3.494  19.899  18.669  0.1878 -0.8828  0.0928
  623POPC   GL2 7468   3.180  19.946  18.564  0.2115  0.0251  0.0850
  623POPC   C1A 7469   3.737  19.874  18.245  0.0525  0.1881 -0.2067
  623POPC   D2A 7470   3.576  19.715  17.815  0.1669 -0.1918 -0.0489
  623POPC   C3A 7471   3.655  19.663  17.352 -0.2019 -0.1340  0.0794
  623POPC   C4A 7472   3.767  19.686  16.907 -0.0754 -0.1204 -0.0241
  623POPC   C1B 7473   2.968  20.105  18.212 -0.2186 -0.1292  0.2330
  623POPC   C2B 7474   2.681  20.212  17.820  0.0341 -0.1347 -0.2643
  623POPC   C3B 7475   2.430  19.998  17.464 -0.3245  0.1008 -0.2651
  623POPC   C4B 7476   2.070  19.815  17.201 -0.2800  0.1521  0.1051
  624POPC   NC3 7477   3.721  13.649  19.352  0.1040  0.3924 -0.0545
  624POPC   PO4 7478   3.574  13.999  19.221 -0.1097  0.0702  0.0054
  624POPC   GL1 7479   3.537  13.758  18.907 -0.3574 -0.0136 -0.0553
  624POPC   GL2 7480   3.710  13.547  18.785 -0.0789  0.1744  0.0131
  624POPC   C1A 7481   3.465  13.893  18.452 -0.3076  0.5469 -0.0106
  624POPC   D2A 7482   3.564  14.048  18.028  0.0200  0.2481  0.1795
  624POPC   C3A 7483   3.967  14.170  17.803 -0.0259 -0.0275 -0.1886
  624POPC   C4A 7484   4.347  14.368  17.770  0.3401 -0.0674 -0.1268
  624POPC   C1B 7485   3.559  13.399  18.392 -0.1083 -0.4195  0.0907
  624POPC   C2B 7486   3.409  13.611  17.998 -0.2330 -0.0477  0.1763
  624POPC   C3B 7487   3.435  13.776  17.606  0.0402  0.1557  0.0323
  624POPC   C4B 7488   3.443  14.016  17.243 -0.0992  0.1905 -0.0273
  625POPC   NC3 7489  10.982  19.827  19.185 -0.2205  0.0428  0.0374
  625POPC   PO4 7490  11.224  19.527  19.205 -0.1339 -0.1915  0.0040
  625POPC   GL1 7491  11.294  19.341  18.799  0.2407  0.1599 -0.0650
  625POPC   GL2 7492  11.440  19.663  18.722 -0.0641 -0.1194  0.3032
  625POPC   C1A 7493  11.122  19.371  18.354  0.0770 -0.1088 -0.1990
  625POPC   D2A 7494  10.798  19.481  18.060 -0.0453  0.0544 -0.0628
  625POPC   C3A 7495  10.990  19.621  17.629 -0.0001 -0.0458  0.3285
  625POPC   C4A 7496  11.346  19.593  17.355 -0.1504  0.2469  0.1312
  625POPC   C1B 7497  11.570  19.602  18.281  0.0693  0.2657 -0.0560
  625POPC   C2B 7498  11.758  19.382  17.937 -0.2383 -0.0275 -0.2592
  625POPC   C3B 7499  11.767  19.318  17.438 -0.2469 -0.1614 -0.2232
  625POPC   C4B 7500  11.977  19.493  17.090  0.3478 -0.0445  0.1573
  626POPC   NC3 7501   1.072  13.369  19.436  0.2676 -0.0135 -0.0350
  626POPC   PO4 7502   0.706  13.237  19.440 -0.0847 -0.0502 -0.1039
  626POPC   GL1 7503   0.652  13.092  19.051  0.0505  0.0702  0.0717
  626POPC   GL2 7504   0.722  13.386  18.986 -0.6612 -0.0529  0.6715
  626POPC   C1A 7505   0.926  12.942  18.723  0.2332 -0.0710 -0.1105
  626POPC   D2A 7506   1.250  12.737  18.426  0.1014 -0.1774 -0.0238
  626POPC   C3A 7507   1.415  12.420  18.137 -0.3086 -0.1330 -0.0938
  626POPC   C4A 7508   1.233  12.282  17.757  0.3145 -0.0742 -0.1627
  626POPC   C1B 7509   0.531  13.264  18.522 -0.2455  0.2225  0.0572
  626POPC   C2B 7510   0.738  13.057  18.162 -0.0096 -0.0457 -0.0588
  626POPC   C3B 7511   1.042  12.712  17.956  0.0873 -0.0491 -0.0987
  626POPC   C4B 7512   1.471  12.817  17.820 -0.3269  0.2715 -0.3410
  627POPC   NC3 7513  15.460  15.018  18.740  0.0527  0.0410 -0.3525
  627POPC   PO4 7514  15.750  14.849  18.906  0.1844 -0.0200  0.4792
  627POPC   GL1 7515  15.823  14.739  18.547  0.1898 -0.1984 -0.0586
  627POPC   GL2 7516  15.613  14.493  18.523  0.0882 -0.1030 -0.1534
  627POPC   C1A 7517  16.023  14.771  18.122  0.0389 -0.1374 -0.3171
  627POPC   D2A 7518  16.204  14.849  17.662  0.0545 -0.0389 -0.0726
  627POPC   C3A 7519  16.027  15.114  17.299 -0.1528 -0.0124  0.1001
  627POPC   C4A 7520  15.695  15.234  17.005 -0.1842  0.1250 -0.1457
  627POPC   C1B 7521  15.592  14.568  18.015  0.1170 -0.1867  0.0293
  627POPC   C2B 7522  15.411  14.662  17.581 -0.0167  0.0544  0.0163
  627POPC   C3B 7523  15.068  14.479  17.280  0.1938 -0.0017 -0.0085
  627POPC   C4B 7524  14.761  14.171  17.161 -0.1952  0.2382 -0.0018
  628POPC   NC3 7525  12.038  19.391  19.483  0.1488  0.0341  0.2956
  628POPC   PO4 7526  12.402  19.205  19.419  0.0990  0.3425 -0.1198
  628POPC   GL1 7527  12.325  19.299  19.020  0.1280 -0.1147 -0.0472
  628POPC   GL2 7528  12.380  19.103  18.758  0.1380  0.1238 -0.0239
  628POPC   C1A 7529  12.126  19.593  18.709 -0.1439  0.0829  0.0752
  628POPC   D2A 7530  11.960  19.893  18.420  0.1914 -0.0044 -0.2515
  628POPC   C3A 7531  12.095  19.769  18.005 -0.2519 -0.3834 -0.1978
  628POPC   C4A 7532  12.458  19.726  17.636  0.0913 -0.2139  0.0677
  628POPC   C1B 7533  12.285  19.294  18.333 -0.1221 -0.2888  0.0264
  628POPC   C2B 7534  12.266  19.318  17.900  0.1260  0.1822 -0.0911
  628POPC   C3B 7535  12.388  19.258  17.433  0.1894  0.0434 -0.3911
  628POPC   C4B 7536  12.501  19.131  17.023 -0.3242  0.1807  0.1623
  629POPC   NC3 7537  12.433  23.091  19.086  0.0671  0.2092  0.0035
  629POPC   PO4 7538  12.174  23.164  19.398 -0.1893 -0.2025 -0.1257
  629POPC   GL1 7539  12.029  23.343  19.074 -0.2057 -0.0008 -0.1057
  629POPC   GL2 7540  11.761  23.479  19.053  0.1262  0.1694 -0.1143
  629POPC   C1A 7541  12.087  23.165  18.648 -0.0501 -0.0130  0.1425
  629POPC   D2A 7542  11.959  23.312  18.210  0.1576  0.1712  0.0465
  629POPC   C3A 7543  12.095  23.367  17.773  0.1038 -0.3708  0.1070
  629POPC   C4A 7544  12.329  23.710  17.585 -0.5049  0.0017 -0.0707
  629POPC   C1B 7545  11.821  23.670  18.702 -0.0166  0.0852  0.1658
  629POPC   C2B 7546  12.026  23.818  18.306  0.0076  0.0591 -0.2775
  629POPC   C3B 7547  11.971  23.867  17.858 -0.1867  0.1245  0.1945
  629POPC   C4B 7548  11.835  23.634  17.461 -0.1767  0.2774 -0.1671
  630POPC   NC3 7549  11.453  25.974  19.793 -0.0000 -0.2062 -0.1605
  630POPC   PO4 7550  11.576  25.697  20.036 -0.2310 -0.2340 -0.1311
  630POPC   GL1 7551  11.747  25.635  19.703 -0.0892 -0.3789  0.0327
  630POPC   GL2 7552  12.009  25.484  19.511  0.2076  0.3868  0.0355
  630POPC   C1A 7553  11.676  25.801  19.293  0.1635 -0.0338  0.1188
  630POPC   D2A 7554  11.623  26.135  19.002 -0.0458 -0.1473 -0.1734
  630POPC   C3A 7555  11.721  26.094  18.503 -0.0694 -0.0210  0.1766
  630POPC   C4A 7556  11.777  26.160  18.033 -0.0731  0.1180  0.0543
  630POPC   C1B 7557  12.113  25.650  19.112  0.1429 -0.2613 -0.1743
  630POPC   C2B 7558  12.112  25.914  18.754 -0.0138  0.1673 -0.2023
  630POPC   C3B 7559  12.188  26.002  18.370 -0.1585 -0.3264  0.0795
  630POPC   C4B 7560  12.343  25.881  17.964 -0.1819  0.1065 -0.0607
  631POPC   NC3 7561  10.446   6.938  19.560 -0.2121 -0.2176 -0.1549
  631POPC   PO4 7562  10.280   6.620  19.382  0.0904  0.0822  0.0092
  631POPC   GL1 7563  10.272   6.565  19.022  0.1253 -0.3811 -0.0166
  631POPC   GL2 7564  10.515   6.551  18.843 -0.2495  0.1103 -0.0484
  631POPC   C1A 7565  10.006   6.673  18.654 -0.3361  0.0033 -0.3092
  631POPC   D2A 7566   9.979   6.793  18.241 -0.2400  0.4179 -0.3253
  631POPC   C3A 7567   9.735   7.046  17.973 -0.0525 -0.0579  0.1734
  631POPC   C4A 7568   9.480   6.973  17.581 -0.2286  0.1133 -0.3081
  631POPC   C1B 7569  10.472   6.748  18.423  0.1182 -0.2399  0.0212
  631POPC   C2B 7570  10.371   7.061  18.108 -0.0725 -0.0602  0.2863
  631POPC   C3B 7571  10.237   7.488  17.890  0.2949  0.2843 -0.1734
  631POPC   C4B 7572  10.243   7.779  17.575 -0.1476 -0.2658  0.2314
  632POPC   NC3 7573  15.060   3.983  19.355 -0.3874  0.1643  0.1135
  632POPC   PO4 7574  14.990   3.650  19.280  0.1866 -0.0251  0.2732
  632POPC   GL1 7575  15.092   3.813  18.920  0.1611 -0.1037  0.1754
  632POPC   GL2 7576  14.921   4.051  18.927 -0.1224  0.1612  0.3272
  632POPC   C1A 7577  15.464   4.082  18.913  0.0974 -0.0666  0.1336
  632POPC   D2A 7578  15.517   4.507  18.745  0.2522 -0.0447 -0.1611
  632POPC   C3A 7579  15.754   4.602  18.325  0.0080  0.1116  0.0027
  632POPC   C4A 7580  15.844   4.840  17.927  0.0981  0.1716  0.0175
  632POPC   C1B 7581  14.723   4.293  18.625 -0.0225  0.1356 -0.0874
  632POPC   C2B 7582  14.849   4.673  18.419 -0.4268  0.0268 -0.1744
  632POPC   C3B 7583  14.843   4.760  17.915  0.4153 -0.3291  0.0709
  632POPC   C4B 7584  14.933   4.771  17.455  0.1285 -0.1873 -0.0796
  633POPC   NC3 7585   4.468   8.913  19.427  0.1769  0.1346 -0.0249
  633POPC   PO4 7586   4.371   9.241  19.517 -0.0350  0.1850 -0.1063
  633POPC   GL1 7587   4.410   9.321  19.083 -0.1357  0.3130  0.5977
  633POPC   GL2 7588   4.268   9.520  18.996  0.2613 -0.1938  0.0664
  633POPC   C1A 7589   4.438   9.280  18.626  0.1486  0.2913  0.2190
  633POPC   D2A 7590   4.394   9.546  18.236  0.0330 -0.0193 -0.0979
  633POPC   C3A 7591   4.286   9.224  17.915 -0.0208 -0.1384 -0.0811
  633POPC   C4A 7592   4.132   8.905  17.665  0.0268 -0.0031 -0.0467
  633POPC   C1B 7593   4.401   9.812  18.646  0.0979 -0.2636  0.0178
  633POPC   C2B 7594   4.425  10.057  18.278 -0.2864  0.2423  0.0856
  633POPC   C3B 7595   4.735  10.341  18.017 -0.3231 -0.3702  0.1646
  633POPC   C4B 7596   4.665  10.663  17.749  0.1396  0.1657 -0.0369
  634POPC   NC3 7597   6.638   4.792  19.539 -0.1247  0.1473 -0.1186
  634POPC   PO4 7598   6.620   5.088  19.284 -0.1548  0.2489 -0.0169
  634POPC   GL1 7599   6.842   4.970  18.934 -0.1562 -0.0429  0.0766
  634POPC   GL2 7600   6.728   4.712  18.898 -0.0143 -0.0926 -0.1952
  634POPC   C1A 7601   6.761   4.918  18.471  0.2436  0.2962  0.3088
  634POPC   D2A 7602   7.012   4.860  18.094  0.1251 -0.2079 -0.3102
  634POPC   C3A 7603   6.864   4.536  17.823 -0.2033  0.0127  0.0587
  634POPC   C4A 7604   6.894   4.173  17.530  0.2155 -0.2562 -0.0567
  634POPC   C1B 7605   6.638   4.371  18.549  0.1499  0.1457  0.1972
  634POPC   C2B 7606   6.549   4.220  18.109  0.1460  0.2232  0.0772
  634POPC   C3B 7607   6.417   3.931  17.795 -0.0127  0.1302 -0.1522
  634POPC   C4B 7608   6.318   3.469  17.739 -0.0188 -0.3786 -0.0004
  635POPC   NC3 7609   5.535  16.229  20.071 -0.1037 -0.1218 -0.0822
  635POPC   PO4 7610   5.424  16.134  19.669  0.3398  0.1370  0.1217
  635POPC   GL1 7611   5.440  16.157  19.260 -0.0902 -0.0179 -0.1459
  635POPC   GL2 7612   5.549  15.903  19.070 -0.1380 -0.2331  0.0925
  635POPC   C1A 7613   5.524  16.414  18.882  0.3649  0.0574 -0.3170
  635POPC   D2A 7614   5.623  16.843  18.806  0.0881  0.0740 -0.2275
  635POPC   C3A 7615   5.553  17.077  18.454 -0.1269 -0.3504  0.3651
  635POPC   C4A 7616   5.391  16.896  18.060 -0.0451 -0.1925  0.1746
  635POPC   C1B 7617   5.730  15.818  18.669  0.1551 -0.0402 -0.3335
  635POPC   C2B 7618   5.943  15.866  18.290 -0.1761 -0.1000 -0.1873
  635POPC   C3B 7619   5.915  15.850  17.845 -0.0043 -0.1089  0.1299
  635POPC   C4B 7620   5.805  16.081  17.469  0.1632  0.2975  0.2699
  636POPC   NC3 7621  11.357   5.700  18.735  0.1106 -0.0398  0.2765
  636POPC   PO4 7622  11.252   5.956  18.974  0.2255  0.0654  0.3565
  636POPC   GL1 7623  11.415   6.187  18.755 -0.0889  0.2582  0.0373
  636POPC   GL2 7624  11.276   6.191  18.533  0.2191 -0.1462 -0.2142
  636POPC   C1A 7625  11.663   6.440  18.444  0.2377  0.0455 -0.0903
  636POPC   D2A 7626  12.125   6.602  18.502  0.1185  0.0212  0.2893
  636POPC   C3A 7627  12.301   6.569  18.076 -0.1773  0.1137 -0.4316
  636POPC   C4A 7628  12.458   6.500  17.670  0.1284 -0.0431 -0.0573
  636POPC   C1B 7629  11.333   6.305  18.092 -0.0484  0.0116  0.3656
  636POPC   C2B 7630  11.424   6.477  17.694 -0.1523 -0.4442  0.0101
  636POPC   C3B 7631  11.481   6.560  17.255  0.0776 -0.1163  0.1299
  636POPC   C4B 7632  11.476   6.690  16.828 -0.3675  0.0642  0.1177
  637POPC   NC3 7633   1.523  17.201  19.549 -0.1319 -0.3731 -0.0378
  637POPC   PO4 7634   1.646  17.574  19.450  0.1310  0.1149  0.3296
  637POPC   GL1 7635   1.676  17.584  19.045  0.2954 -0.1807 -0.3674
  637POPC   GL2 7636   1.634  17.345  18.972  0.3902  0.4248  0.1641
  637POPC   C1A 7637   1.414  17.791  18.689  0.3199  0.0577 -0.0704
  637POPC   D2A 7638   1.498  17.504  18.370  0.1557 -0.0700  0.1617
  637POPC   C3A 7639   1.641  17.420  17.902 -0.0263 -0.1307 -0.1440
  637POPC   C4A 7640   1.618  17.225  17.512  0.2438  0.2076 -0.3408
  637POPC   C1B 7641   1.898  17.233  18.611 -0.0938  0.2922  0.2610
  637POPC   C2B 7642   1.971  17.283  18.188  0.0091 -0.1932  0.0178
  637POPC   C3B 7643   2.135  17.256  17.747  0.3244 -0.1126 -0.2298
  637POPC   C4B 7644   2.256  17.137  17.285  0.1037 -0.0841 -0.0197
  638POPC   NC3 7645   6.351  27.877  19.778 -0.0013  0.2492 -0.3772
  638POPC   PO4 7646   6.147  27.869  19.462 -0.1538  0.3115  0.1845
  638POPC   GL1 7647   6.174  27.944  19.122 -0.3071  0.0928 -0.1111
  638POPC   GL2 7648   6.271  28.221  19.006  0.0496  0.0169 -0.1821
  638POPC   C1A 7649   5.809  27.800  18.832  0.1215 -0.1751  0.1669
  638POPC   D2A 7650   5.663  27.925  18.444  0.0106 -0.1855  0.1455
  638POPC   C3A 7651   5.927  28.087  18.077 -0.0210 -0.1195  0.0034
  638POPC   C4A 7652   5.770  28.127  17.669 -0.0786  0.2604  0.0261
  638POPC   C1B 7653   6.206  28.167  18.539  0.1128  0.0669 -0.0340
  638POPC   C2B 7654   6.429  28.261  18.145  0.0520 -0.1090 -0.0705
  638POPC   C3B 7655   6.301  27.971  17.766  0.0654 -0.0050 -0.2445
  638POPC   C4B 7656   6.069  27.676  17.479  0.0690  0.1415  0.0283
  639POPC   NC3 7657  11.753   0.491  19.135 -0.2508  0.1048 -0.0800
  639POPC   PO4 7658  12.047   0.354  19.254  0.0691 -0.4294  0.2712
  639POPC   GL1 7659  12.118   0.304  18.876  0.1820  0.0079  0.1557
  639POPC   GL2 7660  12.452   0.156  18.921 -0.0792 -0.3258  0.0832
  639POPC   C1A 7661  11.789   0.409  18.556 -0.1125 -0.0656  0.0023
  639POPC   D2A 7662  11.494   0.315  18.187 -0.2001 -0.2083 -0.0291
  639POPC   C3A 7663  11.598   0.143  17.734  0.2547 -0.0829 -0.2707
  639POPC   C4A 7664  11.801   0.239  17.324 -0.1850 -0.1555  0.0165
  639POPC   C1B 7665  12.537   0.505  18.604  0.0272  0.1003  0.1619
  639POPC   C2B 7666  12.443   0.778  18.209  0.0145  0.0199 -0.0351
  639POPC   C3B 7667  12.457   0.762  17.726  0.1971  0.2181 -0.1094
  639POPC   C4B 7668  12.405   0.698  17.264  0.0445 -0.3064  0.0769
  640POPC   NC3 7669  12.162  15.871  19.036  0.0361  0.0642 -0.4413
  640POPC   PO4 7670  12.483  15.795  19.257 -0.0237  0.2734  0.0552
  640POPC   GL1 7671  12.542  15.890  18.829 -0.2126 -0.2269  0.1879
  640POPC   GL2 7672  12.523  15.561  18.722 -0.1799 -0.1863  0.1364
  640POPC   C1A 7673  12.863  16.077  18.624  0.0881  0.0513  0.2108
  640POPC   D2A 7674  12.935  16.345  18.235  0.0525 -0.0869  0.0320
  640POPC   C3A 7675  12.925  15.966  17.945 -0.2549 -0.0715  0.1725
  640POPC   C4A 7676  12.943  15.894  17.446  0.0373 -0.0524  0.0623
  640POPC   C1B 7677  12.582  15.675  18.246 -0.0752 -0.0348 -0.1359
  640POPC   C2B 7678  12.540  15.628  17.791  0.0225 -0.1307  0.0703
  640POPC   C3B 7679  12.394  15.959  17.502 -0.0109 -0.0161 -0.3769
  640POPC   C4B 7680  12.293  16.379  17.385  0.0294  0.3801  0.0501
  641POPC   NC3 7681   1.634   3.661  19.016 -0.1597  0.3794 -0.5159
  641POPC   PO4 7682   1.706   3.298  18.958 -0.2702 -0.0219  0.1254
  641POPC   GL1 7683   1.751   3.405  18.581  0.1210 -0.2324 -0.4102
  641POPC   GL2 7684   1.622   3.685  18.523  0.3403  0.3292 -0.1638
  641POPC   C1A 7685   1.865   3.443  18.118 -0.1004  0.0374 -0.1590
  641POPC   D2A 7686   2.016   3.782  17.813 -0.0614 -0.0595 -0.0495
  641POPC   C3A 7687   1.961   3.817  17.344  0.1338 -0.0135 -0.0983
  641POPC   C4A 7688   1.566   3.692  17.117 -0.1222 -0.0950 -0.0686
  641POPC   C1B 7689   1.661   3.950  18.106 -0.1953  0.1477 -0.2195
  641POPC   C2B 7690   1.725   4.139  17.646  0.0633  0.1125 -0.0861
  641POPC   C3B 7691   1.608   4.187  17.189  0.2817  0.0448  0.0815
  641POPC   C4B 7692   1.720   4.447  16.843 -0.1867  0.1807 -0.3611
  642POPC   NC3 7693   9.282  28.304  18.959  0.2535 -0.4188  0.0577
  642POPC   PO4 7694   9.220  27.871  18.868  0.1873  0.0158 -0.0178
  642POPC   GL1 7695   9.275  27.766  18.437  0.1391 -0.3836  0.0859
  642POPC   GL2 7696   9.381  27.464  18.543 -0.1457 -0.0509 -0.0684
  642POPC   C1A 7697   8.921  27.696  18.123 -0.0817  0.2318 -0.1238
  642POPC   D2A 7698   8.783  27.691  17.617  0.2881  0.2834 -0.2945
  642POPC   C3A 7699   8.415  27.932  17.448  0.1688  0.2393  0.2130
  642POPC   C4A 7700   8.224  28.343  17.322  0.1065  0.1480  0.0730
  642POPC   C1B 7701   9.455  27.552  18.096 -0.0048 -0.1954 -0.1181
  642POPC   C2B 7702   9.220  27.423  17.741  0.1180  0.1229  0.2712
  642POPC   C3B 7703   9.200  27.412  17.296  0.2301 -0.1903 -0.2355
  642POPC   C4B 7704   9.247  27.216  16.848 -0.2198 -0.1073  0.0071
  643POPC   NC3 7705   2.162  27.056  19.753  0.0456  0.2131  0.1659
  643POPC   PO4 7706   2.493  27.174  19.525 -0.0157  0.1092  0.2270
  643POPC   GL1 7707   2.666  26.991  19.267  0.2520 -0.0800  0.0384
  643POPC   GL2 7708   2.951  27.093  19.276  0.0671  0.1164  0.0943
  643POPC   C1A 7709   2.622  26.839  18.804 -0.0175  0.0732  0.2212
  643POPC   D2A 7710   2.726  26.832  18.333  0.0102 -0.0804 -0.0082
  643POPC   C3A 7711   2.496  27.001  17.947 -0.0310  0.1019  0.0147
  643POPC   C4A 7712   2.350  27.165  17.541 -0.1669  0.0014 -0.0285
  643POPC   C1B 7713   3.135  26.823  18.875 -0.1642  0.1227 -0.0321
  643POPC   C2B 7714   3.164  27.005  18.450  0.3136  0.1391 -0.1853
  643POPC   C3B 7715   3.464  27.159  18.091 -0.2006 -0.1121 -0.0870
  643POPC   C4B 7716   3.510  27.319  17.706  0.0628 -0.3202  0.1637
  644POPC   NC3 7717  12.918  28.886  19.081  0.4118 -0.0149  0.0625
  644POPC   PO4 7718  12.934  28.531  19.222 -0.1720 -0.2260  0.4202
  644POPC   GL1 7719  13.029  28.461  18.909 -0.5017 -0.0256 -0.0465
  644POPC   GL2 7720  12.767  28.500  18.733  0.0061  0.0163 -0.1275
  644POPC   C1A 7721  13.161  28.309  18.493  0.1744  0.1069 -0.0613
  644POPC   D2A 7722  13.509  28.135  18.263 -0.0480  0.3398 -0.0886
  644POPC   C3A 7723  13.524  27.798  17.892  0.2481 -0.2285 -0.1123
  644POPC   C4A 7724  13.849  27.648  17.568  0.2847  0.3186  0.0354
  644POPC   C1B 7725  12.740  28.061  18.587  0.0764  0.3958  0.4218
  644POPC   C2B 7726  12.914  27.879  18.216  0.1715  0.0495 -0.3777
  644POPC   C3B 7727  12.779  27.549  17.955  0.1362  0.0384 -0.0582
  644POPC   C4B 7728  12.671  27.137  17.871 -0.1525 -0.1918 -0.3530
  645POPC   NC3 7729   5.324   2.075  19.875 -0.2210  0.5642  0.0038
  645POPC   PO4 7730   5.209   1.828  19.546  0.0745  0.1577  0.1303
  645POPC   GL1 7731   5.409   1.919  19.110 -0.3070 -0.0331 -0.2774
  645POPC   GL2 7732   5.211   1.986  18.916  0.3253  0.1852  0.0924
  645POPC   C1A 7733   5.550   2.327  18.940 -0.1417  0.0015 -0.1409
  645POPC   D2A 7734   5.646   2.710  18.681 -0.0343  0.2439 -0.0412
  645POPC   C3A 7735   5.762   2.999  19.011  0.1867  0.0501 -0.1027
  645POPC   C4A 7736   5.830   3.140  19.420  0.0115  0.0572 -0.2698
  645POPC   C1B 7737   5.302   2.242  18.531  0.0595 -0.0185 -0.0012
  645POPC   C2B 7738   5.536   2.542  18.244  0.0044 -0.1451 -0.0900
  645POPC   C3B 7739   5.950   2.811  18.078  0.2044  0.4042  0.3106
  645POPC   C4B 7740   5.933   3.156  17.755  0.1428  0.0122 -0.0770
  646POPC   NC3 7741  11.410   8.904  19.580  0.0847 -0.1820  0.0761
  646POPC   PO4 7742  11.162   9.223  19.569  0.0855 -0.3517  0.1349
  646POPC   GL1 7743  11.095   9.302  19.141 -0.0130  0.2595  0.3388
  646POPC   GL2 7744  11.231   9.023  19.053  0.1031 -0.4107 -0.0020
  646POPC   C1A 7745  10.742   9.229  18.789  0.0707 -0.1437 -0.2509
  646POPC   D2A 7746  10.627   9.061  18.369 -0.0469  0.0544 -0.1914
  646POPC   C3A 7747  10.607   8.667  18.197 -0.1284 -0.1051  0.1860
  646POPC   C4A 7748  10.249   8.416  18.117  0.0532  0.1739 -0.0793
  646POPC   C1B 7749  11.128   8.909  18.592 -0.2940  0.2922 -0.3923
  646POPC   C2B 7750  11.012   8.851  18.149 -0.0170  0.0262  0.1687
  646POPC   C3B 7751  10.976   8.683  17.737 -0.0497 -0.1656 -0.0504
  646POPC   C4B 7752  11.104   8.576  17.331  0.0373 -0.3892  0.1812
  647POPC   NC3 7753   2.965  26.502  19.284 -0.1321  0.2613  0.2844
  647POPC   PO4 7754   2.607  26.570  19.449  0.0224 -0.4971  0.0429
  647POPC   GL1 7755   2.643  26.356  19.019  0.0804  0.1085 -0.0259
  647POPC   GL2 7756   2.514  26.186  18.910  0.1862 -0.0821 -0.4043
  647POPC   C1A 7757   2.869  26.428  18.619  0.0736 -0.2300  0.2845
  647POPC   D2A 7758   3.156  26.552  18.234  0.1184 -0.3072  0.0962
  647POPC   C3A 7759   3.045  26.924  17.932  0.0682  0.1502  0.0945
  647POPC   C4A 7760   2.949  27.289  17.613  0.1444  0.0387 -0.0119
  647POPC   C1B 7761   2.413  26.383  18.541  0.2653 -0.1741 -0.1242
  647POPC   C2B 7762   2.310  26.573  18.142  0.0763 -0.1056  0.1006
  647POPC   C3B 7763   2.143  26.696  17.735  0.0960  0.0846  0.1100
  647POPC   C4B 7764   1.835  26.917  17.510  0.5186  0.0624 -0.3206
  648POPC   NC3 7765   9.543  26.604  18.985  0.3608 -0.2428  0.0639
  648POPC   PO4 7766   9.203  26.835  19.032 -0.3108 -0.3890  0.0190
  648POPC   GL1 7767   9.147  26.653  18.697  0.0428  0.0789  0.2051
  648POPC   GL2 7768   9.206  26.373  18.649  0.2273 -0.1127  0.1710
  648POPC   C1A 7769   8.870  26.693  18.331  0.0442 -0.2939  0.3821
  648POPC   D2A 7770   8.626  26.631  17.927 -0.1755 -0.0832  0.0288
  648POPC   C3A 7771   8.528  26.171  17.769  0.0806 -0.1256  0.3141
  648POPC   C4A 7772   8.133  25.918  17.761 -0.0472 -0.0249 -0.1844
  648POPC   C1B 7773   9.272  26.110  18.360 -0.0697  0.0851  0.1409
  648POPC   C2B 7774   9.382  25.899  17.963 -0.0420 -0.2890 -0.1271
  648POPC   C3B 7775   9.455  26.062  17.547  0.1952  0.0054 -0.2310
  648POPC   C4B 7776   9.696  25.982  17.104  0.0288  0.0931 -0.0142
  649POPC   NC3 7777  12.878  29.967  19.531  0.1221 -0.0125  0.1406
  649POPC   PO4 7778  13.234  30.068  19.394 -0.0281  0.2163  0.0061
  649POPC   GL1 7779  13.058  29.906  19.031 -0.1456  0.1416  0.0537
  649POPC   GL2 7780  13.260  29.813  18.913 -0.0328 -0.1506 -0.0441
  649POPC   C1A 7781  12.809  29.739  18.676  0.2066  0.2282 -0.0175
  649POPC   D2A 7782  12.882  29.508  18.309 -0.1154  0.0296 -0.1035
  649POPC   C3A 7783  13.069  29.668  17.908  0.2107 -0.0459 -0.2315
  649POPC   C4A 7784  13.341  29.657  17.575  0.0850 -0.0711  0.0534
  649POPC   C1B 7785  13.299  29.793  18.455  0.2499  0.0112  0.1582
  649POPC   C2B 7786  13.512  29.784  18.074  0.0054  0.1928 -0.0591
  649POPC   C3B 7787  13.685  30.054  17.715  0.4085  0.2999 -0.1646
  649POPC   C4B 7788  13.888  30.344  17.367  0.1579 -0.1581 -0.3681
  650POPC   NC3 7789   9.842  30.474  19.225  0.1340  0.0660  0.0014
  650POPC   PO4 7790   9.868  30.802  19.048 -0.0922  0.1260  0.3195
  650POPC   GL1 7791   9.688  30.665  18.687 -0.1955 -0.0366  0.2044
  650POPC   GL2 7792   9.395  30.839  18.737 -0.1564 -0.2080 -0.4320
  650POPC   C1A 7793   9.815  30.562  18.211 -0.1496 -0.1559  0.0252
  650POPC   D2A 7794  10.189  30.739  18.014  0.4217 -0.3449  0.2079
  650POPC   C3A 7795  10.511  30.488  17.968 -0.3847  0.4206 -0.0465
  650POPC   C4A 7796  10.873  30.303  18.078 -0.0317  0.2316  0.1066
  650POPC   C1B 7797   9.624  30.995  18.369  0.0488  0.1368 -0.0323
  650POPC   C2B 7798   9.732  30.942  17.913  0.1064 -0.2837  0.0706
  650POPC   C3B 7799   9.942  31.070  17.539  0.1399  0.0940  0.1100
  650POPC   C4B 7800  10.183  31.251  17.291  0.1362 -0.0338  0.0743
  651POPC   NC3 7801   0.441  12.141  19.047 -0.1326 -0.2901 -0.2347
  651POPC   PO4 7802   0.788  12.285  19.141  0.3611 -0.2331  0.2290
  651POPC   GL1 7803   0.655  12.628  18.921 -0.4350  0.2502 -0.1802
  651POPC   GL2 7804   0.426  12.651  19.079  0.1055  0.2655  0.0123
  651POPC   C1A 7805   0.688  12.539  18.470  0.0138 -0.1336  0.0601
  651POPC   D2A 7806   0.657  12.489  18.000 -0.1822 -0.5612 -0.0508
  651POPC   C3A 7807   0.699  12.719  17.597  0.0227  0.0045  0.2355
  651POPC   C4A 7808   0.883  12.662  17.183  0.2029 -0.2366  0.1140
  651POPC   C1B 7809   0.342  12.837  18.654  0.1108 -0.3602 -0.0729
  651POPC   C2B 7810   0.274  12.697  18.234  0.0780  0.0548  0.0102
  651POPC   C3B 7811   0.106  12.375  17.989  0.1262  0.0662 -0.1664
  651POPC   C4B 7812   0.325  11.983  17.849  0.1866 -0.3299 -0.1171
  652POPC   NC3 7813  12.552  15.119  18.962 -0.1949  0.0339  0.2609
  652POPC   PO4 7814  12.213  15.331  19.041  0.0439  0.2940  0.2877
  652POPC   GL1 7815  12.225  15.126  18.639  0.1647  0.0108 -0.0803
  652POPC   GL2 7816  12.129  15.366  18.467  0.2162 -0.1157 -0.1364
  652POPC   C1A 7817  12.481  15.147  18.246 -0.0765  0.2650  0.3637
  652POPC   D2A 7818  12.714  15.089  17.795  0.2014  0.2652 -0.3586
  652POPC   C3A 7819  12.910  15.388  17.474  0.1471 -0.0849  0.2850
  652POPC   C4A 7820  13.135  15.197  17.111 -0.2622  0.1171 -0.2576
  652POPC   C1B 7821  12.186  15.848  18.447 -0.1281  0.2210  0.4980
  652POPC   C2B 7822  12.383  16.116  18.084  0.2880 -0.1905 -0.1918
  652POPC   C3B 7823  12.617  16.456  17.831 -0.1166  0.1239  0.4522
  652POPC   C4B 7824  12.970  16.583  17.611 -0.0002  0.2036 -0.3112
  653POPC   NC3 7825   4.273  22.874  19.174  0.2565  0.1398 -0.0957
  653POPC   PO4 7826   4.149  22.652  19.433 -0.1560  0.1118 -0.0394
  653POPC   GL1 7827   4.078  22.433  19.133 -0.0622 -0.1451  0.0014
  653POPC   GL2 7828   4.276  22.227  18.985 -0.2608  0.2234  0.0801
  653POPC   C1A 7829   4.275  22.657  18.729  0.2970 -0.1769  0.0904
  653POPC   D2A 7830   4.425  22.708  18.342  0.1016  0.0620  0.2030
  653POPC   C3A 7831   4.189  22.713  17.937 -0.0388 -0.0681  0.3528
  653POPC   C4A 7832   3.753  22.567  17.767  0.2648  0.0287  0.2400
  653POPC   C1B 7833   4.335  22.207  18.558  0.0826  0.0761  0.1751
  653POPC   C2B 7834   4.475  22.281  18.128 -0.0067 -0.3320  0.0338
  653POPC   C3B 7835   4.506  22.308  17.678  0.2425 -0.0328 -0.2514
  653POPC   C4B 7836   4.355  22.335  17.282  0.0331  0.0635 -0.1674
  654POPC   NC3 7837  15.688  28.278  19.550  0.2368 -0.0419 -0.1013
  654POPC   PO4 7838  15.959  28.168  19.308  0.1875  0.2137 -0.2550
  654POPC   GL1 7839  16.227  28.285  19.073  0.0480 -0.0779  0.0484
  654POPC   GL2 7840  16.082  28.547  18.971  0.0039  0.1297  0.0206
  654POPC   C1A 7841  16.408  28.473  18.667 -0.0152 -0.2884 -0.1567
  654POPC   D2A 7842  16.585  28.533  18.220  0.4291 -0.0791 -0.1443
  654POPC   C3A 7843  16.529  28.833  17.924 -0.2385 -0.2274 -0.0396
  654POPC   C4A 7844  16.501  28.774  17.431  0.0278 -0.1187 -0.0421
  654POPC   C1B 7845  15.941  28.702  18.561 -0.1355 -0.4267 -0.4047
  654POPC   C2B 7846  16.098  28.781  18.150 -0.2822 -0.0452 -0.3151
  654POPC   C3B 7847  15.956  28.835  17.704  0.1277  0.1629 -0.3151
  654POPC   C4B 7848  15.821  29.183  17.385 -0.1669  0.0873 -0.0102
  655POPC   NC3 7849   2.932   2.539  18.920  0.1355 -0.2208 -0.0189
  655POPC   PO4 7850   3.241   2.612  19.202  0.4851 -0.2525  0.0607
  655POPC   GL1 7851   3.360   2.876  18.907  0.2200  0.1374  0.0907
  655POPC   GL2 7852   3.601   2.815  18.759  0.1703  0.1671 -0.0914
  655POPC   C1A 7853   3.206   3.161  18.566 -0.0510 -0.0435  0.0182
  655POPC   D2A 7854   3.211   3.486  18.237  0.0272  0.2985 -0.1020
  655POPC   C3A 7855   2.978   3.471  17.852  0.0677 -0.1299 -0.0742
  655POPC   C4A 7856   2.919   3.580  17.416 -0.3672  0.1590 -0.3482
  655POPC   C1B 7857   3.551   2.856  18.290 -0.1324 -0.0973  0.3016
  655POPC   C2B 7858   3.444   2.771  17.872  0.0200  0.1974  0.2865
  655POPC   C3B 7859   3.451   2.660  17.413  0.1119 -0.0128  0.1618
  655POPC   C4B 7860   3.263   2.667  17.019 -0.0415  0.2355 -0.2534
  656POPC   NC3 7861   1.478  28.989  19.227  0.2484  0.2000 -0.2734
  656POPC   PO4 7862   1.504  29.371  19.426  0.2461 -0.1571  0.0003
  656POPC   GL1 7863   1.754  29.288  19.003  0.1718 -0.1934 -0.1362
  656POPC   GL2 7864   1.682  29.615  18.931 -0.2938 -0.0950 -0.2427
  656POPC   C1A 7865   1.543  29.121  18.617 -0.0500 -0.2909 -0.0567
  656POPC   D2A 7866   1.137  29.065  18.438 -0.1714 -0.0561 -0.0096
  656POPC   C3A 7867   0.851  29.248  18.236 -0.0376  0.1759 -0.0256
  656POPC   C4A 7868   0.932  29.508  17.836  0.0038 -0.0771 -0.0026
  656POPC   C1B 7869   1.781  29.514  18.497  0.0453 -0.1056  0.0274
  656POPC   C2B 7870   1.469  29.373  18.189 -0.1300 -0.0744 -0.0835
  656POPC   C3B 7871   1.295  29.042  17.948 -0.1220 -0.1787 -0.2226
  656POPC   C4B 7872   0.989  29.022  17.588 -0.0227 -0.0596 -0.0922
  657POPC   NC3 7873  11.450   7.461  18.887  0.1868  0.0395 -0.0365
  657POPC   PO4 7874  11.164   7.611  19.065  0.0474  0.2203  0.0780
  657POPC   GL1 7875  11.007   7.615  18.703 -0.3590 -0.1231 -0.1381
  657POPC   GL2 7876  10.768   7.463  18.725  0.0584 -0.0489 -0.0395
  657POPC   C1A 7877  11.079   7.966  18.370 -0.0899  0.3332  0.0829
  657POPC   D2A 7878  11.019   8.327  18.052 -0.0182  0.2097  0.0318
  657POPC   C3A 7879  10.614   8.295  17.831  0.0446  0.1254  0.0609
  657POPC   C4A 7880  10.247   8.293  17.616 -0.1051  0.0089 -0.0035
  657POPC   C1B 7881  10.590   7.584  18.347 -0.3691 -0.0121 -0.0890
  657POPC   C2B 7882  10.578   7.814  17.968  0.2928  0.1737  0.0813
  657POPC   C3B 7883  10.793   7.894  17.551  0.1321  0.0211 -0.2671
  657POPC   C4B 7884  10.883   8.101  17.202 -0.1386 -0.0164 -0.2990
  658POPC   NC3 7885   8.432   5.361  19.679  0.0146  0.0858 -0.4980
  658POPC   PO4 7886   8.476   5.104  19.451 -0.0352 -0.2422 -0.1353
  658POPC   GL1 7887   8.495   4.776  19.072 -0.4488  0.1799 -0.1492
  658POPC   GL2 7888   8.303   4.863  18.896  0.2092 -0.2583 -0.1705
  658POPC   C1A 7889   8.624   4.583  18.697 -0.2548 -0.2340  0.1512
  658POPC   D2A 7890   8.877   4.451  18.362  0.0776 -0.4203 -0.0439
  658POPC   C3A 7891   8.773   4.471  17.902 -0.0241  0.0280 -0.1135
  658POPC   C4A 7892   8.368   4.369  17.676 -0.1856 -0.0032 -0.0203
  658POPC   C1B 7893   8.119   4.581  18.611  0.1781  0.0760 -0.0549
  658POPC   C2B 7894   7.899   4.202  18.533 -0.2528 -0.2278 -0.2476
  658POPC   C3B 7895   7.628   3.967  18.230  0.1582 -0.1992  0.3110
  658POPC   C4B 7896   7.415   4.191  17.894  0.2503 -0.1563 -0.0610
  659POPC   NC3 7897   5.077   3.625  19.249  0.3898  0.2012  0.1643
  659POPC   PO4 7898   5.125   3.527  19.655 -0.0710 -0.1356  0.1827
  659POPC   GL1 7899   5.397   3.305  19.499 -0.4864  0.1169  0.3697
  659POPC   GL2 7900   5.252   3.155  19.244  0.2355  0.1067  0.0383
  659POPC   C1A 7901   5.622   3.481  19.131  0.0768 -0.0286  0.2306
  659POPC   D2A 7902   5.435   3.747  18.797  0.1199 -0.0383  0.0210
  659POPC   C3A 7903   5.398   3.476  18.447  0.2040 -0.1306 -0.2574
  659POPC   C4A 7904   4.923   3.282  18.354 -0.4095  0.3151  0.0040
  659POPC   C1B 7905   5.264   3.108  18.768 -0.0005 -0.2850  0.4509
  659POPC   C2B 7906   5.333   2.984  18.318 -0.2826 -0.1181 -0.2712
  659POPC   C3B 7907   5.371   2.839  17.888  0.0668 -0.0869  0.1627
  659POPC   C4B 7908   5.201   2.898  17.435 -0.2660 -0.0967 -0.0454
  660POPC   NC3 7909  15.374   9.714  19.159  0.0633  0.1888  0.1167
  660POPC   PO4 7910  15.751   9.630  19.010  0.1641 -0.2022  0.0801
  660POPC   GL1 7911  15.843   9.210  18.879 -0.0545  0.1547 -0.1311
  660POPC   GL2 7912  15.621   9.189  18.735 -0.1282  0.1384 -0.0263
  660POPC   C1A 7913  16.129   9.080  18.516  0.3151  0.0122 -0.1756
  660POPC   D2A 7914  16.331   9.081  18.086 -0.0329 -0.0271 -0.2899
  660POPC   C3A 7915  16.109   8.858  17.731  0.2682  0.2611 -0.1966
  660POPC   C4A 7916  15.875   8.653  17.437  0.1487 -0.1212  0.1485
  660POPC   C1B 7917  15.688   9.260  18.303  0.0973  0.1895  0.3155
  660POPC   C2B 7918  15.739   9.194  17.837 -0.0156 -0.1623 -0.1178
  660POPC   C3B 7919  15.889   9.158  17.361  0.0299 -0.0984 -0.1090
  660POPC   C4B 7920  15.968   9.239  16.899 -0.0091 -0.1374 -0.2888
  661POPC   NC3 7921   0.948  25.489  19.234  0.1412 -0.6003 -0.0808
  661POPC   PO4 7922   0.567  25.355  19.326  0.0107  0.0358 -0.0805
  661POPC   GL1 7923   0.571  25.327  18.939 -0.4522  0.0915  0.0888
  661POPC   GL2 7924   0.784  25.388  18.691 -0.0104 -0.1153 -0.2426
  661POPC   C1A 7925   0.333  25.449  18.487  0.1085 -0.2012 -0.3132
  661POPC   D2A 7926   0.139  25.716  18.226 -0.1898 -0.1756  0.0032
  661POPC   C3A 7927  -0.039  25.787  17.811 -0.0543  0.1163 -0.1667
  661POPC   C4A 7928  -0.353  25.644  17.493  0.2468 -0.2275 -0.0904
  661POPC   C1B 7929   0.834  25.350  18.212  0.0947 -0.1809 -0.2919
  661POPC   C2B 7930   0.910  25.413  17.776 -0.1489 -0.0453  0.5381
  661POPC   C3B 7931   1.104  25.504  17.310 -0.4681  0.1592 -0.0090
  661POPC   C4B 7932   1.231  25.333  16.903  0.0241 -0.4953  0.4937
  662POPC   NC3 7933   3.629  26.101  19.533 -0.1886 -0.1453  0.0199
  662POPC   PO4 7934   3.300  26.131  19.353 -0.2445 -0.0630 -0.1511
  662POPC   GL1 7935   3.625  26.264  19.109 -0.0115 -0.0174  0.1589
  662POPC   GL2 7936   3.736  26.016  19.031  0.0577 -0.0567 -0.5595
  662POPC   C1A 7937   3.658  26.771  18.983  0.1075  0.0634 -0.1028
  662POPC   D2A 7938   3.578  27.159  18.654 -0.0025  0.2911 -0.3483
  662POPC   C3A 7939   3.333  27.473  18.458 -0.1254 -0.2957 -0.0844
  662POPC   C4A 7940   2.991  27.782  18.474  0.2989 -0.1956  0.0734
  662POPC   C1B 7941   3.777  26.240  18.600 -0.1875  0.2353  0.2559
  662POPC   C2B 7942   3.968  26.357  18.187  0.0432 -0.1981  0.1599
  662POPC   C3B 7943   4.004  26.430  17.742 -0.1000  0.1761  0.1165
  662POPC   C4B 7944   4.302  26.476  17.368  0.2332 -0.2189  0.0732
  663POPC   NC3 7945   8.039   5.216  19.276  0.1156 -0.0809  0.2075
  663POPC   PO4 7946   8.047   4.807  19.337 -0.3738  0.1170  0.2426
  663POPC   GL1 7947   7.835   4.476  19.148  0.0072 -0.1103  0.1963
  663POPC   GL2 7948   7.691   4.689  19.070 -0.0029  0.1124 -0.2859
  663POPC   C1A 7949   7.631   4.149  18.902  0.1492  0.1051 -0.0648
  663POPC   D2A 7950   7.335   4.075  18.638  0.1282 -0.2668 -0.3235
  663POPC   C3A 7951   7.192   3.714  18.413 -0.1940 -0.1263 -0.0859
  663POPC   C4A 7952   7.291   3.506  18.006 -0.0640  0.1695  0.0061
  663POPC   C1B 7953   7.603   4.646  18.629  0.0294 -0.0507  0.0288
  663POPC   C2B 7954   7.430   4.612  18.226  0.0679 -0.1529 -0.1420
  663POPC   C3B 7955   7.358   4.678  17.766 -0.2287 -0.0945 -0.1396
  663POPC   C4B 7956   7.171   4.858  17.415 -0.1245  0.0406 -0.2749
  664POPC   NC3 7957   4.722  10.973  19.430  0.0579  0.2051 -0.0414
  664POPC   PO4 7958   4.492  11.285  19.452  0.3527 -0.1254 -0.3070
  664POPC   GL1 7959   4.843  11.316  19.144  0.1283  0.3652 -0.0193
  664POPC   GL2 7960   4.736  11.315  18.869  0.1935 -0.2455 -0.0298
  664POPC   C1A 7961   5.175  11.586  19.043 -0.0182 -0.3225  0.0435
  664POPC   D2A 7962   5.309  11.920  18.678 -0.1354  0.0930  0.0528
  664POPC   C3A 7963   5.336  12.022  18.218  0.0348 -0.0819 -0.0511
  664POPC   C4A 7964   5.618  12.081  17.832 -0.0863  0.0922  0.1863
  664POPC   C1B 7965   4.461  11.222  18.520 -0.1517  0.0354 -0.2559
  664POPC   C2B 7966   4.097  11.152  18.304 -0.0119  0.2125 -0.0654
  664POPC   C3B 7967   4.008  10.997  17.874  0.0992 -0.2602 -0.0995
  664POPC   C4B 7968   4.254  10.757  17.604  0.2585 -0.0408  0.1094
  665POPC   NC3 7969  13.211   4.956  19.521 -0.0905 -0.2126  0.0800
  665POPC   PO4 7970  13.283   4.607  19.306 -0.0574 -0.2292  0.0048
  665POPC   GL1 7971  13.430   4.459  18.980  0.0554  0.0221  0.2619
  665POPC   GL2 7972  13.451   4.657  18.777  0.1875 -0.1722 -0.2239
  665POPC   C1A 7973  13.843   4.297  18.758  0.4578 -0.2280  0.0591
  665POPC   D2A 7974  14.193   4.406  18.507 -0.1031  0.1829  0.1231
  665POPC   C3A 7975  14.094   4.281  18.082 -0.0928 -0.2379 -0.2510
  665POPC   C4A 7976  14.283   4.192  17.677 -0.0387  0.0171 -0.0617
  665POPC   C1B 7977  13.674   4.762  18.426  0.2887  0.1083 -0.2148
  665POPC   C2B 7978  13.819   5.036  18.071 -0.1820 -0.0747 -0.0579
  665POPC   C3B 7979  13.849   5.451  18.092  0.0181 -0.1613  0.1556
  665POPC   C4B 7980  13.728   5.861  17.925  0.0179 -0.1819 -0.0168
  666POPC   NC3 7981   0.747   2.518  19.615 -0.0476  0.1602  0.0941
  666POPC   PO4 7982   0.435   2.290  19.515  0.0401  0.4266 -0.0284
  666POPC   GL1 7983   0.200   2.311  19.140 -0.1020  0.0611 -0.1605
  666POPC   GL2 7984  -0.113   2.325  19.024  0.0303 -0.1002 -0.3258
  666POPC   C1A 7985   0.095   1.897  18.891 -0.0198 -0.4336  0.0871
  666POPC   D2A 7986   0.119   1.861  18.406  0.0077  0.4179  0.0938
  666POPC   C3A 7987   0.157   2.012  17.976  0.2301 -0.3011  0.1200
  666POPC   C4A 7988   0.164   2.083  17.524  0.0685 -0.3142  0.2004
  666POPC   C1B 7989  -0.231   2.237  18.579 -0.1412  0.3957 -0.0675
  666POPC   C2B 7990  -0.212   2.299  18.145  0.3661  0.3180 -0.4821
  666POPC   C3B 7991  -0.512   2.481  17.813 -0.0040  0.1173  0.2881
  666POPC   C4B 7992  -0.974   2.461  17.968 -0.2198 -0.1827 -0.2286
  667POPC   NC3 7993   1.856  24.040  19.610  0.1206 -0.0216 -0.2725
  667POPC   PO4 7994   1.877  23.764  19.340 -0.4144  0.0108 -0.0227
  667POPC   GL1 7995   2.019  23.821  18.982 -0.2011 -0.0685  0.1671
  667POPC   GL2 7996   1.796  23.860  18.828  0.0757  0.0513  0.1513
  667POPC   C1A 7997   2.180  23.575  18.650 -0.1140 -0.0917 -0.0774
  667POPC   D2A 7998   2.250  23.157  18.662 -0.0017 -0.0741  0.0749
  667POPC   C3A 7999   2.353  23.183  18.269 -0.2056 -0.0769  0.3474
  667POPC   C4A 8000   2.378  23.437  17.861  0.2196  0.1582 -0.0924
  667POPC   C1B 8001   1.769  23.843  18.336 -0.1570 -0.2244  0.0090
  667POPC   C2B 8002   2.034  23.806  17.939 -0.2800 -0.0123  0.0778
  667POPC   C3B 8003   2.373  23.978  17.620  0.3322 -0.1368  0.1813
  667POPC   C4B 8004   2.397  23.801  17.199 -0.2033  0.0624 -0.0668
  668POPC   NC3 8005   8.156  26.047  19.288  0.0930  0.1241 -0.0483
  668POPC   PO4 8006   8.264  26.279  18.986  0.0090  0.0661  0.1400
  668POPC   GL1 8007   8.233  26.025  18.595 -0.0486 -0.0841 -0.1330
  668POPC   GL2 8008   8.124  25.811  18.712 -0.0077  0.0597  0.0099
  668POPC   C1A 8009   8.476  25.792  18.288 -0.1696  0.2848  0.0981
  668POPC   D2A 8010   8.571  25.674  17.866  0.0764 -0.0413  0.0211
  668POPC   C3A 8011   8.929  25.837  17.574  0.0567  0.1071 -0.1304
  668POPC   C4A 8012   9.106  25.966  17.164  0.0035  0.2054  0.0321
  668POPC   C1B 8013   7.892  25.969  18.339  0.2886 -0.1366 -0.0033
  668POPC   C2B 8014   7.666  25.825  17.893  0.1030 -0.0763  0.0756
  668POPC   C3B 8015   7.467  25.459  17.742 -0.1613 -0.0282 -0.1730
  668POPC   C4B 8016   7.586  25.170  17.388  0.2193  0.0962  0.1365
  669POPC   NC3 8017  12.007   5.717  19.362 -0.3983 -0.1396 -0.1128
  669POPC   PO4 8018  12.131   5.929  19.028  0.0409  0.1892 -0.0451
  669POPC   GL1 8019  12.094   5.861  18.674  0.1201  0.1230  0.1444
  669POPC   GL2 8020  11.834   5.975  18.646 -0.2230  0.0021 -0.2330
  669POPC   C1A 8021  12.130   6.105  18.271 -0.3248 -0.0262  0.0014
  669POPC   D2A 8022  11.950   6.123  17.810  0.0116  0.1923 -0.1433
  669POPC   C3A 8023  12.222   6.135  17.438 -0.1085 -0.2552 -0.3378
  669POPC   C4A 8024  12.473   6.347  17.174 -0.0659  0.0617  0.3448
  669POPC   C1B 8025  11.604   5.923  18.283 -0.5402 -0.1038  0.2835
  669POPC   C2B 8026  11.494   5.797  17.861  0.0378  0.1005 -0.0780
  669POPC   C3B 8027  11.143   6.023  17.698 -0.0890  0.2424  0.1528
  669POPC   C4B 8028  11.012   6.372  17.419  0.2639  0.0937  0.0088
  670POPC   NC3 8029   3.924  23.159  19.336 -0.0889  0.0356 -0.2484
  670POPC   PO4 8030   3.654  22.846  19.327 -0.1166 -0.1377 -0.2076
  670POPC   GL1 8031   3.844  22.837  18.992  0.6062 -0.1310  0.1381
  670POPC   GL2 8032   3.742  22.643  18.759  0.1273 -0.2686  0.0609
  670POPC   C1A 8033   3.963  23.131  18.717 -0.0877 -0.1897  0.1212
  670POPC   D2A 8034   4.310  23.354  18.468 -0.0781 -0.3807  0.1489
  670POPC   C3A 8035   4.179  23.332  18.013  0.0368  0.1195 -0.1071
  670POPC   C4A 8036   4.040  23.032  17.647 -0.2705 -0.0018  0.1148
  670POPC   C1B 8037   3.518  22.597  18.326  0.2233 -0.2894  0.2076
  670POPC   C2B 8038   3.352  22.308  18.039  0.1725 -0.0844  0.0588
  670POPC   C3B 8039   3.595  22.042  17.691  0.1502  0.2157  0.0755
  670POPC   C4B 8040   3.524  21.883  17.277  0.1328 -0.0167 -0.2021
  671POPC   NC3 8041   8.622  25.761  18.786  0.2314  0.0549 -0.0014
  671POPC   PO4 8042   8.752  26.039  18.982  0.0119  0.5350  0.0352
  671POPC   GL1 8043   8.791  26.136  18.608  0.2857 -0.1205  0.1326
  671POPC   GL2 8044   8.581  26.297  18.510  0.1019 -0.3411  0.0634
  671POPC   C1A 8045   8.841  26.225  18.119  0.0555 -0.1489 -0.2896
  671POPC   D2A 8046   9.053  26.310  17.712  0.1019 -0.0025 -0.1204
  671POPC   C3A 8047   8.886  26.378  17.292  0.0568 -0.1211  0.0885
  671POPC   C4A 8048   8.593  26.155  16.991  0.0871 -0.2250  0.0051
  671POPC   C1B 8049   8.277  26.354  18.195 -0.0040  0.1839  0.1909
  671POPC   C2B 8050   7.870  26.259  17.968 -0.0117  0.0920 -0.0272
  671POPC   C3B 8051   7.840  26.313  17.560  0.0172  0.1489 -0.0505
  671POPC   C4B 8052   7.700  26.515  17.137 -0.0034 -0.1303 -0.0137
  672POPC   NC3 8053   7.600   4.978  19.437 -0.0308  0.0757 -0.1017
  672POPC   PO4 8054   7.574   5.341  19.355  0.1340 -0.3205  0.2067
  672POPC   GL1 8055   7.498   5.278  18.926 -0.1730 -0.1344 -0.0154
  672POPC   GL2 8056   7.765   5.165  18.814  0.1134  0.3655 -0.0959
  672POPC   C1A 8057   7.350   5.469  18.539 -0.2139 -0.0417  0.1311
  672POPC   D2A 8058   6.972   5.365  18.326  0.0050  0.2438 -0.0499
  672POPC   C3A 8059   6.799   5.336  17.905  0.1399  0.4322  0.0014
  672POPC   C4A 8060   6.738   5.128  17.525  0.1591  0.1820 -0.0736
  672POPC   C1B 8061   7.912   4.983  18.357 -0.0632 -0.0148 -0.2048
  672POPC   C2B 8062   7.875   4.877  17.911 -0.0767  0.2152  0.3385
  672POPC   C3B 8063   7.793   5.030  17.484 -0.1554  0.0658  0.2377
  672POPC   C4B 8064   7.969   5.140  17.087 -0.0114 -0.2395  0.0182
  673POPC   NC3 8065   4.640   1.237  18.881  0.2568  0.2710 -0.3373
  673POPC   PO4 8066   4.300   1.250  19.080  0.3055 -0.0032 -0.5062
  673POPC   GL1 8067   4.124   1.313  18.706  0.0523 -0.3439 -0.2556
  673POPC   GL2 8068   4.097   1.597  18.795 -0.0810  0.1449  0.0369
  673POPC   C1A 8069   4.315   1.056  18.382 -0.0014  0.0072 -0.0266
  673POPC   D2A 8070   4.573   0.888  18.012 -0.1615 -0.1804  0.0340
  673POPC   C3A 8071   4.295   0.600  17.827  0.2525  0.0015  0.0941
  673POPC   C4A 8072   4.375   0.324  17.415 -0.0084 -0.5682  0.1654
  673POPC   C1B 8073   4.312   1.866  18.537 -0.1269 -0.1668 -0.0728
  673POPC   C2B 8074   4.501   1.835  18.085  0.0282 -0.0725 -0.1237
  673POPC   C3B 8075   4.504   1.719  17.586  0.0436 -0.0992 -0.2801
  673POPC   C4B 8076   4.890   1.571  17.361 -0.1057 -0.2077 -0.0295
  674POPC   NC3 8077  10.198  17.224  19.105 -0.0276 -0.0370  0.3449
  674POPC   PO4 8078  10.528  17.508  19.027 -0.3823  0.1016  0.3872
  674POPC   GL1 8079  10.606  17.495  18.647  0.0689  0.2111  0.2263
  674POPC   GL2 8080  10.938  17.598  18.559 -0.0491 -0.1891  0.0117
  674POPC   C1A 8081  10.529  17.620  18.168  0.1420 -0.4240 -0.3067
  674POPC   D2A 8082  10.472  17.863  17.829  0.1447  0.3854  0.2451
  674POPC   C3A 8083  10.091  17.904  17.593  0.1752 -0.1793  0.1161
  674POPC   C4A 8084   9.717  17.920  17.346  0.0812 -0.0547  0.1974
  674POPC   C1B 8085  11.093  17.748  18.185 -0.2834 -0.0158 -0.2962
  674POPC   C2B 8086  10.943  17.815  17.699 -0.1514 -0.4999 -0.0127
  674POPC   C3B 8087  11.106  17.699  17.294  0.0130  0.1164  0.4223
  674POPC   C4B 8088  11.317  17.382  16.954  0.1359  0.1745  0.0418
  675POPC   NC3 8089  15.731  14.276  18.965  0.0239 -0.1844 -0.0420
  675POPC   PO4 8090  15.976  14.061  19.176 -0.0398 -0.1065  0.1746
  675POPC   GL1 8091  16.069  14.031  18.811  0.0885 -0.2433 -0.2572
  675POPC   GL2 8092  16.358  13.871  18.848  0.2341 -0.1729  0.0268
  675POPC   C1A 8093  16.137  13.852  18.381 -0.0165 -0.1839  0.0253
  675POPC   D2A 8094  16.024  13.664  18.015 -0.1434  0.1242  0.1686
  675POPC   C3A 8095  16.007  13.423  17.666 -0.2062  0.0250  0.0848
  675POPC   C4A 8096  15.798  13.101  17.354  0.1147  0.0611  0.1991
  675POPC   C1B 8097  16.715  13.672  18.597  0.1196 -0.1865  0.0461
  675POPC   C2B 8098  16.820  13.566  18.178  0.5128 -0.1059 -0.0458
  675POPC   C3B 8099  16.732  13.485  17.842 -0.1896 -0.3690  0.2794
  675POPC   C4B 8100  16.467  13.187  17.631  0.1069 -0.3366 -0.1984
  676POPC   NC3 8101   5.572  22.720  19.516  0.2215 -0.0456 -0.2520
  676POPC   PO4 8102   5.524  23.038  19.326 -0.1259  0.0437 -0.0872
  676POPC   GL1 8103   5.383  22.908  19.027  0.0308 -0.0858  0.2518
  676POPC   GL2 8104   5.140  22.751  19.148 -0.0520 -0.1996 -0.1168
  676POPC   C1A 8105   5.194  23.034  18.661  0.2071  0.1103  0.0571
  676POPC   D2A 8106   5.123  23.374  18.337 -0.1154 -0.2522 -0.0401
  676POPC   C3A 8107   5.268  23.601  17.931 -0.1506 -0.0030  0.0738
  676POPC   C4A 8108   5.292  23.985  17.631  0.1559 -0.0926 -0.2748
  676POPC   C1B 8109   5.254  22.474  18.787 -0.2182 -0.1672  0.1289
  676POPC   C2B 8110   5.401  22.580  18.351  0.0709 -0.3107 -0.1435
  676POPC   C3B 8111   5.244  22.935  18.085  0.0282  0.0960  0.0138
  676POPC   C4B 8112   5.038  23.198  17.824  0.0975  0.1006  0.3566
  677POPC   NC3 8113  11.782  14.067  19.029  0.3258 -0.0875 -0.6044
  677POPC   PO4 8114  12.116  14.239  18.987 -0.0595 -0.2651 -0.0491
  677POPC   GL1 8115  11.886  14.385  18.693  0.0463  0.0559  0.1739
  677POPC   GL2 8116  12.087  14.358  18.471  0.4797  0.1180  0.2498
  677POPC   C1A 8117  11.665  14.186  18.257  0.1394 -0.0063 -0.1183
  677POPC   D2A 8118  11.459  14.248  17.887  0.1424 -0.4733  0.2250
  677POPC   C3A 8119  11.276  14.185  17.481  0.1805  0.0371 -0.0030
  677POPC   C4A 8120  10.964  14.286  17.121  0.0100  0.1177  0.0887
  677POPC   C1B 8121  11.965  14.636  18.160  0.2066  0.1367  0.2477
  677POPC   C2B 8122  11.739  14.795  17.775  0.4230  0.1026 -0.1258
  677POPC   C3B 8123  11.525  14.724  17.371  0.1895 -0.0006  0.0945
  677POPC   C4B 8124  11.379  14.526  16.949 -0.1889  0.0483  0.0470
  678POPC   NC3 8125   1.983  12.960  19.229  0.0574 -0.0519 -0.1641
  678POPC   PO4 8126   2.307  13.210  19.267 -0.0277  0.4233  0.3376
  678POPC   GL1 8127   2.309  13.146  18.871 -0.2428  0.1393 -0.2117
  678POPC   GL2 8128   2.570  13.312  18.895  0.0660 -0.4214  0.1573
  678POPC   C1A 8129   2.104  13.271  18.463  0.2751 -0.0971  0.2471
  678POPC   D2A 8130   1.788  13.310  18.088 -0.2346 -0.2310 -0.1883
  678POPC   C3A 8131   1.826  13.629  17.757 -0.0173 -0.0026 -0.4128
  678POPC   C4A 8132   1.848  13.782  17.349  0.4891  0.1090  0.1762
  678POPC   C1B 8133   2.618  13.157  18.413 -0.0756  0.1937 -0.0074
  678POPC   C2B 8134   2.898  13.269  17.992  0.0242  0.0349  0.3954
  678POPC   C3B 8135   3.175  13.295  17.628  0.1809 -0.0636  0.3049
  678POPC   C4B 8136   3.268  13.056  17.274  0.1550 -0.3440  0.0741
  679POPC   NC3 8137   7.674  19.541  20.132 -0.1038 -0.0326 -0.1848
  679POPC   PO4 8138   7.748  19.597  19.749  0.2606  0.1303  0.0668
  679POPC   GL1 8139   8.065  19.808  19.485  0.3008  0.2969  0.1381
  679POPC   GL2 8140   7.989  20.056  19.622  0.0212 -0.1741  0.0238
  679POPC   C1A 8141   8.167  19.692  19.021 -0.1111  0.0764  0.1411
  679POPC   D2A 8142   8.079  19.783  18.583 -0.2929 -0.0604  0.1623
  679POPC   C3A 8143   8.454  19.668  18.357  0.1309 -0.1330 -0.3208
  679POPC   C4A 8144   8.863  19.510  18.222 -0.0186 -0.0990 -0.0537
  679POPC   C1B 8145   8.207  20.157  19.247 -0.1234 -0.0534 -0.1417
  679POPC   C2B 8146   8.446  20.069  18.893 -0.1961 -0.1269  0.4060
  679POPC   C3B 8147   8.537  20.150  18.451 -0.0418 -0.1648  0.0803
  679POPC   C4B 8148   8.778  19.971  18.077  0.0647 -0.1474 -0.1145
  680POPC   NC3 8149  12.857  12.524  19.496  0.0324  0.2220 -0.2464
  680POPC   PO4 8150  12.747  12.318  19.197  0.1562 -0.0820  0.1134
  680POPC   GL1 8151  12.533  12.218  18.832  0.2486  0.3256 -0.1199
  680POPC   GL2 8152  12.480  11.923  18.785  0.2616  0.1695 -0.4715
  680POPC   C1A 8153  12.515  12.197  18.360  0.1198  0.0364  0.0131
  680POPC   D2A 8154  12.540  12.095  17.913  0.0216 -0.1914  0.0426
  680POPC   C3A 8155  12.646  11.841  17.582  0.1197 -0.2338  0.1055
  680POPC   C4A 8156  12.894  11.705  17.254 -0.1214  0.2926 -0.1373
  680POPC   C1B 8157  12.440  11.614  18.490  0.0327  0.0155 -0.1712
  680POPC   C2B 8158  12.416  11.576  18.011  0.2575 -0.0384 -0.3054
  680POPC   C3B 8159  12.432  11.394  17.580  0.1751  0.3658  0.0282
  680POPC   C4B 8160  12.323  11.669  17.228  0.0849  0.1069  0.1979
  681POPC   NC3 8161   5.538  17.129  19.317 -0.2282  0.0500 -0.3741
  681POPC   PO4 8162   5.864  16.893  19.348  0.0077 -0.0324 -0.0926
  681POPC   GL1 8163   5.989  17.025  19.078 -0.2097  0.0035 -0.2064
  681POPC   GL2 8164   6.200  16.838  18.950 -0.1183  0.0283  0.2822
  681POPC   C1A 8165   6.069  17.437  18.861 -0.1587  0.1879  0.0638
  681POPC   D2A 8166   5.914  17.558  18.479  0.0394  0.2817 -0.0851
  681POPC   C3A 8167   5.836  17.293  18.107  0.1157 -0.3098  0.0156
  681POPC   C4A 8168   6.083  17.362  17.722 -0.1418 -0.1735 -0.0064
  681POPC   C1B 8169   6.231  17.085  18.562  0.1392  0.1297  0.1386
  681POPC   C2B 8170   6.328  17.110  18.095  0.1677  0.2716 -0.0293
  681POPC   C3B 8171   6.410  16.930  17.742 -0.2236 -0.1052 -0.1572
  681POPC   C4B 8172   6.642  16.712  17.375 -0.1982  0.0540  0.2783
  682POPC   NC3 8173   2.998  11.436  19.344  0.0784 -0.1397 -0.2661
  682POPC   PO4 8174   2.647  11.213  19.472 -0.4336  0.2660  0.2155
  682POPC   GL1 8175   2.714  11.112  19.133  0.2895 -0.3257  0.0334
  682POPC   GL2 8176   2.656  11.369  18.947  0.2002  0.2457 -0.2193
  682POPC   C1A 8177   2.772  10.779  18.789  0.0565  0.5207  0.2945
  682POPC   D2A 8178   2.667  10.410  18.588  0.0165 -0.0289  0.0738
  682POPC   C3A 8179   2.318  10.463  18.319 -0.0620  0.0799  0.0116
  682POPC   C4A 8180   2.349  10.724  17.921  0.1661 -0.2960  0.0731
  682POPC   C1B 8181   2.767  11.225  18.550 -0.2414  0.0026 -0.0849
  682POPC   C2B 8182   2.709  11.307  18.094  0.0101 -0.1779 -0.3179
  682POPC   C3B 8183   2.607  11.138  17.638 -0.0998 -0.0727  0.0680
  682POPC   C4B 8184   2.749  10.934  17.261 -0.0420 -0.3486  0.1805
  683POPC   NC3 8185  13.268  21.847  19.423  0.1834 -0.2296  0.2900
  683POPC   PO4 8186  12.883  21.982  19.438  0.3095 -0.1896 -0.0144
  683POPC   GL1 8187  12.812  22.028  18.957  0.2642 -0.1251  0.0408
  683POPC   GL2 8188  12.821  22.297  18.874  0.0656  0.2798 -0.1393
  683POPC   C1A 8189  12.546  21.920  18.588  0.3324 -0.0261  0.0866
  683POPC   D2A 8190  12.579  22.043  18.175  0.0737  0.1082 -0.0320
  683POPC   C3A 8191  12.747  22.124  17.703  0.1604  0.2256  0.0646
  683POPC   C4A 8192  12.493  22.173  17.313  0.0495 -0.0619  0.0426
  683POPC   C1B 8193  12.608  22.409  18.441 -0.1130 -0.3162  0.1761
  683POPC   C2B 8194  12.574  22.651  17.982 -0.0538 -0.3242 -0.1193
  683POPC   C3B 8195  12.709  22.665  17.502  0.1748  0.3688 -0.1793
  683POPC   C4B 8196  12.795  22.596  17.076 -0.0550 -0.2098  0.1905
  684POPC   NC3 8197  11.240   3.857  19.071  0.0202 -0.0099  0.0358
  684POPC   PO4 8198  10.893   4.073  19.021  0.3763 -0.0001 -0.2974
  684POPC   GL1 8199  10.950   3.975  18.674  0.3573  0.0512  0.2082
  684POPC   GL2 8200  11.043   3.713  18.632 -0.2043  0.0178  0.0255
  684POPC   C1A 8201  10.796   3.936  18.215  0.1050  0.1003 -0.2334
  684POPC   D2A 8202  10.822   3.717  17.789  0.2175 -0.0468 -0.0424
  684POPC   C3A 8203  11.123   3.458  17.614 -0.4923  0.1436  0.2552
  684POPC   C4A 8204  11.314   3.025  17.523  0.0050  0.0301  0.1067
  684POPC   C1B 8205  11.199   3.562  18.209  0.0705  0.1822 -0.2114
  684POPC   C2B 8206  11.405   3.135  18.047 -0.1089  0.0235  0.0755
  684POPC   C3B 8207  11.740   2.912  17.780 -0.2224 -0.1190  0.2242
  684POPC   C4B 8208  11.780   2.784  17.360 -0.5263 -0.0161  0.0175
  685POPC   NC3 8209   6.389   7.499  19.158  0.0922  0.0436 -0.0629
  685POPC   PO4 8210   6.021   7.309  19.119  0.2746 -0.0165  0.0433
  685POPC   GL1 8211   6.275   7.331  18.749  0.1451 -0.1965  0.0769
  685POPC   GL2 8212   6.183   7.015  18.681 -0.7079 -0.1929 -0.2517
  685POPC   C1A 8213   6.231   7.508  18.348 -0.3207 -0.0768 -0.0841
  685POPC   D2A 8214   6.058   7.654  17.937  0.2221 -0.0822  0.0361
  685POPC   C3A 8215   6.038   7.884  17.543  0.1242 -0.1074  0.1399
  685POPC   C4A 8216   5.924   8.039  17.116  0.2298 -0.1118  0.1572
  685POPC   C1B 8217   6.310   6.952  18.281 -0.0596 -0.2367 -0.2228
  685POPC   C2B 8218   6.337   7.226  17.882  0.2570  0.0114  0.0088
  685POPC   C3B 8219   6.103   7.404  17.506  0.0994  0.2658  0.0237
  685POPC   C4B 8220   6.279   7.622  17.108  0.1718  0.0789  0.0927
  686POPC   NC3 8221   7.901  18.541  19.499  0.0871  0.1562 -0.4025
  686POPC   PO4 8222   7.798  18.715  19.845  0.0272 -0.2113  0.1050
  686POPC   GL1 8223   7.967  18.970  19.545  0.1606 -0.2658  0.1079
  686POPC   GL2 8224   8.014  19.279  19.379 -0.2881 -0.0079 -0.0147
  686POPC   C1A 8225   7.727  18.879  19.145 -0.0921  0.0234 -0.2842
  686POPC   D2A 8226   7.670  18.891  18.708 -0.2062  0.2001  0.1699
  686POPC   C3A 8227   7.818  18.692  18.296  0.0747 -0.3760 -0.2563
  686POPC   C4A 8228   8.033  18.400  17.966  0.3945 -0.3439  0.2920
  686POPC   C1B 8229   8.432  19.365  19.264 -0.1111  0.0231  0.1830
  686POPC   C2B 8230   8.691  19.750  19.245 -0.0714  0.0508 -0.0638
  686POPC   C3B 8231   8.706  20.228  19.317  0.0779  0.0064  0.0223
  686POPC   C4B 8232   8.703  20.685  19.224 -0.1412  0.2500 -0.0867
  687POPC   NC3 8233   5.416   7.798  19.408 -0.0538  0.0969  0.3009
  687POPC   PO4 8234   5.063   7.672  19.305 -0.2097 -0.0986  0.0962
  687POPC   GL1 8235   4.867   7.802  18.952  0.6795  0.5873 -0.2077
  687POPC   GL2 8236   4.850   8.149  18.870  0.1812  0.0734 -0.0982
  687POPC   C1A 8237   4.415   7.880  18.840  0.0832  0.2829 -0.1326
  687POPC   D2A 8238   4.025   7.881  18.590 -0.1433  0.3505 -0.0145
  687POPC   C3A 8239   3.865   7.723  18.172 -0.1573 -0.3506 -0.3065
  687POPC   C4A 8240   3.983   7.358  17.932 -0.0807  0.2119  0.0701
  687POPC   C1B 8241   4.869   8.488  18.537  0.4108  0.2278  0.1085
  687POPC   C2B 8242   4.871   8.511  18.086 -0.0882 -0.0916 -0.0327
  687POPC   C3B 8243   4.685   8.431  17.717 -0.1718 -0.1451 -0.0283
  687POPC   C4B 8244   4.485   8.632  17.369  0.0901  0.1983 -0.0094
  688POPC   NC3 8245  10.078   4.645  18.828 -0.3209 -0.2264 -0.2291
  688POPC   PO4 8246   9.915   4.375  19.108  0.0531  0.0419  0.3162
  688POPC   GL1 8247  10.004   4.155  18.815  0.1336 -0.0444 -0.0746
  688POPC   GL2 8248   9.926   3.918  18.733  0.0344  0.1314 -0.2282
  688POPC   C1A 8249   9.821   4.251  18.342 -0.0232  0.0603 -0.3261
  688POPC   D2A 8250   9.838   4.086  17.927  0.2089 -0.0752 -0.1547
  688POPC   C3A 8251  10.250   4.139  17.665  0.1530 -0.0229  0.0534
  688POPC   C4A 8252  10.403   4.056  17.229  0.4089  0.0911 -0.1833
  688POPC   C1B 8253  10.107   3.808  18.330 -0.1401  0.0420  0.2480
  688POPC   C2B 8254  10.110   3.678  17.910 -0.3843  0.0474 -0.1340
  688POPC   C3B 8255  10.414   3.650  17.558  0.2161  0.5195 -0.3207
  688POPC   C4B 8256  10.833   3.647  17.310  0.2529 -0.0980  0.0364
  689POPC   NC3 8257  10.020  15.623  19.193  0.1938  0.1043  0.3058
  689POPC   PO4 8258   9.910  15.995  19.219  0.0001  0.0376  0.3100
  689POPC   GL1 8259   9.931  16.004  18.761  0.1003  0.3885 -0.1525
  689POPC   GL2 8260  10.170  15.839  18.666  0.2772 -0.1997 -0.1096
  689POPC   C1A 8261   9.728  16.022  18.372 -0.2150 -0.4974 -0.3633
  689POPC   D2A 8262   9.735  15.981  17.902  0.1713  0.2879 -0.3157
  689POPC   C3A 8263  10.133  15.772  17.757 -0.2200 -0.1722  0.0037
  689POPC   C4A 8264  10.478  15.517  17.556  0.1457  0.1968  0.1764
  689POPC   C1B 8265  10.222  15.641  18.246 -0.0331  0.0437 -0.1740
  689POPC   C2B 8266  10.256  15.321  17.945 -0.1975  0.1124 -0.3308
  689POPC   C3B 8267  10.236  15.074  17.521  0.0334 -0.0887  0.1672
  689POPC   C4B 8268  10.002  14.950  17.147  0.0122  0.4833 -0.2720
  690POPC   NC3 8269  15.244  21.541  18.981 -0.1759 -0.0170  0.1532
  690POPC   PO4 8270  15.249  21.174  19.185  0.0542 -0.0626  0.2167
  690POPC   GL1 8271  15.495  21.118  18.867 -0.1471  0.1087  0.1802
  690POPC   GL2 8272  15.736  21.045  18.983 -0.1292  0.1225  0.2319
  690POPC   C1A 8273  15.482  21.069  18.388  0.2974  0.1191  0.0269
  690POPC   D2A 8274  15.419  20.956  17.946  0.3043  0.1399  0.2477
  690POPC   C3A 8275  15.579  20.549  17.719  0.0957  0.0813 -0.1457
  690POPC   C4A 8276  15.771  20.169  17.512  0.0685  0.1893  0.1489
  690POPC   C1B 8277  15.798  20.792  18.614 -0.0244 -0.0845 -0.1118
  690POPC   C2B 8278  15.841  20.766  18.147 -0.3642 -0.4178 -0.3890
  690POPC   C3B 8279  15.933  20.862  17.726  0.3457 -0.1386 -0.2945
  690POPC   C4B 8280  15.600  21.000  17.408 -0.0757 -0.0107 -0.2238
  691POPC   NC3 8281   5.686   1.562  19.333  0.2428 -0.0207  0.3919
  691POPC   PO4 8282   5.722   1.868  19.566 -0.2305 -0.0612 -0.2332
  691POPC   GL1 8283   5.815   2.110  19.279  0.4182 -0.0138  0.1676
  691POPC   GL2 8284   5.969   1.958  19.087 -0.0242 -0.0353 -0.2552
  691POPC   C1A 8285   6.060   2.466  18.993 -0.0124  0.1932 -0.0555
  691POPC   D2A 8286   6.301   2.913  19.069 -0.0828 -0.3740  0.0971
  691POPC   C3A 8287   6.334   3.241  19.363  0.1588 -0.2451  0.1616
  691POPC   C4A 8288   6.289   3.346  19.870 -0.1954 -0.0798  0.1215
  691POPC   C1B 8289   6.242   2.079  18.729  0.4133  0.2358  0.0245
  691POPC   C2B 8290   6.480   1.789  18.452  0.2162 -0.1158 -0.0639
  691POPC   C3B 8291   6.763   1.704  18.077 -0.1128  0.2538  0.0432
  691POPC   C4B 8292   6.607   1.724  17.625  0.1972  0.2457 -0.0528
  692POPC   NC3 8293  10.690  28.069  19.336  0.0013  0.2487  0.0120
  692POPC   PO4 8294  10.347  28.209  19.430  0.2544 -0.0682  0.0445
  692POPC   GL1 8295  10.383  28.077  18.981 -0.3644  0.4607 -0.0961
  692POPC   GL2 8296  10.397  27.804  18.960 -0.0267 -0.0051 -0.1810
  692POPC   C1A 8297  10.461  28.213  18.540 -0.0656 -0.3705 -0.1338
  692POPC   D2A 8298  10.592  28.221  18.097  0.1470 -0.0528  0.1390
  692POPC   C3A 8299  10.403  27.940  17.754 -0.0501 -0.0815 -0.0807
  692POPC   C4A 8300  10.125  27.714  17.471 -0.2310 -0.1303  0.0737
  692POPC   C1B 8301  10.134  27.883  18.596  0.0884 -0.1857 -0.2599
  692POPC   C2B 8302  10.097  27.946  18.105 -0.3564 -0.2707 -0.0352
  692POPC   C3B 8303   9.794  27.991  17.791  0.1379  0.0502  0.1320
  692POPC   C4B 8304   9.586  27.719  17.434  0.2292  0.2610 -0.1364
  693POPC   NC3 8305  15.706  29.338  19.536  0.0773 -0.3867  0.0194
  693POPC   PO4 8306  15.906  29.055  19.730 -0.0648 -0.0962  0.0951
  693POPC   GL1 8307  16.231  29.325  19.483  0.3184 -0.1991 -0.3420
  693POPC   GL2 8308  16.113  29.307  19.255 -0.0778 -0.1219 -0.2605
  693POPC   C1A 8309  16.623  29.407  19.177 -0.0864 -0.1838  0.2362
  693POPC   D2A 8310  17.061  29.362  19.017 -0.0405  0.2680 -0.1711
  693POPC   C3A 8311  17.107  29.565  18.643  0.0350  0.0616  0.1321
  693POPC   C4A 8312  16.925  29.740  18.289 -0.1954  0.1648  0.6677
  693POPC   C1B 8313  16.001  29.123  18.870  0.0524 -0.6839 -0.2362
  693POPC   C2B 8314  15.724  29.157  18.486 -0.0896  0.0284 -0.6030
  693POPC   C3B 8315  15.690  29.169  18.049  0.0446  0.2792 -0.4099
  693POPC   C4B 8316  15.431  29.320  17.699 -0.2227 -0.2147 -0.0834
  694POPC   NC3 8317  10.346  24.501  19.323 -0.1093 -0.1112  0.2683
  694POPC   PO4 8318  10.763  24.494  19.159 -0.3771  0.2471  0.1864
  694POPC   GL1 8319  10.574  24.537  18.819 -0.1416 -0.2736 -0.1650
  694POPC   GL2 8320  10.424  24.812  18.895  0.1110  0.0035  0.0775
  694POPC   C1A 8321  10.648  24.415  18.393 -0.0018 -0.1208  0.2514
  694POPC   D2A 8322  10.938  24.564  18.090  0.1158 -0.0045  0.1104
  694POPC   C3A 8323  11.018  24.353  17.632 -0.3532  0.2376  0.0430
  694POPC   C4A 8324  11.097  24.005  17.315  0.1506 -0.2157 -0.1080
  694POPC   C1B 8325  10.241  24.704  18.489  0.1543 -0.1408  0.1650
  694POPC   C2B 8326  10.161  24.437  18.167 -0.0160 -0.1995  0.1770
  694POPC   C3B 8327  10.505  24.304  17.909  0.1633 -0.0472  0.0407
  694POPC   C4B 8328  10.595  24.013  17.562 -0.6375  0.1772  0.2171
  695POPC   NC3 8329   6.675  28.976  19.513  0.2988  0.2625  0.3477
  695POPC   PO4 8330   6.467  28.653  19.383  0.1137  0.2196  0.2175
  695POPC   GL1 8331   6.563  28.664  19.047 -0.4175 -0.0675  0.3826
  695POPC   GL2 8332   6.813  28.807  19.010  0.3722  0.0216 -0.2825
  695POPC   C1A 8333   6.231  28.685  18.723 -0.3260  0.0791 -0.1705
  695POPC   D2A 8334   6.224  28.951  18.374  0.3648  0.2200  0.0438
  695POPC   C3A 8335   5.896  29.060  18.034  0.2392 -0.3209 -0.0509
  695POPC   C4A 8336   5.966  29.057  17.591  0.3522  0.2620  0.1405
  695POPC   C1B 8337   6.652  29.006  18.588  0.1616  0.0342 -0.1777
  695POPC   C2B 8338   6.604  29.138  18.164  0.3508  0.1470 -0.0103
  695POPC   C3B 8339   6.421  29.026  17.749 -0.0051 -0.1406 -0.0285
  695POPC   C4B 8340   6.367  28.814  17.361  0.0722 -0.1862 -0.0132
  696POPC   NC3 8341  12.738  11.005  19.505  0.0356  0.0184  0.2753
  696POPC   PO4 8342  12.384  11.135  19.394 -0.1194 -0.0653  0.1125
  696POPC   GL1 8343  12.059  11.259  19.047 -0.0486  0.2059  0.3333
  696POPC   GL2 8344  12.166  11.213  18.707  0.2412  0.0628  0.0173
  696POPC   C1A 8345  11.656  11.067  18.841 -0.2429 -0.1443 -0.1423
  696POPC   D2A 8346  11.382  10.943  18.430  0.0509 -0.0306 -0.0682
  696POPC   C3A 8347  11.373  11.134  17.993  0.2461 -0.0727  0.1387
  696POPC   C4A 8348  11.455  11.468  17.648 -0.0655 -0.1801  0.1530
  696POPC   C1B 8349  12.317  11.152  18.305 -0.1411 -0.0233  0.1821
  696POPC   C2B 8350  12.241  11.038  17.878 -0.1840  0.3108 -0.0130
  696POPC   C3B 8351  11.919  10.910  17.602  0.3330 -0.0436  0.2193
  696POPC   C4B 8352  11.530  10.896  17.392  0.1052 -0.2286 -0.2033
  697POPC   NC3 8353   2.067   0.916  19.452  0.0709 -0.3853 -0.2756
  697POPC   PO4 8354   2.213   1.220  19.231 -0.1080 -0.1614  0.3642
  697POPC   GL1 8355   2.326   1.407  18.772 -0.3234  0.0681 -0.0488
  697POPC   GL2 8356   2.388   1.101  18.763 -0.0622 -0.0507  0.1172
  697POPC   C1A 8357   2.590   1.735  18.559  0.2348 -0.2892 -0.0327
  697POPC   D2A 8358   2.636   1.702  18.086  0.1726  0.1648  0.2180
  697POPC   C3A 8359   2.905   2.008  17.910 -0.1714 -0.0831  0.2155
  697POPC   C4A 8360   3.110   2.339  17.596 -0.2815  0.1049 -0.0890
  697POPC   C1B 8361   2.380   1.147  18.283 -0.2537 -0.1716 -0.0599
  697POPC   C2B 8362   2.335   1.026  17.839 -0.1304 -0.3346 -0.0489
  697POPC   C3B 8363   2.096   1.205  17.507 -0.2471  0.1832  0.0504
  697POPC   C4B 8364   1.709   1.471  17.381 -0.1329  0.2117  0.1089
  698POPC   NC3 8365  12.307   7.137  18.995 -0.1045  0.1806  0.2038
  698POPC   PO4 8366  12.354   6.748  18.926  0.1902  0.1435  0.1457
  698POPC   GL1 8367  12.437   6.963  18.553  0.2742 -0.0511  0.3920
  698POPC   GL2 8368  12.678   6.816  18.440 -0.0774 -0.1476 -0.2575
  698POPC   C1A 8369  12.417   7.162  18.108 -0.2751  0.2488  0.3413
  698POPC   D2A 8370  12.554   7.001  17.668  0.0345 -0.4399  0.0425
  698POPC   C3A 8371  12.275   7.167  17.396  0.0851 -0.1633 -0.2102
  698POPC   C4A 8372  11.937   7.467  17.478  0.1098 -0.1708  0.0878
  698POPC   C1B 8373  12.958   6.720  18.125  0.0129  0.2616 -0.0775
  698POPC   C2B 8374  12.992   6.743  17.642  0.2276 -0.0890 -0.0988
  698POPC   C3B 8375  12.912   6.733  17.203 -0.1234  0.1248 -0.2011
  698POPC   C4B 8376  12.851   6.626  16.793 -0.0573 -0.1481  0.2271
  699POPC   NC3 8377   4.756  20.666  18.980 -0.1634 -0.0084 -0.0842
  699POPC   PO4 8378   4.539  20.979  19.020 -0.0960  0.0609 -0.0708
  699POPC   GL1 8379   4.467  21.222  18.703 -0.2856 -0.1754 -0.0145
  699POPC   GL2 8380   4.766  21.164  18.567 -0.3784 -0.0349 -0.0338
  699POPC   C1A 8381   4.326  21.299  18.297  0.1617  0.1183  0.1491
  699POPC   D2A 8382   4.154  21.422  17.891 -0.0111  0.0452 -0.0360
  699POPC   C3A 8383   3.797  21.079  17.824  0.2526  0.2202  0.3660
  699POPC   C4A 8384   3.518  20.741  17.643  0.4477  0.3248 -0.2347
  699POPC   C1B 8385   4.827  21.460  18.182  0.0507  0.2657  0.1614
  699POPC   C2B 8386   5.085  21.571  17.796 -0.0680  0.0257  0.0200
  699POPC   C3B 8387   5.380  21.644  17.434 -0.1866  0.0584 -0.0982
  699POPC   C4B 8388   5.723  21.943  17.269  0.0965 -0.1492  0.1382
  700POPC   NC3 8389   8.597   6.122  18.698  0.1911  0.0463 -0.0793
  700POPC   PO4 8390   8.836   5.907  18.896 -0.0906  0.0146  0.2547
  700POPC   GL1 8391   8.831   5.760  18.496 -0.2038 -0.1409  0.3121
  700POPC   GL2 8392   8.805   5.515  18.573 -0.2270 -0.3229 -0.0748
  700POPC   C1A 8393   8.940   5.789  18.071  0.1760  0.2828 -0.1843
  700POPC   D2A 8394   8.699   5.695  17.696  0.2727  0.0215  0.0434
  700POPC   C3A 8395   8.287   5.784  17.798  0.1646  0.1406  0.0193
  700POPC   C4A 8396   7.840   5.861  17.954 -0.2524 -0.3944  0.0886
  700POPC   C1B 8397   8.546   5.527  18.168  0.0958  0.3037 -0.0095
  700POPC   C2B 8398   8.405   5.262  17.822  0.2003 -0.0159 -0.0980
  700POPC   C3B 8399   8.262   4.881  17.571  0.0703 -0.0603 -0.1382
  700POPC   C4B 8400   7.930   4.499  17.514 -0.1145 -0.2533  0.1435
  701POPC   NC3 8401  14.421  31.100  19.172 -0.0256 -0.1040  0.1349
  701POPC   PO4 8402  14.679  30.965  18.910 -0.0152  0.0181  0.1519
  701POPC   GL1 8403  14.534  30.680  18.585 -0.1873  0.1716  0.0114
  701POPC   GL2 8404  14.841  30.668  18.455 -0.3900  0.0796 -0.3788
  701POPC   C1A 8405  14.437  30.546  18.116  0.1428  0.0352  0.2334
  701POPC   D2A 8406  14.304  30.657  17.713 -0.2269  0.0541 -0.2238
  701POPC   C3A 8407  14.402  30.295  17.404 -0.0194 -0.2678 -0.1157
  701POPC   C4A 8408  14.361  30.050  17.044  0.2782 -0.2158  0.0868
  701POPC   C1B 8409  14.878  30.731  18.016 -0.0346 -0.3117 -0.2166
  701POPC   C2B 8410  14.896  30.444  17.646  0.0347 -0.1371  0.1871
  701POPC   C3B 8411  14.802  30.790  17.295  0.2609 -0.3513 -0.2377
  701POPC   C4B 8412  14.721  31.218  17.093 -0.1221 -0.1392 -0.2888
  702POPC   NC3 8413   3.615   9.587  19.335  0.0173  0.0096 -0.0846
  702POPC   PO4 8414   3.735   9.443  19.001  0.0764 -0.1632 -0.1272
  702POPC   GL1 8415   3.725   9.672  18.662 -0.0577 -0.1106 -0.4189
  702POPC   GL2 8416   3.948   9.457  18.518  0.4322  0.3771  0.2546
  702POPC   C1A 8417   3.869   9.801  18.239  0.2376 -0.1042  0.1432
  702POPC   D2A 8418   4.167   9.909  17.871  0.1710 -0.0735 -0.0380
  702POPC   C3A 8419   4.473   9.680  17.574  0.1508  0.0943  0.1013
  702POPC   C4A 8420   4.777   9.397  17.430 -0.1801 -0.1482 -0.0574
  702POPC   C1B 8421   3.808   9.411  18.032  0.0189 -0.2043 -0.1582
  702POPC   C2B 8422   3.768   9.380  17.582  0.1452 -0.0425 -0.1024
  702POPC   C3B 8423   3.920   9.199  17.253 -0.4747 -0.0019  0.0183
  702POPC   C4B 8424   3.806   8.915  16.857  0.0051 -0.2732 -0.0135
  703POPC   NC3 8425  13.402  16.167  19.656 -0.1803  0.0237 -0.2214
  703POPC   PO4 8426  13.263  16.297  19.342  0.0678  0.0380  0.2385
  703POPC   GL1 8427  12.986  16.501  19.176  0.0103  0.2933 -0.4314
  703POPC   GL2 8428  13.162  16.657  18.995  0.2412 -0.0305  0.0101
  703POPC   C1A 8429  12.741  16.547  18.749  0.1543 -0.0873 -0.0735
  703POPC   D2A 8430  12.613  16.969  18.566 -0.0386 -0.3771  0.3626
  703POPC   C3A 8431  12.402  17.078  18.263  0.0286 -0.1992 -0.2753
  703POPC   C4A 8432  12.477  16.948  17.807 -0.1449  0.2398 -0.0733
  703POPC   C1B 8433  13.146  16.801  18.557  0.1267 -0.0634  0.3350
  703POPC   C2B 8434  13.314  17.041  18.180 -0.1257 -0.0274  0.0393
  703POPC   C3B 8435  13.527  16.933  17.801 -0.0272 -0.1299  0.1802
  703POPC   C4B 8436  13.673  16.706  17.409  0.0213  0.0812 -0.1200
  704POPC   NC3 8437   7.114  21.484  19.653  0.0950 -0.0892 -0.0834
  704POPC   PO4 8438   7.122  21.562  19.288 -0.1600  0.1785  0.1960
  704POPC   GL1 8439   7.269  21.511  18.917  0.0852  0.3360  0.4468
  704POPC   GL2 8440   7.338  21.228  18.850 -0.0556 -0.0264  0.1698
  704POPC   C1A 8441   7.206  21.514  18.477 -0.1049  0.1015 -0.2635
  704POPC   D2A 8442   7.357  21.334  18.079  0.2297  0.2132  0.0713
  704POPC   C3A 8443   7.663  20.950  18.123 -0.1749 -0.1062 -0.0018
  704POPC   C4A 8444   8.049  20.677  17.920  0.2343  0.0446 -0.2151
  704POPC   C1B 8445   7.229  21.001  18.373  0.0311  0.3619  0.1842
  704POPC   C2B 8446   7.042  20.877  17.996 -0.0430  0.3753 -0.0551
  704POPC   C3B 8447   7.129  20.547  17.735  0.1517  0.1380 -0.0028
  704POPC   C4B 8448   7.446  20.345  17.417 -0.0573 -0.0319 -0.0223
  705POPC   NC3 8449   8.960  24.908  19.067  0.0142  0.0398  0.1175
  705POPC   PO4 8450   8.641  25.070  19.262  0.1423  0.5016  0.1109
  705POPC   GL1 8451   8.647  25.036  18.776 -0.1693 -0.1640 -0.2169
  705POPC   GL2 8452   8.520  24.859  18.544 -0.0046 -0.2044 -0.2925
  705POPC   C1A 8453   9.010  25.039  18.518 -0.1160 -0.1462  0.4156
  705POPC   D2A 8454   9.341  25.197  18.286 -0.0258  0.1324  0.2910
  705POPC   C3A 8455   9.435  25.437  17.878  0.0218  0.2479  0.1331
  705POPC   C4A 8456   9.534  25.580  17.415 -0.1656 -0.0271 -0.0037
  705POPC   C1B 8457   8.743  24.843  18.135  0.1605  0.1944 -0.0953
  705POPC   C2B 8458   8.685  24.694  17.715  0.0943  0.2076 -0.2589
  705POPC   C3B 8459   8.636  24.235  17.673 -0.0091 -0.3190  0.0075
  705POPC   C4B 8460   8.379  23.948  17.807  0.1463  0.3154  0.1285
  706POPC   NC3 8461   7.750  29.139  19.645 -0.0256 -0.1074  0.1313
  706POPC   PO4 8462   8.003  29.394  19.494  0.2627  0.1958  0.0520
  706POPC   GL1 8463   7.918  29.604  19.235 -0.3336 -0.0479  0.4010
  706POPC   GL2 8464   7.707  29.826  19.307  0.1035 -0.2005 -0.2694
  706POPC   C1A 8465   7.794  29.598  18.763  0.1024  0.1749  0.1018
  706POPC   D2A 8466   7.831  29.635  18.305 -0.2027 -0.2143 -0.1477
  706POPC   C3A 8467   7.904  29.763  17.888 -0.1553  0.1865 -0.1461
  706POPC   C4A 8468   7.995  30.014  17.515  0.1736  0.2193 -0.1482
  706POPC   C1B 8469   7.979  30.050  19.010  0.1016 -0.1354  0.3482
  706POPC   C2B 8470   8.078  30.214  18.589  0.0209 -0.1762  0.0092
  706POPC   C3B 8471   8.145  30.596  18.300  0.0603 -0.2398  0.0035
  706POPC   C4B 8472   8.052  30.915  18.032 -0.1362  0.1588 -0.1402
  707POPC   NC3 8473  14.255   9.132  19.268  0.1163  0.2932 -0.2960
  707POPC   PO4 8474  14.037   9.448  19.150 -0.1518  0.2298 -0.3268
  707POPC   GL1 8475  14.044   9.621  18.837  0.1087  0.0378  0.2148
  707POPC   GL2 8476  14.312   9.724  18.775 -0.0144  0.1632  0.1663
  707POPC   C1A 8477  14.074   9.441  18.425  0.0860  0.1671 -0.0747
  707POPC   D2A 8478  14.236   9.268  17.985 -0.0392  0.0127  0.3145
  707POPC   C3A 8479  13.994   9.303  17.615  0.1110  0.1990 -0.1708
  707POPC   C4A 8480  13.795   9.184  17.167  0.1622  0.1233 -0.3381
  707POPC   C1B 8481  14.512   9.831  18.384  0.0918 -0.0419  0.4232
  707POPC   C2B 8482  14.760   9.925  18.004  0.1864 -0.3005  0.2134
  707POPC   C3B 8483  14.841  10.062  17.528 -0.3567 -0.2082  0.0193
  707POPC   C4B 8484  14.772  10.489  17.326 -0.0296  0.3209  0.2959
  708POPC   NC3 8485   0.679  16.998  19.775 -0.3305  0.0645 -0.4231
  708POPC   PO4 8486   0.931  17.223  19.623 -0.0045  0.2412 -0.2588
  708POPC   GL1 8487   0.921  17.079  19.267  0.0205 -0.1676  0.1222
  708POPC   GL2 8488   0.808  16.829  19.265 -0.0323 -0.3767  0.0901
  708POPC   C1A 8489   0.756  17.125  18.806  0.2160 -0.0974 -0.0955
  708POPC   D2A 8490   0.536  17.359  18.505 -0.1795  0.0092 -0.0160
  708POPC   C3A 8491   0.269  17.237  18.154 -0.0015 -0.1721  0.1141
  708POPC   C4A 8492  -0.002  16.957  17.875 -0.0258 -0.1106  0.1751
  708POPC   C1B 8493   0.762  16.643  18.886  0.1769 -0.2700  0.1245
  708POPC   C2B 8494   0.812  16.759  18.455 -0.0439 -0.0297 -0.0168
  708POPC   C3B 8495   0.791  16.805  18.018  0.1915  0.2292 -0.1013
  708POPC   C4B 8496   0.720  16.672  17.595  0.3263 -0.2403  0.1392
  709POPC   NC3 8497  14.556  22.748  18.931 -0.2326  0.0324 -0.2020
  709POPC   PO4 8498  14.682  23.045  19.179 -0.1406  0.4093 -0.0052
  709POPC   GL1 8499  14.785  23.112  18.767 -0.1142  0.2243 -0.0959
  709POPC   GL2 8500  14.616  23.391  18.765 -0.0818 -0.0061 -0.0009
  709POPC   C1A 8501  14.845  22.704  18.549  0.1526  0.1325 -0.0580
  709POPC   D2A 8502  14.820  22.356  18.219  0.3127  0.0311  0.1392
  709POPC   C3A 8503  14.453  22.302  17.950 -0.0545  0.0326 -0.0132
  709POPC   C4A 8504  14.242  21.985  17.701  0.0738 -0.2184 -0.3283
  709POPC   C1B 8505  14.700  23.172  18.313  0.0458  0.1023  0.0745
  709POPC   C2B 8506  14.682  22.811  17.974  0.1551  0.0684  0.1491
  709POPC   C3B 8507  14.910  22.675  17.581 -0.0602  0.3779 -0.0351
  709POPC   C4B 8508  14.781  22.708  17.181 -0.1992  0.1214 -0.1604
  710POPC   NC3 8509   7.175  12.872  19.083  0.1433 -0.3392  0.0573
  710POPC   PO4 8510   7.152  12.504  19.163 -0.0327  0.1050 -0.0502
  710POPC   GL1 8511   7.335  12.500  18.772 -0.1499  0.0143 -0.0722
  710POPC   GL2 8512   7.237  12.701  18.656 -0.0872  0.3066 -0.0282
  710POPC   C1A 8513   7.451  12.274  18.381 -0.1901  0.1800 -0.1342
  710POPC   D2A 8514   7.463  11.885  18.186  0.2696  0.1904  0.1375
  710POPC   C3A 8515   7.491  11.848  17.662  0.0710 -0.1936 -0.0186
  710POPC   C4A 8516   7.790  11.966  17.341 -0.0400 -0.1289 -0.2164
  710POPC   C1B 8517   6.967  12.547  18.344  0.1071  0.2369 -0.1007
  710POPC   C2B 8518   6.897  12.689  17.866  0.1525 -0.0600 -0.2667
  710POPC   C3B 8519   6.614  12.942  17.620  0.0242 -0.1530 -0.1939
  710POPC   C4B 8520   6.407  13.182  17.247  0.0654 -0.1132 -0.2401
  711POPC   NC3 8521   6.010   6.745  19.078 -0.1392 -0.1773  0.0062
  711POPC   PO4 8522   6.406   6.895  19.107  0.0254  0.1582 -0.5043
  711POPC   GL1 8523   6.624   6.898  18.825 -0.2943 -0.0723  0.0584
  711POPC   GL2 8524   6.673   7.147  18.756 -0.0889 -0.0293  0.1110
  711POPC   C1A 8525   6.735   6.691  18.433  0.2098  0.0080  0.0667
  711POPC   D2A 8526   6.966   6.367  18.221 -0.1779 -0.0698  0.0936
  711POPC   C3A 8527   7.040   6.468  17.837  0.1424 -0.0531 -0.0545
  711POPC   C4A 8528   7.118   6.753  17.516  0.0951  0.2970 -0.0657
  711POPC   C1B 8529   6.644   7.235  18.302  0.0600 -0.1467 -0.0732
  711POPC   C2B 8530   6.901   7.343  17.885  0.0734  0.1371 -0.1838
  711POPC   C3B 8531   7.083   7.256  17.440  0.2024  0.4539 -0.2229
  711POPC   C4B 8532   7.202   7.171  16.988 -0.0795  0.1153 -0.3605
  712POPC   NC3 8533   8.035  21.608  18.915 -0.2545  0.1207  0.0920
  712POPC   PO4 8534   7.943  21.963  18.850  0.0365 -0.4413 -0.2260
  712POPC   GL1 8535   8.099  22.021  18.553  0.0109  0.0243 -0.1291
  712POPC   GL2 8536   8.414  22.082  18.566  0.0704 -0.0579 -0.2047
  712POPC   C1A 8537   8.250  21.944  18.103  0.0533  0.1613 -0.1551
  712POPC   D2A 8538   8.102  21.672  17.689  0.2291  0.2684  0.3711
  712POPC   C3A 8539   7.699  21.687  17.431 -0.0382 -0.1487 -0.0156
  712POPC   C4A 8540   7.559  22.070  17.243  0.0450  0.0825  0.0628
  712POPC   C1B 8541   8.699  22.054  18.198 -0.4054 -0.0435 -0.0915
  712POPC   C2B 8542   8.855  21.685  18.002 -0.1823 -0.0534 -0.2192
  712POPC   C3B 8543   8.998  21.284  17.891  0.0509  0.2447 -0.2594
  712POPC   C4B 8544   9.049  20.911  17.609  0.2532 -0.0431  0.0591
  713POPC   NC3 8545  15.168   8.037  19.486 -0.1571  0.3189  0.3813
  713POPC   PO4 8546  15.402   8.361  19.306  0.0520 -0.2504  0.1255
  713POPC   GL1 8547  15.445   8.003  19.139 -0.0623 -0.3028 -0.0458
  713POPC   GL2 8548  15.227   7.992  18.983 -0.1441 -0.2255 -0.0275
  713POPC   C1A 8549  15.575   7.604  19.232 -0.0158 -0.3838  0.0712
  713POPC   D2A 8550  15.616   7.235  19.504  0.0604 -0.3275  0.1245
  713POPC   C3A 8551  15.860   6.958  19.836 -0.0383  0.0603  0.1812
  713POPC   C4A 8552  16.191   6.648  19.828 -0.3331 -0.0834 -0.1017
  713POPC   C1B 8553  14.981   7.779  18.679 -0.0494  0.1477  0.0719
  713POPC   C2B 8554  14.997   7.429  18.338 -0.2025  0.2146  0.2198
  713POPC   C3B 8555  15.080   6.966  18.211  0.1616  0.0515  0.0136
  713POPC   C4B 8556  14.857   6.653  17.971 -0.0354 -0.2450  0.0083
  714POPC   NC3 8557  13.881  29.634  19.533 -0.1480 -0.0918  0.0944
  714POPC   PO4 8558  14.186  29.543  19.265 -0.1248  0.4965  0.3036
  714POPC   GL1 8559  14.039  29.793  18.938 -0.0365  0.1518 -0.2402
  714POPC   GL2 8560  14.234  30.052  18.875  0.0334 -0.2615 -0.2867
  714POPC   C1A 8561  13.738  29.993  18.644  0.0467  0.4564  0.0112
  714POPC   D2A 8562  13.495  30.218  18.300 -0.1527  0.0001 -0.1713
  714POPC   C3A 8563  13.190  30.179  18.035 -0.0746  0.1084  0.0424
  714POPC   C4A 8564  13.117  30.139  17.603  0.1429 -0.1237 -0.0872
  714POPC   C1B 8565  14.531  30.237  18.575 -0.1881  0.1340  0.2295
  714POPC   C2B 8566  14.887  30.214  18.261  0.1296 -0.2513 -0.2680
  714POPC   C3B 8567  15.146  30.052  17.877 -0.0526  0.2300  0.2809
  714POPC   C4B 8568  15.319  29.845  17.446  0.1119  0.0225  0.0854
  715POPC   NC3 8569   4.141  24.751  19.972 -0.0591  0.1582 -0.2580
  715POPC   PO4 8570   4.258  25.027  19.689  0.1573 -0.2967  0.0850
  715POPC   GL1 8571   4.573  25.167  19.516  0.2018  0.1613 -0.0719
  715POPC   GL2 8572   4.593  25.027  19.305  0.1280 -0.1019  0.1067
  715POPC   C1A 8573   4.634  25.547  19.240 -0.2956 -0.2965 -0.0965
  715POPC   D2A 8574   4.918  25.889  19.090 -0.0569  0.0732 -0.0473
  715POPC   C3A 8575   4.868  26.191  18.762  0.0272 -0.0214  0.3870
  715POPC   C4A 8576   4.834  26.170  18.271 -0.2971 -0.1559  0.1694
  715POPC   C1B 8577   4.391  24.923  18.927 -0.2646  0.1535  0.2387
  715POPC   C2B 8578   4.421  24.988  18.452  0.4742 -0.0597 -0.1155
  715POPC   C3B 8579   4.382  25.429  18.268 -0.0030 -0.2191 -0.0292
  715POPC   C4B 8580   4.292  25.554  17.854 -0.2058  0.2392  0.0199
  716POPC   NC3 8581   2.191  27.959  19.652  0.0480 -0.1409 -0.0489
  716POPC   PO4 8582   2.047  27.594  19.601  0.0072  0.0588  0.3143
  716POPC   GL1 8583   2.261  27.600  19.342 -0.0787  0.0164 -0.1695
  716POPC   GL2 8584   2.157  27.820  19.189 -0.1370  0.0155 -0.1393
  716POPC   C1A 8585   2.517  27.483  18.964 -0.0020  0.5401 -0.0701
  716POPC   D2A 8586   2.872  27.355  18.652 -0.2380  0.0504  0.0412
  716POPC   C3A 8587   2.856  27.424  18.188  0.2537  0.1452  0.0554
  716POPC   C4A 8588   3.091  27.700  17.820 -0.0952  0.0636 -0.4254
  716POPC   C1B 8589   2.083  27.586  18.774 -0.0837  0.1391  0.0070
  716POPC   C2B 8590   2.067  27.621  18.295 -0.1886 -0.0584  0.1134
  716POPC   C3B 8591   2.412  27.603  17.979 -0.2363  0.1651  0.1980
  716POPC   C4B 8592   2.615  27.641  17.538  0.1980 -0.1524  0.1326
  717POPC   NC3 8593   4.455  26.956  20.189  0.1398  0.0458  0.1949
  717POPC   PO4 8594   4.157  27.163  20.012 -0.4571  0.3656  0.3027
  717POPC   GL1 8595   4.349  27.305  19.597  0.0916 -0.0243 -0.2108
  717POPC   GL2 8596   4.643  27.259  19.715  0.0325  0.0020  0.0998
  717POPC   C1A 8597   4.517  27.107  19.224  0.3843 -0.0132  0.2779
  717POPC   D2A 8598   4.522  26.857  18.793 -0.0564 -0.1394  0.0657
  717POPC   C3A 8599   4.549  27.044  18.349  0.4305 -0.0188 -0.1669
  717POPC   C4A 8600   4.412  27.209  17.977  0.3144 -0.1376  0.0899
  717POPC   C1B 8601   4.766  27.498  19.350  0.0811 -0.0512  0.0259
  717POPC   C2B 8602   5.139  27.724  19.321 -0.0675  0.2468 -0.0532
  717POPC   C3B 8603   5.329  27.976  18.985  0.2852 -0.1808  0.1689
  717POPC   C4B 8604   5.106  28.116  18.607 -0.2298  0.1192 -0.0020
  718POPC   NC3 8605  12.988  17.503  19.003 -0.1192 -0.1388  0.0717
  718POPC   PO4 8606  12.688  17.437  18.788 -0.1745 -0.1705  0.1811
  718POPC   GL1 8607  12.598  17.408  18.446  0.0029  0.0207  0.2222
  718POPC   GL2 8608  12.899  17.292  18.363 -0.0808  0.0422 -0.1351
  718POPC   C1A 8609  12.613  17.470  17.977 -0.0999 -0.0943 -0.0750
  718POPC   D2A 8610  12.892  17.611  17.636  0.0650  0.0543 -0.4517
  718POPC   C3A 8611  13.283  17.383  17.531  0.1585  0.1739 -0.0680
  718POPC   C4A 8612  13.675  17.218  17.352 -0.0067 -0.4606 -0.0645
  718POPC   C1B 8613  13.143  17.506  18.027  0.1312  0.0846 -0.0681
  718POPC   C2B 8614  13.547  17.459  17.954  0.2732  0.2837 -0.1127
  718POPC   C3B 8615  13.893  17.317  17.799 -0.0372 -0.1473  0.3681
  718POPC   C4B 8616  14.167  16.931  17.831 -0.2179 -0.0350 -0.1261
  719POPC   NC3 8617   5.457  24.581  19.822 -0.0687 -0.1206 -0.1016
  719POPC   PO4 8618   5.115  24.456  19.723 -0.0736 -0.1459  0.0215
  719POPC   GL1 8619   5.375  24.421  19.375  0.1461 -0.3886  0.1215
  719POPC   GL2 8620   5.171  24.439  19.172 -0.4036  0.1009  0.1918
  719POPC   C1A 8621   5.734  24.489  19.057 -0.2330  0.0555 -0.0680
  719POPC   D2A 8622   5.877  24.771  18.723  0.0348  0.2160  0.1889
  719POPC   C3A 8623   6.231  24.617  18.404  0.3614  0.2500  0.0661
  719POPC   C4A 8624   6.376  24.643  18.010  0.3629 -0.1475  0.0133
  719POPC   C1B 8625   5.280  24.433  18.753  0.0002  0.3111  0.0406
  719POPC   C2B 8626   5.316  24.528  18.276  0.0517  0.2803  0.0751
  719POPC   C3B 8627   5.129  24.353  17.878 -0.0797  0.1065 -0.2331
  719POPC   C4B 8628   5.339  24.448  17.470 -0.0952 -0.0148 -0.1755
  720POPC   NC3 8629   4.692   0.170  18.945 -0.4966  0.1079 -0.2253
  720POPC   PO4 8630   4.461   0.411  18.752 -0.2064 -0.1362 -0.3831
  720POPC   GL1 8631   4.592   0.544  18.398  0.1527  0.1183  0.0740
  720POPC   GL2 8632   4.418   0.381  18.240 -0.2724  0.1948 -0.2120
  720POPC   C1A 8633   4.976   0.671  18.187  0.1321 -0.0075  0.1209
  720POPC   D2A 8634   5.350   0.569  17.904 -0.1526 -0.1734  0.0989
  720POPC   C3A 8635   5.171   0.305  17.537  0.1190  0.4629 -0.0431
  720POPC   C4A 8636   4.843   0.310  17.134 -0.1818  0.1704 -0.5157
  720POPC   C1B 8637   4.339   0.049  17.798  0.2708 -0.0910 -0.1254
  720POPC   C2B 8638   4.338  -0.147  17.388  0.2028  0.2544 -0.1527
  720POPC   C3B 8639   4.402  -0.094  16.885 -0.1535  0.1858 -0.2177
  720POPC   C4B 8640   4.415   0.119  16.496  0.2263  0.0488  0.1734
  721POPC   NC3 8641  15.197   9.873  19.624 -0.0267 -0.5673  0.2532
  721POPC   PO4 8642  14.931   9.812  19.326 -0.1391  0.1647 -0.1835
  721POPC   GL1 8643  14.987   9.918  18.978 -0.3796 -0.3234  0.2336
  721POPC   GL2 8644  14.764   9.744  18.836 -0.3487  0.1376 -0.0975
  721POPC   C1A 8645  15.034   9.987  18.504  0.1339  0.2263 -0.0416
  721POPC   D2A 8646  15.285   9.965  18.094 -0.2999  0.0151 -0.1079
  721POPC   C3A 8647  15.292  10.095  17.708 -0.1780 -0.2612  0.1966
  721POPC   C4A 8648  15.683  10.110  17.469 -0.0935 -0.1612  0.2847
  721POPC   C1B 8649  14.744   9.382  18.509  0.0064  0.0316  0.1438
  721POPC   C2B 8650  14.666   9.430  18.047  0.1395  0.1674 -0.0358
  721POPC   C3B 8651  14.493   9.614  17.651  0.1051 -0.1102 -0.0864
  721POPC   C4B 8652  14.274   9.676  17.292  0.1897  0.0163 -0.1272
  722POPC   NC3 8653  12.908   7.644  18.755  0.1583  0.0893 -0.0669
  722POPC   PO4 8654  12.657   7.478  18.979 -0.1227 -0.0090 -0.2122
  722POPC   GL1 8655  12.759   7.252  18.616  0.2231 -0.0498 -0.3033
  722POPC   GL2 8656  12.481   7.402  18.511  0.1038  0.2703 -0.3312
  722POPC   C1A 8657  12.844   7.372  18.208 -0.0887 -0.3220 -0.0327
  722POPC   D2A 8658  12.986   7.283  17.749  0.1075 -0.0853  0.0643
  722POPC   C3A 8659  12.827   7.249  17.336 -0.0000  0.1388 -0.4033
  722POPC   C4A 8660  12.599   7.529  17.109  0.2689  0.0585 -0.1001
  722POPC   C1B 8661  12.477   7.797  18.218  0.0423  0.2179 -0.2007
  722POPC   C2B 8662  12.516   8.119  17.818  0.2408  0.0192  0.0458
  722POPC   C3B 8663  12.461   8.289  17.424 -0.0495  0.2143  0.0913
  722POPC   C4B 8664  12.576   8.753  17.334  0.0481  0.5303  0.0160
  723POPC   NC3 8665   4.594  22.606  19.742 -0.4298  0.0408  0.1594
  723POPC   PO4 8666   4.705  22.474  19.412 -0.1241 -0.1038 -0.0023
  723POPC   GL1 8667   4.702  22.646  19.085  0.1639  0.2089 -0.0356
  723POPC   GL2 8668   4.773  22.431  18.871  0.2223  0.1964 -0.0749
  723POPC   C1A 8669   4.734  22.923  18.762  0.2571 -0.0537  0.2872
  723POPC   D2A 8670   4.728  23.090  18.292 -0.0953  0.3694 -0.1723
  723POPC   C3A 8671   4.643  22.851  17.862 -0.0459 -0.1447 -0.1125
  723POPC   C4A 8672   4.440  22.816  17.466  0.1742  0.2586  0.1915
  723POPC   C1B 8673   4.852  22.487  18.454 -0.0725 -0.0160  0.4410
  723POPC   C2B 8674   4.953  22.505  18.015  0.0155 -0.0039  0.1394
  723POPC   C3B 8675   4.962  22.599  17.555  0.1497 -0.2317  0.0904
  723POPC   C4B 8676   5.301  22.722  17.369  0.2085 -0.3874  0.1215
  724POPC   NC3 8677  10.014  12.801  19.547  0.1778 -0.0701  0.0928
  724POPC   PO4 8678   9.906  12.956  19.253 -0.1106 -0.1336  0.0680
  724POPC   GL1 8679   9.941  13.238  18.965 -0.0251 -0.0448  0.1577
  724POPC   GL2 8680  10.199  13.384  19.011 -0.1038 -0.0140 -0.0395
  724POPC   C1A 8681   9.707  13.208  18.605 -0.1600  0.0527  0.1249
  724POPC   D2A 8682   9.569  13.085  18.199 -0.1579  0.0475  0.1922
  724POPC   C3A 8683   9.476  12.635  18.012 -0.3486  0.0825  0.0439
  724POPC   C4A 8684   9.704  12.188  17.912  0.2013  0.3197 -0.0347
  724POPC   C1B 8685  10.199  13.049  18.640  0.0679 -0.0189  0.4325
  724POPC   C2B 8686  10.110  13.071  18.173  0.1200 -0.1301  0.0764
  724POPC   C3B 8687   9.889  12.902  17.793  0.2277  0.1290 -0.0472
  724POPC   C4B 8688   9.872  12.973  17.320 -0.3268 -0.1097  0.0521
  725POPC   NC3 8689   2.024   0.142  19.111  0.1943 -0.0918 -0.2459
  725POPC   PO4 8690   2.147   0.443  19.346  0.2420  0.0309 -0.1449
  725POPC   GL1 8691   2.134   0.556  19.029 -0.0227 -0.0811 -0.4111
  725POPC   GL2 8692   2.012   0.794  18.975 -0.1395  0.2425 -0.1973
  725POPC   C1A 8693   2.074   0.330  18.576  0.0602 -0.1378 -0.0248
  725POPC   D2A 8694   2.288   0.227  18.177  0.1620 -0.3812  0.0733
  725POPC   C3A 8695   2.428   0.446  17.762  0.2287  0.0353 -0.0150
  725POPC   C4A 8696   2.342   0.715  17.373 -0.0861  0.1125  0.1135
  725POPC   C1B 8697   2.016   0.810  18.495 -0.1672 -0.1124 -0.0815
  725POPC   C2B 8698   2.073   0.672  18.078 -0.1053  0.2317  0.2171
  725POPC   C3B 8699   1.900   0.665  17.644 -0.0137  0.0970 -0.1721
  725POPC   C4B 8700   1.652   0.590  17.247  0.2467 -0.1127  0.1450
  726POPC   NC3 8701  13.453  17.147  19.797 -0.0662 -0.0315  0.0757
  726POPC   PO4 8702  13.702  17.469  19.703 -0.1353 -0.0145  0.0860
  726POPC   GL1 8703  13.879  17.610  19.334 -0.2245 -0.2913 -0.2036
  726POPC   GL2 8704  13.681  17.714  19.100  0.1530  0.0388  0.0276
  726POPC   C1A 8705  14.240  17.377  19.132  0.1254  0.5104  0.0101
  726POPC   D2A 8706  14.658  17.317  18.953 -0.1687  0.0396  0.0455
  726POPC   C3A 8707  14.766  16.976  18.655  0.0214 -0.1897 -0.1581
  726POPC   C4A 8708  14.855  16.646  18.375 -0.1545  0.0413  0.0035
  726POPC   C1B 8709  13.862  17.596  18.676 -0.3341  0.0394  0.2209
  726POPC   C2B 8710  14.095  17.544  18.262 -0.0895  0.1861 -0.0780
  726POPC   C3B 8711  14.187  17.815  17.851 -0.3467  0.1850 -0.2052
  726POPC   C4B 8712  13.884  17.800  17.461 -0.3927  0.3994 -0.3233
  727POPC   NC3 8713  10.095  13.798  19.283 -0.1774  0.2603  0.0049
  727POPC   PO4 8714   9.880  13.516  19.418 -0.2197 -0.0134 -0.0087
  727POPC   GL1 8715   9.690  13.711  19.080  0.1115  0.1688  0.1143
  727POPC   GL2 8716   9.524  13.854  18.941  0.0070  0.2157  0.0438
  727POPC   C1A 8717   9.855  13.658  18.685  0.0597  0.0885 -0.0341
  727POPC   D2A 8718   9.846  13.538  18.236  0.3289 -0.0812  0.2421
  727POPC   C3A 8719   9.576  13.453  17.891  0.1013  0.4127 -0.1241
  727POPC   C4A 8720   9.460  13.267  17.538  0.2506  0.2831 -0.1115
  727POPC   C1B 8721   9.273  14.145  18.708 -0.0396 -0.2800  0.2284
  727POPC   C2B 8722   9.222  14.264  18.247 -0.0066 -0.3692 -0.0113
  727POPC   C3B 8723   9.096  14.329  17.825  0.0941 -0.4329  0.0603
  727POPC   C4B 8724   9.212  14.389  17.399  0.1183 -0.0375  0.3092
  728POPC   NC3 8725  11.267  13.645  19.820 -0.6002  0.0628 -0.0689
  728POPC   PO4 8726  11.257  13.775  19.445 -0.2454 -0.0296  0.2201
  728POPC   GL1 8727  11.118  13.951  19.116  0.0632  0.3034 -0.3614
  728POPC   GL2 8728  10.936  14.243  19.108 -0.1351  0.1319 -0.3115
  728POPC   C1A 8729  10.940  13.764  18.755  0.2434  0.0616  0.2236
  728POPC   D2A 8730  10.849  13.649  18.316 -0.2664  0.2162 -0.0514
  728POPC   C3A 8731  10.731  13.663  17.902 -0.1092 -0.4043  0.1532
  728POPC   C4A 8732  10.426  13.658  17.504 -0.0543 -0.0388  0.1039
  728POPC   C1B 8733  10.654  14.205  18.779  0.2748  0.1810  0.0056
  728POPC   C2B 8734  10.594  14.143  18.361 -0.0220  0.1501 -0.1104
  728POPC   C3B 8735  10.409  14.059  17.892  0.0245  0.2514  0.1857
  728POPC   C4B 8736  10.349  14.160  17.413 -0.1126  0.2416  0.1126
  729POPC   NC3 8737  14.330   1.926  19.473 -0.5346 -0.0428  0.0170
  729POPC   PO4 8738  13.945   1.982  19.387  0.2454  0.1158 -0.1102
  729POPC   GL1 8739  13.846   1.985  19.061 -0.3784  0.3136  0.0418
  729POPC   GL2 8740  13.684   1.749  19.019 -0.1097  0.0687 -0.1906
  729POPC   C1A 8741  13.967   1.926  18.610  0.1542 -0.0663 -0.2857
  729POPC   D2A 8742  13.960   2.108  18.176 -0.0359  0.0750 -0.0723
  729POPC   C3A 8743  13.818   1.901  17.784  0.0402  0.0155  0.0472
  729POPC   C4A 8744  13.438   1.812  17.515 -0.1688 -0.1422  0.1268
  729POPC   C1B 8745  13.503   2.130  18.766 -0.1220 -0.1983  0.0015
  729POPC   C2B 8746  13.634   2.389  18.347  0.0484 -0.1654 -0.2743
  729POPC   C3B 8747  13.707   2.473  17.914  0.0923 -0.0237 -0.1053
  729POPC   C4B 8748  13.643   2.272  17.521 -0.3635  0.0075 -0.0406
  730POPC   NC3 8749   9.655   6.049  19.442  0.1072 -0.3225  0.1694
  730POPC   PO4 8750   9.941   6.102  19.173  0.0920 -0.0666 -0.4349
  730POPC   GL1 8751   9.796   6.251  18.821  0.0949  0.1562  0.0811
  730POPC   GL2 8752   9.734   5.992  18.666  0.1401 -0.2051 -0.2208
  730POPC   C1A 8753   9.738   6.353  18.342  0.1726  0.2658  0.0334
  730POPC   D2A 8754   9.709   6.515  17.929  0.2460  0.0147 -0.1299
  730POPC   C3A 8755   9.885   6.387  17.530 -0.0318  0.2122 -0.2406
  730POPC   C4A 8756   9.894   6.164  17.147 -0.0073  0.0483  0.0552
  730POPC   C1B 8757   9.937   5.862  18.238 -0.1051 -0.0692 -0.3209
  730POPC   C2B 8758  10.163   5.533  17.999  0.1253 -0.0710  0.0450
  730POPC   C3B 8759  10.207   5.036  18.061  0.4376 -0.0657 -0.1870
  730POPC   C4B 8760  10.266   4.656  17.768 -0.4222 -0.0882 -0.1904
  731POPC   NC3 8761  10.705  15.021  19.198  0.4897 -0.0401  0.0722
  731POPC   PO4 8762  10.323  14.977  19.178  0.0363 -0.1853 -0.0090
  731POPC   GL1 8763  10.460  14.928  18.801 -0.0666  0.0866  0.3665
  731POPC   GL2 8764  10.653  15.131  18.734 -0.1097  0.1049  0.2200
  731POPC   C1A 8765  10.684  14.633  18.533 -0.0557 -0.0485  0.0767
  731POPC   D2A 8766  10.802  14.534  18.105  0.1053  0.1158 -0.3461
  731POPC   C3A 8767  10.541  14.612  17.705 -0.1950  0.0474 -0.2984
  731POPC   C4A 8768  10.456  14.728  17.265 -0.0908 -0.0665 -0.0437
  731POPC   C1B 8769  10.582  15.038  18.263  0.0753 -0.2297  0.0614
  731POPC   C2B 8770  10.776  14.989  17.876  0.1552 -0.1183 -0.3543
  731POPC   C3B 8771  10.722  15.101  17.417 -0.1996 -0.0047  0.0251
  731POPC   C4B 8772  10.442  15.203  17.058 -0.3461 -0.3712 -0.1593
  732POPC   NC3 8773   6.165  18.350  18.872  0.2198 -0.1502  0.1145
  732POPC   PO4 8774   5.830  18.465  19.058  0.0470  0.0670 -0.3096
  732POPC   GL1 8775   5.820  18.602  18.703 -0.1538 -0.1247 -0.0650
  732POPC   GL2 8776   5.602  18.428  18.591 -0.1680  0.1932  0.1569
  732POPC   C1A 8777   5.815  18.830  18.263  0.1336 -0.1407 -0.1368
  732POPC   D2A 8778   6.049  18.848  17.855  0.0229 -0.1622  0.0553
  732POPC   C3A 8779   6.013  18.502  17.674  0.2987 -0.0224 -0.3593
  732POPC   C4A 8780   5.842  18.315  17.303  0.2373 -0.1718  0.2383
  732POPC   C1B 8781   5.659  18.423  18.116 -0.0825  0.0641 -0.2756
  732POPC   C2B 8782   5.494  18.414  17.653  0.1347 -0.2148  0.1495
  732POPC   C3B 8783   5.257  18.489  17.298 -0.0580 -0.1813  0.4834
  732POPC   C4B 8784   5.040  18.224  16.979  0.0520 -0.0919 -0.1725
  733POPC   NC3 8785   2.622  20.484  19.388  0.0717 -0.0013 -0.0577
  733POPC   PO4 8786   2.821  20.662  19.076  0.1424  0.0930  0.0642
  733POPC   GL1 8787   2.954  20.964  18.790 -0.0345 -0.2515  0.1885
  733POPC   GL2 8788   2.938  21.274  18.731  0.1980 -0.0394  0.0614
  733POPC   C1A 8789   3.328  20.927  18.552  0.3406  0.1215  0.0942
  733POPC   D2A 8790   3.658  21.219  18.535  0.0376 -0.1593 -0.0909
  733POPC   C3A 8791   3.705  21.448  18.095 -0.1160 -0.0935  0.0624
  733POPC   C4A 8792   3.783  21.552  17.649 -0.1023  0.0576  0.2447
  733POPC   C1B 8793   2.899  21.025  18.349 -0.0467  0.1238  0.0722
  733POPC   C2B 8794   2.866  20.799  17.900 -0.0492 -0.2638  0.1965
  733POPC   C3B 8795   3.084  20.407  17.761  0.0376 -0.2738 -0.3029
  733POPC   C4B 8796   2.843  20.217  17.335  0.2780  0.2594 -0.0416
  734POPC   NC3 8797   6.344   0.991  19.414 -0.0629 -0.5560 -0.0776
  734POPC   PO4 8798   6.692   1.128  19.270 -0.2915 -0.0922 -0.1276
  734POPC   GL1 8799   6.745   1.266  18.960 -0.0746 -0.0124  0.4769
  734POPC   GL2 8800   6.524   1.435  18.862  0.0016  0.1035 -0.2482
  734POPC   C1A 8801   6.912   0.951  18.642 -0.0486  0.0605 -0.2466
  734POPC   D2A 8802   7.150   0.937  18.260  0.0655 -0.1220  0.0981
  734POPC   C3A 8803   7.313   0.577  17.988  0.0693 -0.0501 -0.0962
  734POPC   C4A 8804   7.204   0.461  17.582 -0.2357  0.4230  0.0594
  734POPC   C1B 8805   6.804   1.450  18.542 -0.3593  0.2571  0.6043
  734POPC   C2B 8806   6.728   1.201  18.133 -0.1439  0.2434 -0.0739
  734POPC   C3B 8807   6.532   1.207  17.735  0.1582  0.1007  0.2690
  734POPC   C4B 8808   6.178   1.151  17.402 -0.1000  0.1574 -0.1009
  735POPC   NC3 8809   9.568  22.524  19.240  0.4022 -0.1360  0.0313
  735POPC   PO4 8810   9.923  22.574  19.352  0.1744  0.1529  0.2725
  735POPC   GL1 8811   9.968  22.349  18.990 -0.0054 -0.0657 -0.1690
  735POPC   GL2 8812   9.702  22.264  18.869 -0.0931  0.1557 -0.4394
  735POPC   C1A 8813  10.309  22.276  18.714 -0.1227 -0.3092  0.1162
  735POPC   D2A 8814  10.368  22.191  18.257  0.1656 -0.2171  0.3117
  735POPC   C3A 8815  10.318  22.398  17.886  0.0739 -0.0440 -0.1499
  735POPC   C4A 8816  10.393  22.674  17.550 -0.5213 -0.2513  0.0740
  735POPC   C1B 8817   9.911  21.955  18.615 -0.6117 -0.1094 -0.3509
  735POPC   C2B 8818  10.059  21.793  18.219 -0.2272  0.1996  0.2194
  735POPC   C3B 8819  10.232  21.723  17.741  0.1929  0.1604  0.0590
  735POPC   C4B 8820  10.572  21.603  17.491 -0.1113  0.0436  0.2922
  736POPC   NC3 8821   7.593  14.154  19.638 -0.0599  0.2872 -0.1303
  736POPC   PO4 8822   7.547  14.127  19.281  0.1441 -0.3549 -0.3067
  736POPC   GL1 8823   7.596  14.316  18.960  0.3619  0.1809 -0.4061
  736POPC   GL2 8824   7.527  14.142  18.713  0.0764  0.1130  0.0106
  736POPC   C1A 8825   7.397  14.604  18.673 -0.3143  0.0824 -0.2771
  736POPC   D2A 8826   7.124  14.572  18.252  0.1281 -0.0226  0.0983
  736POPC   C3A 8827   6.972  14.860  17.964 -0.1316 -0.2316  0.2377
  736POPC   C4A 8828   7.118  15.171  17.598 -0.3403  0.0759  0.2079
  736POPC   C1B 8829   7.785  13.988  18.359  0.2997 -0.1341  0.0271
  736POPC   C2B 8830   7.958  14.156  17.986 -0.2386 -0.1001 -0.1357
  736POPC   C3B 8831   8.081  14.341  17.570  0.1390  0.0425  0.0562
  736POPC   C4B 8832   8.096  14.414  17.133  0.2755  0.2357 -0.0861
  737POPC   NC3 8833   3.000  16.336  19.257  0.0853 -0.1335 -0.1800
  737POPC   PO4 8834   3.324  16.333  19.478  0.0394 -0.1428 -0.0903
  737POPC   GL1 8835   3.600  16.122  19.306  0.3669  0.1837 -0.2144
  737POPC   GL2 8836   3.777  16.263  19.221 -0.1389 -0.0625 -0.0455
  737POPC   C1A 8837   3.435  15.941  18.917  0.4029 -0.0968 -0.2153
  737POPC   D2A 8838   3.396  16.028  18.454  0.0548  0.1526  0.2533
  737POPC   C3A 8839   3.456  15.665  18.088  0.0722  0.2324 -0.1129
  737POPC   C4A 8840   3.286  15.620  17.671  0.0552  0.0565 -0.0193
  737POPC   C1B 8841   3.752  16.326  18.780 -0.0346 -0.0235 -0.0584
  737POPC   C2B 8842   3.980  16.348  18.423 -0.2326  0.2231  0.1166
  737POPC   C3B 8843   4.277  16.276  18.064 -0.0433  0.1174 -0.0735
  737POPC   C4B 8844   4.563  16.585  17.829  0.1681  0.1191  0.0962
  738POPC   NC3 8845   3.376   6.582  18.962 -0.0835 -0.1502 -0.0092
  738POPC   PO4 8846   3.632   6.338  19.076  0.2290  0.1374 -0.1405
  738POPC   GL1 8847   3.616   6.202  18.721  0.2814 -0.0036  0.5157
  738POPC   GL2 8848   3.817   6.469  18.597  0.0779 -0.1402  0.4265
  738POPC   C1A 8849   3.554   6.244  18.273  0.0602  0.2047 -0.0783
  738POPC   D2A 8850   3.344   6.521  17.994 -0.3000  0.1998  0.0681
  738POPC   C3A 8851   3.013   6.565  17.679  0.0923 -0.1227  0.1007
  738POPC   C4A 8852   2.525   6.647  17.756 -0.1658 -0.2517 -0.0018
  738POPC   C1B 8853   4.047   6.238  18.296  0.0209 -0.0372 -0.0155
  738POPC   C2B 8854   4.117   6.014  17.908  0.4230 -0.2307  0.0963
  738POPC   C3B 8855   4.070   6.100  17.463 -0.0191 -0.3371  0.0368
  738POPC   C4B 8856   4.004   6.121  17.047 -0.0052 -0.1448 -0.2327
  739POPC   NC3 8857   9.025  31.138  19.340 -0.1335 -0.0274  0.0702
  739POPC   PO4 8858   9.288  31.416  19.294  0.0594  0.0259  0.2663
  739POPC   GL1 8859   9.312  31.524  18.905  0.2287  0.0653  0.5082
  739POPC   GL2 8860   9.062  31.310  18.840 -0.1243  0.2773  0.1133
  739POPC   C1A 8861   9.496  31.458  18.486  0.1073  0.2239  0.0166
  739POPC   D2A 8862   9.379  31.630  18.103 -0.2163  0.0887  0.4974
  739POPC   C3A 8863   9.098  31.992  18.032  0.0820  0.2349  0.0869
  739POPC   C4A 8864   9.058  32.397  17.838 -0.1538  0.2499 -0.4517
  739POPC   C1B 8865   9.120  31.182  18.371  0.0734  0.1682 -0.0825
  739POPC   C2B 8866   9.274  31.176  17.949  0.1956 -0.1722  0.1308
  739POPC   C3B 8867   9.493  31.275  17.529  0.3224  0.2059  0.0442
  739POPC   C4B 8868   9.385  31.579  17.226 -0.0092  0.1533  0.0731
  740POPC   NC3 8869   7.137  21.988  18.968  0.2951 -0.1459 -0.0857
  740POPC   PO4 8870   7.467  22.191  19.054  0.0655  0.0859 -0.0477
  740POPC   GL1 8871   7.533  22.136  18.626 -0.3859 -0.0323 -0.0589
  740POPC   GL2 8872   7.547  21.822  18.616  0.1239  0.0968  0.0828
  740POPC   C1A 8873   7.814  22.218  18.267 -0.0795  0.1527  0.1059
  740POPC   D2A 8874   7.859  22.156  17.801 -0.1284 -0.2349 -0.1021
  740POPC   C3A 8875   8.129  22.127  17.441  0.2854 -0.0784  0.0429
  740POPC   C4A 8876   8.422  22.137  17.122  0.1721  0.1509  0.0192
  740POPC   C1B 8877   7.277  21.966  18.294  0.0089  0.1798  0.0685
  740POPC   C2B 8878   6.957  22.188  18.006  0.1001  0.2849  0.2495
  740POPC   C3B 8879   6.983  22.370  17.544  0.3094 -0.3622  0.0223
  740POPC   C4B 8880   6.746  22.385  17.148 -0.0861  0.1917  0.0206
  741POPC   NC3 8881   7.688  20.956  19.514 -0.0467  0.3330 -0.2113
  741POPC   PO4 8882   7.517  21.236  19.317  0.0103  0.0349  0.1489
  741POPC   GL1 8883   7.818  21.227  19.048  0.2883 -0.1403 -0.0197
  741POPC   GL2 8884   7.867  20.921  19.054  0.1922  0.0154 -0.1060
  741POPC   C1A 8885   7.804  21.312  18.553 -0.1878  0.0376 -0.1707
  741POPC   D2A 8886   7.990  21.578  18.262  0.1325  0.1184  0.0036
  741POPC   C3A 8887   7.632  21.763  18.029  0.0201  0.3940 -0.2968
  741POPC   C4A 8888   7.384  21.995  17.741  0.0648 -0.3793 -0.2000
  741POPC   C1B 8889   7.641  20.772  18.611 -0.2027  0.2737  0.1220
  741POPC   C2B 8890   7.742  20.366  18.421 -0.5533  0.0458 -0.1970
  741POPC   C3B 8891   8.040  20.115  18.125  0.3240 -0.1885  0.0427
  741POPC   C4B 8892   8.006  19.721  17.968  0.3556  0.2481 -0.0518
  742POPC   NC3 8893  13.824  28.119  19.282 -0.0141  0.3929 -0.1546
  742POPC   PO4 8894  13.808  27.774  19.466 -0.0843  0.0320  0.2995
  742POPC   GL1 8895  13.964  27.739  19.021  0.2463 -0.0472 -0.4441
  742POPC   GL2 8896  14.263  27.806  18.962 -0.0646  0.2467 -0.2630
  742POPC   C1A 8897  13.903  27.494  18.648  0.3172  0.0807 -0.0297
  742POPC   D2A 8898  13.972  27.094  18.376  0.1797 -0.0703 -0.1196
  742POPC   C3A 8899  13.930  26.778  18.035  0.0936  0.1886  0.2325
  742POPC   C4A 8900  14.201  26.523  17.721  0.3236  0.1418  0.1314
  742POPC   C1B 8901  14.360  27.884  18.484 -0.1031  0.2572  0.2550
  742POPC   C2B 8902  14.620  27.830  18.041 -0.2194  0.1685 -0.0871
  742POPC   C3B 8903  14.812  27.618  17.691  0.0226  0.2683  0.0302
  742POPC   C4B 8904  14.977  27.485  17.323  0.0406 -0.1833  0.1867
  743POPC   NC3 8905   6.545  12.380  19.251 -0.4164  0.0251 -0.1416
  743POPC   PO4 8906   6.341  12.744  19.253  0.0707  0.0772 -0.1604
  743POPC   GL1 8907   6.435  12.697  18.840 -0.0237 -0.0453 -0.1136
  743POPC   GL2 8908   6.731  12.732  18.893  0.4586  0.0399  0.0754
  743POPC   C1A 8909   6.437  12.483  18.434  0.0779 -0.1941  0.1444
  743POPC   D2A 8910   6.389  12.663  18.016  0.1054  0.1816  0.0542
  743POPC   C3A 8911   6.048  12.343  17.917 -0.3822 -0.6244  0.1137
  743POPC   C4A 8912   6.191  11.891  17.972 -0.0145  0.1200  0.2667
  743POPC   C1B 8913   6.577  12.990  18.556  0.0839  0.0258  0.3518
  743POPC   C2B 8914   6.593  13.234  18.135  0.0266 -0.3560 -0.0852
  743POPC   C3B 8915   6.617  13.437  17.712  0.0796 -0.2074  0.2676
  743POPC   C4B 8916   6.913  13.231  17.419  0.2681 -0.0924  0.1102
  744POPC   NC3 8917  13.628  30.433  19.376 -0.2058  0.2234  0.1770
  744POPC   PO4 8918  13.894  30.421  19.120  0.3333 -0.2193  0.1463
  744POPC   GL1 8919  13.871  30.433  18.668 -0.0402  0.3093 -0.1768
  744POPC   GL2 8920  14.057  30.667  18.551  0.0483  0.1109 -0.0767
  744POPC   C1A 8921  14.054  30.207  18.332  0.0792  0.2522  0.2231
  744POPC   D2A 8922  14.189  30.177  17.906  0.1701 -0.1082 -0.1258
  744POPC   C3A 8923  14.177  29.822  17.652  0.4136 -0.0800  0.2068
  744POPC   C4A 8924  14.292  29.519  17.352 -0.1798  0.0330  0.0377
  744POPC   C1B 8925  14.104  30.930  18.202  0.1849  0.2363  0.2977
  744POPC   C2B 8926  13.919  31.078  17.789  0.3575 -0.0945 -0.0837
  744POPC   C3B 8927  13.744  31.296  17.378 -0.0387  0.0693 -0.0314
  744POPC   C4B 8928  13.607  31.651  17.125 -0.0267 -0.3105 -0.1446
  745POPC   NC3 8929  10.907  10.435  19.411  0.1202  0.3235 -0.1350
  745POPC   PO4 8930  10.993  10.016  19.466  0.1087  0.0362  0.4612
  745POPC   GL1 8931  11.010   9.917  19.080 -0.2879 -0.4754 -0.3578
  745POPC   GL2 8932  10.875  10.087  18.972  0.0331  0.1252  0.3246
  745POPC   C1A 8933  11.124   9.593  18.758 -0.2726 -0.3534  0.1031
  745POPC   D2A 8934  11.074   9.312  18.383  0.1656  0.1428 -0.0200
  745POPC   C3A 8935  10.899   9.328  17.948 -0.2239 -0.2344  0.2477
  745POPC   C4A 8936  10.909   9.550  17.562  0.1535  0.1604  0.2034
  745POPC   C1B 8937  10.903  10.016  18.523 -0.3279  0.1902  0.0554
  745POPC   C2B 8938  11.172   9.776  18.154 -0.0403 -0.0340  0.3656
  745POPC   C3B 8939  11.345   9.605  17.737 -0.1687 -0.2040 -0.0437
  745POPC   C4B 8940  11.432   9.519  17.289  0.0009 -0.0117  0.1869
  746POPC   NC3 8941   4.510  14.086  19.203 -0.3476 -0.0847  0.0074
  746POPC   PO4 8942   4.107  13.959  19.172 -0.0171  0.1065 -0.1337
  746POPC   GL1 8943   4.152  13.677  18.850  0.2471 -0.1434 -0.1455
  746POPC   GL2 8944   4.425  13.688  18.877  0.0099  0.2714  0.1101
  746POPC   C1A 8945   4.138  13.396  18.478  0.0338 -0.1324  0.1503
  746POPC   D2A 8946   4.429  13.418  18.105 -0.1327  0.0828  0.3403
  746POPC   C3A 8947   4.799  13.115  17.924  0.2385  0.1886 -0.4006
  746POPC   C4A 8948   5.241  12.949  17.916  0.0699  0.0965 -0.1368
  746POPC   C1B 8949   4.441  13.793  18.421 -0.3059 -0.2471 -0.0538
  746POPC   C2B 8950   4.409  13.924  18.015  0.0525  0.0735  0.2498
  746POPC   C3B 8951   4.324  13.838  17.593 -0.0675 -0.2592  0.1216
  746POPC   C4B 8952   3.972  13.720  17.460 -0.4166  0.0361  0.3063
  747POPC   NC3 8953  10.670   4.544  18.884 -0.1959  0.0683  0.1009
  747POPC   PO4 8954  10.401   4.269  19.019  0.1498 -0.1658  0.1885
  747POPC   GL1 8955  10.576   4.150  18.603 -0.0910 -0.2460 -0.2058
  747POPC   GL2 8956  10.363   4.317  18.539 -0.0688  0.3154  0.5388
  747POPC   C1A 8957  10.887   4.477  18.380  0.1042 -0.1821  0.1325
  747POPC   D2A 8958  11.166   4.491  18.012 -0.1426  0.1230  0.1968
  747POPC   C3A 8959  11.052   4.548  17.590  0.5042  0.1201  0.1222
  747POPC   C4A 8960  10.669   4.510  17.359 -0.0821 -0.3808 -0.0696
  747POPC   C1B 8961  10.466   4.278  18.066  0.0434 -0.2280 -0.2148
  747POPC   C2B 8962  10.800   4.192  17.779 -0.0465  0.1608 -0.2844
  747POPC   C3B 8963  11.077   4.049  17.466  0.1638 -0.0978 -0.1121
  747POPC   C4B 8964  11.287   3.858  17.139 -0.2572 -0.0732 -0.0024
  748POPC   NC3 8965   1.415  15.655  19.837 -0.0465 -0.4104 -0.0036
  748POPC   PO4 8966   1.650  15.874  19.582  0.2276  0.0749  0.0612
  748POPC   GL1 8967   1.635  15.794  19.255  0.0281 -0.0027 -0.4232
  748POPC   GL2 8968   1.681  16.064  19.104 -0.2091 -0.3181  0.2153
  748POPC   C1A 8969   1.274  15.708  18.926 -0.0058 -0.0510 -0.0714
  748POPC   D2A 8970   1.161  15.820  18.531  0.0159  0.0384  0.1662
  748POPC   C3A 8971   0.857  15.996  18.217  0.0556 -0.1066 -0.0266
  748POPC   C4A 8972   0.807  16.204  17.802  0.0704 -0.0572 -0.0158
  748POPC   C1B 8973   1.685  15.869  18.651 -0.0178  0.0214 -0.0521
  748POPC   C2B 8974   1.494  15.588  18.311  0.1625 -0.2861  0.1280
  748POPC   C3B 8975   1.132  15.531  18.096 -0.3623 -0.0935 -0.1056
  748POPC   C4B 8976   0.851  15.709  17.808 -0.0553 -0.1127  0.0382
  749POPC   NC3 8977   7.300  27.562  19.550 -0.0219 -0.0605  0.0895
  749POPC   PO4 8978   6.932  27.315  19.544 -0.1664  0.0942 -0.1571
  749POPC   GL1 8979   6.914  27.327  19.213  0.0999 -0.0189  0.0959
  749POPC   GL2 8980   7.203  27.325  19.120  0.0786 -0.1387  0.1462
  749POPC   C1A 8981   6.649  27.132  18.902  0.0030  0.0943  0.0202
  749POPC   D2A 8982   6.565  27.246  18.500 -0.3972 -0.2704  0.0408
  749POPC   C3A 8983   6.489  27.210  18.056  0.2618  0.1811 -0.2228
  749POPC   C4A 8984   6.461  27.499  17.658  0.0495  0.3010 -0.1356
  749POPC   C1B 8985   6.996  27.475  18.692  0.1559 -0.1052  0.0181
  749POPC   C2B 8986   6.906  27.533  18.253 -0.1642 -0.0083  0.1959
  749POPC   C3B 8987   6.895  27.705  17.792 -0.3583  0.1986  0.2613
  749POPC   C4B 8988   7.013  27.613  17.313  0.2701 -0.0377  0.1057
  750POPC   NC3 8989  11.153  24.191  19.119  0.1762 -0.1215  0.0057
  750POPC   PO4 8990  10.875  23.989  19.343  0.1602  0.1891 -0.0521
  750POPC   GL1 8991  10.793  23.873  18.963 -0.1796 -0.1046 -0.0512
  750POPC   GL2 8992  10.536  24.112  18.945  0.0814  0.0643  0.0596
  750POPC   C1A 8993  10.964  24.049  18.623 -0.1099  0.1072  0.2602
  750POPC   D2A 8994  10.885  24.064  18.216  0.0180  0.0606  0.3401
  750POPC   C3A 8995  11.170  23.948  17.924  0.0545 -0.2227  0.0449
  750POPC   C4A 8996  11.379  23.671  17.634 -0.1754 -0.0642  0.1424
  750POPC   C1B 8997  10.504  23.909  18.497 -0.0460 -0.0219  0.2105
  750POPC   C2B 8998  10.340  23.892  18.141  0.4215 -0.1760  0.1518
  750POPC   C3B 8999  10.267  23.685  17.768 -0.0623 -0.2520 -0.0940
  750POPC   C4B 9000   9.961  23.567  17.475 -0.2229 -0.1545 -0.1290
  751POPC   NC3 9001  11.303  12.788  19.444 -0.1538  0.1770  0.2648
  751POPC   PO4 9002  11.370  12.499  19.637 -0.0394  0.0034 -0.0563
  751POPC   GL1 9003  11.530  12.464  19.161  0.0684  0.2297  0.3925
  751POPC   GL2 9004  11.321  12.511  18.999  0.2851 -0.1224  0.1230
  751POPC   C1A 9005  11.517  12.084  18.860 -0.0329  0.4189 -0.1898
  751POPC   D2A 9006  11.136  11.873  18.669  0.0815 -0.0176  0.0388
  751POPC   C3A 9007  10.938  11.863  18.208  0.1993  0.2872 -0.1148
  751POPC   C4A 9008  11.240  11.897  17.873  0.2682 -0.2959 -0.0794
  751POPC   C1B 9009  11.191  12.357  18.512  0.0370  0.1421 -0.0098
  751POPC   C2B 9010  11.219  12.368  18.045  0.1934 -0.1220  0.1303
  751POPC   C3B 9011  11.071  12.437  17.598  0.1880  0.2282 -0.0204
  751POPC   C4B 9012  10.628  12.645  17.467 -0.3830 -0.1485  0.2089
  752POPC   NC3 9013   4.023  20.940  18.953  0.1189 -0.0788 -0.1143
  752POPC   PO4 9014   4.240  20.588  18.884 -0.2648 -0.0875  0.0376
  752POPC   GL1 9015   4.129  20.590  18.507 -0.2667 -0.2038 -0.0554
  752POPC   GL2 9016   3.819  20.715  18.579  0.1088  0.0428 -0.1678
  752POPC   C1A 9017   4.200  20.859  18.115 -0.0488  0.0855  0.3005
  752POPC   D2A 9018   4.192  20.847  17.631 -0.0001  0.2463 -0.4037
  752POPC   C3A 9019   4.011  21.202  17.404 -0.0684 -0.0814  0.0949
  752POPC   C4A 9020   3.786  21.477  17.055  0.1249 -0.1763  0.0177
  752POPC   C1B 9021   3.745  20.669  18.081  0.0437 -0.1555  0.1531
  752POPC   C2B 9022   3.902  20.427  17.653 -0.0593  0.1154 -0.0944
  752POPC   C3B 9023   4.229  20.489  17.286  0.0164  0.0900  0.0078
  752POPC   C4B 9024   4.228  20.840  16.999 -0.1601  0.3794  0.1722
  753POPC   NC3 9025  10.156  10.593  19.784  0.0369  0.0093 -0.1818
  753POPC   PO4 9026  10.049  10.953  19.714 -0.1030 -0.0276  0.3529
  753POPC   GL1 9027   9.921  11.057  19.353 -0.3718 -0.2761 -0.0919
  753POPC   GL2 9028  10.161  10.974  19.157 -0.3238  0.2148  0.2289
  753POPC   C1A 9029   9.633  11.154  18.995  0.0685 -0.0953 -0.1951
  753POPC   D2A 9030   9.181  11.055  18.885 -0.3527  0.0551  0.1605
  753POPC   C3A 9031   9.103  10.694  18.599  0.0532  0.1741  0.0259
  753POPC   C4A 9032   9.235  10.409  18.250  0.1961 -0.0347 -0.0633
  753POPC   C1B 9033  10.040  10.843  18.727  0.0483  0.0649 -0.1841
  753POPC   C2B 9034  10.081  11.003  18.337  0.1660 -0.0512  0.1767
  753POPC   C3B 9035   9.737  11.131  18.047  0.1755 -0.1921  0.1064
  753POPC   C4B 9036   9.454  11.048  17.696  0.0682 -0.0641  0.1373
  754POPC   NC3 9037  13.637   0.823  19.755  0.2094  0.2129  0.0926
  754POPC   PO4 9038  13.931   0.892  19.500  0.1323 -0.2440  0.3451
  754POPC   GL1 9039  13.808   0.908  19.170  0.4723  0.0402 -0.1345
  754POPC   GL2 9040  13.823   1.113  18.943 -0.0283  0.0134  0.1734
  754POPC   C1A 9041  13.437   0.823  18.869 -0.0382 -0.4076 -0.2729
  754POPC   D2A 9042  12.993   0.710  18.864 -0.1809 -0.1719  0.1213
  754POPC   C3A 9043  12.927   0.800  18.385 -0.0479 -0.0544 -0.2739
  754POPC   C4A 9044  12.844   1.069  18.002  0.0392  0.1390  0.2604
  754POPC   C1B 9045  13.854   1.297  18.548 -0.0367 -0.1083 -0.1726
  754POPC   C2B 9046  13.952   1.111  18.131 -0.1098  0.4675 -0.1621
  754POPC   C3B 9047  13.894   0.755  17.888 -0.0129  0.2917 -0.1160
  754POPC   C4B 9048  14.005   0.674  17.465  0.2181 -0.0724  0.0604
  755POPC   NC3 9049  12.686   5.618  19.572 -0.0480  0.0482 -0.0514
  755POPC   PO4 9050  12.443   5.477  19.319  0.1708  0.2545  0.0701
  755POPC   GL1 9051  12.442   5.591  18.896  0.2277  0.2146  0.1319
  755POPC   GL2 9052  12.663   5.466  18.814 -0.1564  0.2600 -0.0221
  755POPC   C1A 9053  12.519   5.745  18.456  0.1333 -0.1037  0.2608
  755POPC   D2A 9054  12.835   5.837  18.135  0.2934  0.3441  0.0274
  755POPC   C3A 9055  13.217   5.864  17.758  0.1431  0.2798 -0.2406
  755POPC   C4A 9056  13.459   5.856  17.421  0.2137 -0.0923  0.1769
  755POPC   C1B 9057  12.926   5.405  18.489 -0.2059 -0.3351  0.1934
  755POPC   C2B 9058  12.951   5.309  18.055  0.0591  0.3236  0.1118
  755POPC   C3B 9059  13.249   5.038  17.836  0.0379  0.0683 -0.3974
  755POPC   C4B 9060  13.579   4.648  17.663  0.0868 -0.1769 -0.2792
  756POPC   NC3 9061  12.493  11.930  19.379 -0.0994  0.1375  0.1831
  756POPC   PO4 9062  12.245  12.210  19.203  0.1789 -0.1734  0.3046
  756POPC   GL1 9063  11.964  12.247  18.978  0.0684 -0.0376  0.0292
  756POPC   GL2 9064  11.920  12.582  18.920  0.0310  0.0702 -0.1880
  756POPC   C1A 9065  12.033  12.020  18.590  0.0805 -0.0471 -0.0830
  756POPC   D2A 9066  12.076  12.093  18.182  0.3010  0.3067  0.1930
  756POPC   C3A 9067  11.774  12.406  18.013  0.0138 -0.0194  0.1849
  756POPC   C4A 9068  11.954  12.854  18.023 -0.1306  0.0628 -0.2327
  756POPC   C1B 9069  11.747  12.510  18.499  0.2024  0.0156  0.0155
  756POPC   C2B 9070  11.543  12.081  18.350 -0.1105 -0.1431 -0.0812
  756POPC   C3B 9071  11.705  11.903  17.971 -0.1290 -0.3340 -0.2066
  756POPC   C4B 9072  12.053  11.917  17.613  0.0588 -0.1452 -0.1342
  757POPC   NC3 9073   3.699   1.609  19.325 -0.3198 -0.2674  0.3394
  757POPC   PO4 9074   3.342   1.579  19.173  0.2765  0.1928 -0.2135
  757POPC   GL1 9075   2.992   1.578  18.994 -0.1838 -0.2217 -0.3235
  757POPC   GL2 9076   3.068   1.722  18.755  0.1384  0.3164 -0.2817
  757POPC   C1A 9077   2.831   1.264  18.692  0.0930  0.1711  0.1036
  757POPC   D2A 9078   2.881   1.188  18.231  0.0906  0.1410 -0.2795
  757POPC   C3A 9079   2.723   1.324  17.778  0.1565  0.1022 -0.0270
  757POPC   C4A 9080   2.657   1.143  17.349  0.2929 -0.1720  0.2643
  757POPC   C1B 9081   3.083   1.708  18.254 -0.0011  0.3844 -0.0738
  757POPC   C2B 9082   3.156   1.543  17.788 -0.0446  0.1247  0.2081
  757POPC   C3B 9083   3.378   1.844  17.492 -0.0643  0.0631 -0.0755
  757POPC   C4B 9084   3.762   1.965  17.239  0.2409  0.3386  0.2038
  758POPC   NC3 9085  13.961  10.498  19.313  0.1413  0.0693  0.0083
  758POPC   PO4 9086  13.766  10.841  19.306 -0.0581  0.1826  0.1149
  758POPC   GL1 9087  13.777  10.898  18.932 -0.0197  0.2293 -0.0441
  758POPC   GL2 9088  13.662  10.656  18.773  0.1346  0.1028 -0.1179
  758POPC   C1A 9089  13.534  11.093  18.596  0.2413  0.2924  0.0291
  758POPC   D2A 9090  13.747  11.151  18.168 -0.0908  0.0751  0.2086
  758POPC   C3A 9091  13.990  11.213  17.790  0.2217  0.1292 -0.2092
  758POPC   C4A 9092  14.042  11.113  17.307  0.0979  0.0860 -0.5825
  758POPC   C1B 9093  13.644  10.570  18.293 -0.0332  0.1670 -0.0234
  758POPC   C2B 9094  13.692  10.722  17.869 -0.2214 -0.0012  0.3425
  758POPC   C3B 9095  13.480  10.463  17.495 -0.2956  0.1318 -0.3742
  758POPC   C4B 9096  13.294  10.403  17.075 -0.0474  0.0014 -0.3258
  759POPC   NC3 9097   8.623  10.003  19.652 -0.3760 -0.1605 -0.1334
  759POPC   PO4 9098   8.772  10.289  19.415  0.2279  0.1047  0.1526
  759POPC   GL1 9099   8.571  10.206  19.030  0.3952  0.1616  0.0936
  759POPC   GL2 9100   8.758  10.376  18.807 -0.2678 -0.1283 -0.2810
  759POPC   C1A 9101   8.431   9.918  18.633 -0.3071 -0.1028 -0.2534
  759POPC   D2A 9102   8.467   9.521  18.437 -0.0965 -0.1003  0.1919
  759POPC   C3A 9103   8.538   9.522  18.005  0.1976  0.1743  0.1588
  759POPC   C4A 9104   8.582   9.255  17.617 -0.3102 -0.1657 -0.2014
  759POPC   C1B 9105   8.882  10.119  18.470 -0.4198 -0.1457 -0.1524
  759POPC   C2B 9106   8.955   9.968  18.097 -0.0428 -0.2447 -0.0307
  759POPC   C3B 9107   9.176   9.704  17.816  0.0004 -0.5510  0.0776
  759POPC   C4B 9108   9.152   9.352  17.633 -0.0870 -0.2103 -0.1055
  760POPC   NC3 9109  14.388  22.915  19.598 -0.3840 -0.2798 -0.1876
  760POPC   PO4 9110  14.204  23.103  19.346 -0.0687 -0.2074 -0.0237
  760POPC   GL1 9111  14.053  23.074  19.051  0.0800  0.1059 -0.2017
  760POPC   GL2 9112  13.794  23.202  19.100 -0.3733 -0.1098 -0.2214
  760POPC   C1A 9113  14.203  23.190  18.621 -0.1046 -0.0846  0.4099
  760POPC   D2A 9114  14.239  23.610  18.336  0.1697  0.0276  0.0377
  760POPC   C3A 9115  14.059  23.590  17.897 -0.0776 -0.0271 -0.0885
  760POPC   C4A 9116  13.701  23.855  17.677 -0.1164  0.0529  0.0923
  760POPC   C1B 9117  13.636  23.393  18.718 -0.0032 -0.1745  0.2198
  760POPC   C2B 9118  13.539  23.459  18.264  0.2869  0.0735 -0.2571
  760POPC   C3B 9119  13.583  23.277  17.875  0.0119  0.2958 -0.0013
  760POPC   C4B 9120  13.680  23.407  17.440  0.5265 -0.3202 -0.2945
  761POPC   NC3 9121  15.097  31.222  19.036  0.0462  0.1081 -0.4415
  761POPC   PO4 9122  15.241  30.885  19.082 -0.0578  0.0027 -0.0915
  761POPC   GL1 9123  15.151  30.959  18.678  0.1712 -0.1715  0.2169
  761POPC   GL2 9124  14.965  31.138  18.541 -0.2011 -0.2001  0.2983
  761POPC   C1A 9125  15.372  30.992  18.254 -0.2144 -0.0166  0.0900
  761POPC   D2A 9126  15.441  31.138  17.850  0.0100 -0.2572  0.1527
  761POPC   C3A 9127  15.256  31.453  17.572 -0.0077  0.3585  0.0492
  761POPC   C4A 9128  15.011  31.669  17.340  0.0388  0.1198 -0.0044
  761POPC   C1B 9129  14.605  31.180  18.285 -0.4076  0.1196 -0.2109
  761POPC   C2B 9130  14.429  31.127  17.872 -0.1978 -0.0005 -0.2008
  761POPC   C3B 9131  14.319  31.061  17.439 -0.1968 -0.0064  0.1386
  761POPC   C4B 9132  14.114  31.107  17.041 -0.0843 -0.0875  0.1210
  762POPC   NC3 9133   6.845  21.295  18.802 -0.3132 -0.1872 -0.0339
  762POPC   PO4 9134   6.718  21.661  18.871 -0.2238  0.1432 -0.1425
  762POPC   GL1 9135   6.776  21.676  18.475 -0.2633 -0.1562  0.1038
  762POPC   GL2 9136   6.736  21.928  18.419  0.2045 -0.2729  0.1411
  762POPC   C1A 9137   6.980  21.688  18.038  0.2887  0.0546  0.0388
  762POPC   D2A 9138   7.225  21.541  17.689 -0.0167  0.0428 -0.0274
  762POPC   C3A 9139   7.311  21.088  17.559  0.0724 -0.0099 -0.1131
  762POPC   C4A 9140   7.579  20.816  17.659  0.0548  0.3102 -0.0304
  762POPC   C1B 9141   6.519  21.967  18.009 -0.1410 -0.3822  0.1760
  762POPC   C2B 9142   6.466  22.177  17.615 -0.1018 -0.1991 -0.2443
  762POPC   C3B 9143   6.302  22.509  17.306 -0.1272  0.0950 -0.1648
  762POPC   C4B 9144   6.407  22.865  17.022 -0.1570  0.2522 -0.1592
  763POPC   NC3 9145   9.119   9.894  19.302 -0.2336 -0.1988 -0.2188
  763POPC   PO4 9146   9.011   9.575  19.436  0.3190 -0.0243 -0.1046
  763POPC   GL1 9147   9.189   9.410  19.122  0.2515  0.1167  0.0925
  763POPC   GL2 9148   9.455   9.436  19.235 -0.1180  0.0002 -0.0617
  763POPC   C1A 9149   9.281   9.141  18.753 -0.0256  0.0437 -0.0545
  763POPC   D2A 9150   9.295   9.198  18.276  0.2066  0.0883  0.1853
  763POPC   C3A 9151   8.930   8.996  18.020 -0.0415  0.3153  0.1423
  763POPC   C4A 9152   9.033   8.874  17.577  0.1331 -0.2502  0.1705
  763POPC   C1B 9153   9.885   9.526  19.193  0.2056 -0.1764 -0.0458
  763POPC   C2B 9154  10.360   9.403  19.124 -0.3265 -0.1031 -0.0588
  763POPC   C3B 9155  10.588   8.999  19.238 -0.3821 -0.1485  0.3458
  763POPC   C4B 9156  10.791   8.664  18.960 -0.0302 -0.1145 -0.0963
  764POPC   NC3 9157   2.821  21.700  19.366  0.0575 -0.2435  0.1309
  764POPC   PO4 9158   2.607  21.532  19.102 -0.1945 -0.0529  0.0112
  764POPC   GL1 9159   2.721  21.868  18.864  0.0866 -0.5082 -0.0891
  764POPC   GL2 9160   2.939  21.746  18.656 -0.0085 -0.0518  0.0884
  764POPC   C1A 9161   2.747  22.260  18.575  0.0248 -0.0591  0.1118
  764POPC   D2A 9162   2.969  22.525  18.247  0.1898 -0.0333  0.4004
  764POPC   C3A 9163   3.036  22.599  17.789 -0.4021 -0.4022  0.0384
  764POPC   C4A 9164   2.967  22.824  17.423 -0.1227 -0.0135  0.3327
  764POPC   C1B 9165   2.850  21.893  18.228  0.0169  0.0595 -0.2235
  764POPC   C2B 9166   2.804  21.955  17.760  0.0107  0.1433 -0.1826
  764POPC   C3B 9167   3.076  22.141  17.497 -0.1752  0.0854 -0.2060
  764POPC   C4B 9168   3.010  22.409  17.135  0.0700  0.1844  0.0611
  765POPC   NC3 9169   3.350  15.115  18.914  0.4126 -0.1034  0.0252
  765POPC   PO4 9170   3.628  15.036  19.181  0.3044  0.0634  0.0111
  765POPC   GL1 9171   3.761  15.060  18.747 -0.1833  0.0828 -0.0269
  765POPC   GL2 9172   3.913  15.279  18.834 -0.0922 -0.3627 -0.2263
  765POPC   C1A 9173   3.918  14.962  18.294 -0.4531 -0.0947  0.1390
  765POPC   D2A 9174   4.035  14.813  17.856  0.1012  0.3203 -0.0427
  765POPC   C3A 9175   3.684  14.959  17.595 -0.1395  0.1367  0.0251
  765POPC   C4A 9176   3.424  14.810  17.304  0.1082 -0.0997 -0.1137
  765POPC   C1B 9177   4.032  15.386  18.400 -0.0543 -0.0868  0.3809
  765POPC   C2B 9178   4.242  15.273  17.973  0.1205 -0.1220 -0.1846
  765POPC   C3B 9179   4.587  15.390  17.672 -0.3115 -0.2721 -0.0141
  765POPC   C4B 9180   4.920  15.610  17.380 -0.2988  0.0694 -0.1283
  766POPC   NC3 9181   2.627  15.328  19.148 -0.2311  0.0560 -0.3453
  766POPC   PO4 9182   2.797  14.947  19.137  0.0450 -0.2060 -0.3002
  766POPC   GL1 9183   2.811  15.074  18.768  0.0630  0.1832 -0.1200
  766POPC   GL2 9184   2.902  15.348  18.671 -0.2336  0.1296 -0.2239
  766POPC   C1A 9185   2.546  15.092  18.388 -0.0484 -0.0950 -0.1752
  766POPC   D2A 9186   2.205  14.941  18.131  0.1535  0.0427 -0.0815
  766POPC   C3A 9187   2.356  14.727  17.755 -0.0164 -0.0227  0.1890
  766POPC   C4A 9188   2.563  14.510  17.431  0.0711 -0.0219 -0.1503
  766POPC   C1B 9189   3.018  15.682  18.382  0.3824 -0.0348 -0.1051
  766POPC   C2B 9190   3.000  15.907  17.982 -0.3004  0.3315  0.0605
  766POPC   C3B 9191   3.091  16.084  17.584 -0.1344  0.0164 -0.1179
  766POPC   C4B 9192   3.468  16.083  17.272  0.2180 -0.1291  0.0608
  767POPC   NC3 9193   2.064  24.736  19.365 -0.0468 -0.0925 -0.1396
  767POPC   PO4 9194   1.792  24.500  19.416  0.0950  0.0183  0.1360
  767POPC   GL1 9195   1.716  24.512  18.944 -0.2112 -0.0359  0.0954
  767POPC   GL2 9196   1.895  24.699  18.803 -0.1646  0.0977 -0.0132
  767POPC   C1A 9197   1.485  24.256  18.674 -0.2050  0.2393 -0.2012
  767POPC   D2A 9198   1.273  23.882  18.492 -0.0631  0.2010 -0.0875
  767POPC   C3A 9199   1.170  23.905  18.047  0.0605 -0.0884 -0.3787
  767POPC   C4A 9200   1.112  23.978  17.634  0.0441  0.1223 -0.0679
  767POPC   C1B 9201   1.938  24.345  18.477 -0.0524 -0.2930 -0.1288
  767POPC   C2B 9202   2.133  24.287  18.078  0.2069  0.0359 -0.1543
  767POPC   C3B 9203   2.025  24.338  17.616 -0.0779 -0.0876  0.0867
  767POPC   C4B 9204   2.216  24.336  17.253  0.0578  0.0264  0.2193
  768POPC   NC3 9205   8.997   3.996  19.326  0.1295  0.2492 -0.1271
  768POPC   PO4 9206   8.785   3.708  19.514  0.3296 -0.2578  0.0547
  768POPC   GL1 9207   8.959   3.507  19.255  0.1539 -0.3698 -0.1150
  768POPC   GL2 9208   9.224   3.278  19.142 -0.0322  0.1699 -0.0050
  768POPC   C1A 9209   9.002   3.579  18.799  0.1746 -0.0622  0.0275
  768POPC   D2A 9210   8.941   3.482  18.339  0.1890 -0.2449 -0.0621
  768POPC   C3A 9211   8.734   3.124  18.213 -0.1786  0.0678 -0.2793
  768POPC   C4A 9212   8.708   2.676  18.166 -0.3352 -0.0258  0.4463
  768POPC   C1B 9213   9.181   3.077  18.784 -0.0784 -0.2317 -0.1333
  768POPC   C2B 9214   9.288   2.831  18.359 -0.1926  0.1261 -0.1545
  768POPC   C3B 9215   9.727   2.808  18.125  0.1221  0.1518  0.0361
  768POPC   C4B 9216   9.781   2.884  17.669 -0.0586  0.0788 -0.2263
  769POPC   NC3 9217   2.518  24.119  19.901  0.0796 -0.0175  0.1434
  769POPC   PO4 9218   2.729  23.938  19.658  0.2177  0.2806 -0.0851
  769POPC   GL1 9219   2.672  23.887  19.226  0.0470 -0.2058 -0.0794
  769POPC   GL2 9220   2.423  23.754  19.250  0.3328 -0.1304 -0.0460
  769POPC   C1A 9221   2.459  23.938  18.791  0.0507  0.2836  0.2314
  769POPC   D2A 9222   2.330  23.908  18.324  0.1102 -0.0999  0.3505
  769POPC   C3A 9223   2.687  23.839  18.065 -0.2084  0.1118  0.1305
  769POPC   C4A 9224   2.889  23.892  17.641 -0.0604  0.0847 -0.2881
  769POPC   C1B 9225   2.668  23.475  18.962 -0.0788  0.3433 -0.1346
  769POPC   C2B 9226   2.743  23.437  18.508 -0.0140  0.1393 -0.1359
  769POPC   C3B 9227   2.828  23.357  18.078  0.1267 -0.1918  0.1332
  769POPC   C4B 9228   2.947  23.341  17.612 -0.1836 -0.0524 -0.0576
  770POPC   NC3 9229  11.754  31.386  19.691  0.1989 -0.1586 -0.2127
  770POPC   PO4 9230  11.700  31.277  19.331  0.3062 -0.2601  0.0468
  770POPC   GL1 9231  11.612  31.433  18.946 -0.3436  0.0411  0.1861
  770POPC   GL2 9232  11.875  31.626  18.959  0.1268  0.0696  0.2059
  770POPC   C1A 9233  11.614  31.348  18.487  0.3374 -0.0350 -0.3466
  770POPC   D2A 9234  11.710  31.505  18.085  0.0972  0.1488 -0.0260
  770POPC   C3A 9235  12.038  31.709  17.805 -0.1983  0.3482  0.0966
  770POPC   C4A 9236  12.277  31.720  17.399  0.2954 -0.0496  0.0108
  770POPC   C1B 9237  12.032  31.721  18.586  0.4105  0.2169  0.2761
  770POPC   C2B 9238  12.363  31.833  18.247  0.0242  0.3814  0.0859
  770POPC   C3B 9239  12.487  32.003  17.815 -0.1033  0.1986 -0.0018
  770POPC   C4B 9240  12.763  32.093  17.438  0.1536 -0.0952 -0.1837
  771POPC   NC3 9241   2.626   6.930  19.515  0.1418  0.1241 -0.0472
  771POPC   PO4 9242   2.928   6.732  19.337 -0.0691  0.5418 -0.1043
  771POPC   GL1 9243   2.718   6.900  19.010 -0.1047  0.0558 -0.4098
  771POPC   GL2 9244   2.915   6.913  18.815 -0.2315  0.0084 -0.1210
  771POPC   C1A 9245   2.411   6.659  18.647 -0.1465  0.0849  0.0494
  771POPC   D2A 9246   2.319   6.656  18.192 -0.0448 -0.1782  0.0635
  771POPC   C3A 9247   2.308   6.205  17.980  0.0109  0.3520  0.1300
  771POPC   C4A 9248   2.149   5.763  17.819  0.1504  0.0338  0.1672
  771POPC   C1B 9249   3.195   6.853  18.429 -0.1528  0.0742  0.1400
  771POPC   C2B 9250   3.190   7.066  17.998  0.1005  0.1248  0.1406
  771POPC   C3B 9251   3.238   7.145  17.548  0.0453  0.1996 -0.2726
  771POPC   C4B 9252   3.695   7.044  17.419 -0.1864  0.0596 -0.0824
  772POPS   CNO 9253  13.016  22.670  19.113 -0.0476 -0.0146 -0.2628
  772POPS   PO4 9254  12.861  22.921  19.387 -0.0176  0.1501  0.1286
  772POPS   GL1 9255  12.935  23.200  19.075  0.0505  0.0210 -0.0994
  772POPS   GL2 9256  13.254  23.232  19.072  0.0327  0.2557  0.0599
  772POPS   C1A 9257  12.740  23.290  18.678 -0.0292  0.1307  0.5072
  772POPS   D2A 9258  12.410  23.337  18.346  0.0640 -0.1730  0.1402
  772POPS   C3A 9259  12.558  23.209  17.973  0.0441 -0.1325  0.3039
  772POPS   C4A 9260  12.651  23.287  17.499  0.0299  0.0950  0.2664
  772POPS   C1B 9261  13.259  23.030  18.679  0.0136 -0.0668 -0.0688
  772POPS   C2B 9262  13.449  22.901  18.268  0.2329  0.1790  0.0482
  772POPS   C3B 9263  13.715  22.769  17.899  0.1340 -0.0320 -0.3627
  772POPS   C4B 9264  13.936  23.001  17.605  0.2981  0.2807  0.3042
  773POPS   CNO 9265   2.731  30.920  19.146  0.1052  0.2339 -0.3664
  773POPS   PO4 9266   2.568  31.243  19.081 -0.1493  0.3061  0.0128
  773POPS   GL1 9267   2.412  31.009  18.788  0.0285 -0.2156 -0.2383
  773POPS   GL2 9268   2.608  30.938  18.646 -0.2171 -0.0776 -0.2198
  773POPS   C1A 9269   2.040  30.786  18.774 -0.3740 -0.2885  0.3340
  773POPS   D2A 9270   1.810  30.396  18.709 -0.1601 -0.1021 -0.0736
  773POPS   C3A 9271   1.926  30.254  18.276  0.0588  0.0298  0.2312
  773POPS   C4A 9272   1.842  30.128  17.856 -0.0156 -0.0431  0.1966
  773POPS   C1B 9273   2.403  30.708  18.276 -0.0563 -0.0028  0.1005
  773POPS   C2B 9274   2.164  30.910  17.913 -0.0118 -0.2592  0.2574
  773POPS   C3B 9275   2.056  31.242  17.602  0.2708  0.2226 -0.5481
  773POPS   C4B 9276   1.670  31.374  17.399 -0.1513  0.0545  0.0350
  774POPS   CNO 9277   8.384  13.223  19.680  0.0305 -0.0856  0.0982
  774POPS   PO4 9278   8.451  13.031  19.357  0.2198 -0.1734  0.0496
  774POPS   GL1 9279   8.319  13.045  18.994  0.0233 -0.0176  0.4918
  774POPS   GL2 9280   8.104  13.188  18.803  0.3099  0.0322 -0.0209
  774POPS   C1A 9281   8.442  12.931  18.589  0.0488 -0.0511  0.4044
  774POPS   D2A 9282   8.590  12.945  18.114 -0.1371  0.1734 -0.1266
  774POPS   C3A 9283   8.497  12.912  17.706 -0.4278  0.0912  0.2280
  774POPS   C4A 9284   8.546  12.689  17.308 -0.1746 -0.1525 -0.1535
  774POPS   C1B 9285   8.018  13.114  18.328 -0.0789  0.0110 -0.0656
  774POPS   C2B 9286   8.068  13.152  17.851 -0.1226 -0.2219 -0.0633
  774POPS   C3B 9287   8.036  13.435  17.432 -0.1553  0.2048  0.1181
  774POPS   C4B 9288   7.728  13.511  17.187 -0.1472  0.2786 -0.0319
  775POPS   CNO 9289   9.104  28.420  19.438 -0.0016 -0.1495 -0.0070
  775POPS   PO4 9290   9.282  28.753  19.318  0.0333 -0.0767 -0.0575
  775POPS   GL1 9291   9.204  28.766  18.959 -0.1190  0.2748  0.2783
  775POPS   GL2 9292   9.219  29.006  18.824  0.1494 -0.1513  0.1637
  775POPS   C1A 9293   8.910  28.555  18.604  0.1343  0.1416 -0.3471
  775POPS   D2A 9294   8.934  28.121  18.574 -0.2400 -0.2289 -0.1255
  775POPS   C3A 9295   8.626  28.087  18.242 -0.2566  0.3237  0.1039
  775POPS   C4A 9296   8.690  28.179  17.765  0.2947 -0.0657 -0.0125
  775POPS   C1B 9297   9.130  28.920  18.403 -0.2045 -0.2871  0.0510
  775POPS   C2B 9298   9.158  29.053  17.965 -0.0058  0.3710  0.3430
  775POPS   C3B 9299   9.276  29.302  17.517 -0.0481  0.1457 -0.0422
  775POPS   C4B 9300   9.254  29.585  17.177  0.2777 -0.0321 -0.0725
  776POPS   CNO 9301   4.727   8.080  19.341 -0.1438 -0.2582 -0.0440
  776POPS   PO4 9302   4.686   8.462  19.243 -0.1898  0.1105  0.0027
  776POPS   GL1 9303   4.464   8.522  18.897  0.0450  0.3093 -0.7001
  776POPS   GL2 9304   4.234   8.356  19.031 -0.1942 -0.1179 -0.1350
  776POPS   C1A 9305   4.414   8.264  18.509 -0.3945  0.0502  0.3092
  776POPS   D2A 9306   4.278   8.026  18.149 -0.1819 -0.2892  0.3048
  776POPS   C3A 9307   4.560   7.988  17.772 -0.1216 -0.1088 -0.0398
  776POPS   C4A 9308   4.497   7.788  17.371 -0.0893  0.2148  0.0464
  776POPS   C1B 9309   3.989   8.485  18.648  0.0345 -0.4954  0.3936
  776POPS   C2B 9310   3.992   8.454  18.226 -0.2633 -0.2435  0.1097
  776POPS   C3B 9311   4.154   8.419  17.805 -0.3635  0.1233  0.0611
  776POPS   C4B 9312   4.127   8.194  17.357  0.0832 -0.0222  0.2688
  777POPS   CNO 9313   2.248  26.138  19.308  0.1316  0.1829  0.0138
  777POPS   PO4 9314   1.992  25.924  19.093 -0.0603 -0.0604 -0.0356
  777POPS   GL1 9315   2.090  26.113  18.749 -0.2487 -0.4071  0.2255
  777POPS   GL2 9316   2.219  25.861  18.610 -0.0824  0.1588 -0.1996
  777POPS   C1A 9317   1.910  26.417  18.473 -0.0703 -0.3566  0.0992
  777POPS   D2A 9318   1.774  26.643  18.089 -0.0597  0.1971 -0.1679
  777POPS   C3A 9319   1.801  26.324  17.731 -0.1530 -0.1445 -0.3014
  777POPS   C4A 9320   1.483  26.018  17.553  0.1277 -0.1585  0.3819
  777POPS   C1B 9321   2.201  26.063  18.183 -0.1928 -0.2662 -0.1157
  777POPS   C2B 9322   2.247  26.140  17.729  0.0904 -0.0073  0.1197
  777POPS   C3B 9323   2.168  26.353  17.330 -0.3300  0.0613 -0.0867
  777POPS   C4B 9324   2.180  26.780  17.151  0.2198  0.2438 -0.1069
  778POPS   CNO 9325  11.762  28.092  19.579 -0.0414 -0.0322  0.2397
  778POPS   PO4 9326  11.564  28.005  19.262  0.1489  0.0735  0.3869
  778POPS   GL1 9327  11.559  27.843  19.016  0.0875  0.4759  0.3152
  778POPS   GL2 9328  11.563  27.492  19.088 -0.1029 -0.1912 -0.2433
  778POPS   C1A 9329  11.375  27.892  18.576 -0.1059 -0.0771  0.1195
  778POPS   D2A 9330  11.145  28.120  18.246  0.1265 -0.3325  0.1607
  778POPS   C3A 9331  10.964  27.954  17.829 -0.2448 -0.3259  0.1210
  778POPS   C4A 9332  11.073  27.604  17.595 -0.1250 -0.1257 -0.2653
  778POPS   C1B 9333  11.784  27.637  18.720 -0.1760 -0.2813  0.2835
  778POPS   C2B 9334  11.912  27.721  18.281 -0.2984 -0.0009 -0.2522
  778POPS   C3B 9335  11.895  27.881  17.845  0.0140 -0.3056 -0.1438
  778POPS   C4B 9336  12.044  27.789  17.410 -0.1417  0.3314  0.0058
  779POPS   CNO 9337  11.160   8.355  19.784 -0.0901 -0.1027 -0.1484
  779POPS   PO4 9338  11.490   8.454  19.704  0.1665  0.2434 -0.0990
  779POPS   GL1 9339  11.422   8.480  19.329 -0.2521  0.3564  0.2904
  779POPS   GL2 9340  11.109   8.583  19.306 -0.3841 -0.2309  0.0619
  779POPS   C1A 9341  11.296   8.477  18.871 -0.0894  0.0444  0.1226
  779POPS   D2A 9342  10.957   8.426  18.538 -0.0031 -0.0997 -0.1223
  779POPS   C3A 9343  10.572   8.176  18.478  0.0440 -0.1688 -0.0134
  779POPS   C4A 9344  10.193   8.035  18.569 -0.0621 -0.1021  0.1096
  779POPS   C1B 9345  10.730   8.348  19.350  0.0773 -0.2203  0.0557
  779POPS   C2B 9346  10.378   8.410  19.046  0.1181  0.4146 -0.1236
  779POPS   C3B 9347  10.348   8.624  18.603 -0.0583 -0.1595 -0.0799
  779POPS   C4B 9348  10.140   8.833  18.305 -0.0538 -0.1000 -0.3549
  780POPS   CNO 9349   3.523   7.992  19.489  0.1209  0.1130 -0.0507
  780POPS   PO4 9350   3.768   8.077  19.249 -0.4124  0.1272  0.2683
  780POPS   GL1 9351   3.674   8.143  18.747 -0.0280 -0.3510 -0.0147
  780POPS   GL2 9352   3.512   7.893  18.741 -0.2995  0.1830  0.2110
  780POPS   C1A 9353   3.631   8.132  18.296  0.0669 -0.1610  0.0174
  780POPS   D2A 9354   3.778   8.138  17.839 -0.1597 -0.2635 -0.2012
  780POPS   C3A 9355   4.064   7.823  17.710  0.1480  0.1873 -0.0392
  780POPS   C4A 9356   4.160   7.385  17.453 -0.3259  0.0971 -0.2262
  780POPS   C1B 9357   3.227   7.778  18.336  0.2870 -0.1461 -0.0694
  780POPS   C2B 9358   2.988   7.609  17.927  0.1471  0.0532  0.0675
  780POPS   C3B 9359   2.786   7.366  17.565  0.0620 -0.1368 -0.2323
  780POPS   C4B 9360   2.705   6.929  17.377 -0.2269 -0.1475 -0.0564
  781POPS   CNO 9361  15.057  14.402  19.168 -0.0669  0.1654 -0.0108
  781POPS   PO4 9362  15.350  14.598  19.051  0.1027  0.0594  0.4511
  781POPS   GL1 9363  15.213  14.344  18.684 -0.2512 -0.2456 -0.2684
  781POPS   GL2 9364  14.967  14.391  18.600 -0.2968  0.1882 -0.2021
  781POPS   C1A 9365  15.244  14.275  18.193 -0.2943  0.1906 -0.2765
  781POPS   D2A 9366  15.087  14.297  17.781 -0.2849 -0.0331 -0.0346
  781POPS   C3A 9367  14.756  13.955  17.746  0.2018  0.0450  0.1409
  781POPS   C4A 9368  14.553  13.724  17.356  0.1487  0.1148  0.1110
  781POPS   C1B 9369  14.790  14.535  18.242 -0.3506 -0.2166  0.0624
  781POPS   C2B 9370  14.611  14.565  17.848 -0.0455 -0.0992 -0.0005
  781POPS   C3B 9371  14.509  14.558  17.390 -0.1976  0.2992  0.0031
  781POPS   C4B 9372  14.598  14.533  16.925  0.0874  0.1871 -0.0898
  782POPS   CNO 9373   1.576   9.145  19.486  0.2093  0.1621  0.0652
  782POPS   PO4 9374   1.805   8.874  19.277 -0.0854 -0.0355 -0.1223
  782POPS   GL1 9375   1.857   8.809  18.919 -0.0584  0.1619  0.0600
  782POPS   GL2 9376   1.862   8.575  18.810  0.1105 -0.0548 -0.1555
  782POPS   C1A 9377   1.978   9.105  18.594  0.2843 -0.2316  0.1534
  782POPS   D2A 9378   1.983   9.110  18.128 -0.0756 -0.1200 -0.0286
  782POPS   C3A 9379   1.927   9.031  17.706 -0.0277 -0.1933 -0.0687
  782POPS   C4A 9380   1.992   8.953  17.270  0.2022 -0.2779  0.2214
  782POPS   C1B 9381   1.579   8.562  18.447 -0.0109 -0.0600 -0.0833
  782POPS   C2B 9382   1.471   8.373  18.050  0.1374  0.1879  0.2525
  782POPS   C3B 9383   1.451   8.125  17.685 -0.1290 -0.0010  0.3490
  782POPS   C4B 9384   1.212   7.865  17.334  0.5118  0.1625 -0.2823
  783POPS   CNO 9385  14.694  10.671  19.088  0.2555 -0.2737 -0.1241
  783POPS   PO4 9386  14.460  10.459  19.236 -0.2491  0.1145 -0.1016
  783POPS   GL1 9387  14.712  10.265  18.901  0.2601  0.0557  0.0203
  783POPS   GL2 9388  14.555  10.188  18.684  0.2061 -0.4653 -0.1396
  783POPS   C1A 9389  14.928  10.445  18.514 -0.0084  0.2388 -0.1525
  783POPS   D2A 9390  15.036  10.395  18.101 -0.2378  0.1125  0.2146
  783POPS   C3A 9391  15.338  10.609  17.848 -0.3671  0.1225  0.0165
  783POPS   C4A 9392  15.543  10.673  17.462  0.0660  0.1000 -0.3715
  783POPS   C1B 9393  14.424  10.283  18.272  0.1225 -0.0087 -0.0835
  783POPS   C2B 9394  14.309  10.002  17.894 -0.1209 -0.0524  0.2407
  783POPS   C3B 9395  13.926   9.705  17.885 -0.0660  0.1500  0.3130
  783POPS   C4B 9396  13.570   9.765  18.186  0.2697  0.4335 -0.0617
  784POPS   CNO 9397   8.619  15.647  19.660  0.0555 -0.0337 -0.0110
  784POPS   PO4 9398   8.517  15.428  19.347 -0.0914  0.0443 -0.0384
  784POPS   GL1 9399   8.658  15.596  19.008  0.0865  0.0685  0.1766
  784POPS   GL2 9400   8.652  15.870  19.062 -0.1189  0.0908 -0.1283
  784POPS   C1A 9401   8.564  15.423  18.600 -0.1718  0.1871  0.1534
  784POPS   D2A 9402   8.384  15.161  18.242 -0.3484 -0.0007 -0.0907
  784POPS   C3A 9403   8.499  15.155  17.793 -0.3786 -0.3478  0.1454
  784POPS   C4A 9404   8.722  15.097  17.352  0.0590  0.3273 -0.3393
  784POPS   C1B 9405   8.633  15.993  18.605  0.0630 -0.1639  0.1262
  784POPS   C2B 9406   8.672  15.848  18.179 -0.1859  0.2397 -0.0377
  784POPS   C3B 9407   8.662  16.027  17.713 -0.4769  0.2339 -0.0298
  784POPS   C4B 9408   8.541  16.022  17.274  0.2237 -0.3601  0.0733
  785POPS   CNO 9409   0.308   4.240  19.673  0.1341 -0.2253 -0.0006
  785POPS   PO4 9410   0.149   4.096  19.375  0.1251 -0.2572 -0.0220
  785POPS   GL1 9411   0.143   4.166  19.044  0.1606  0.0328  0.2417
  785POPS   GL2 9412   0.077   3.986  18.861 -0.0542  0.0037  0.0673
  785POPS   C1A 9413   0.241   4.498  18.712 -0.1777  0.1063  0.0087
  785POPS   D2A 9414   0.379   4.596  18.295 -0.1963  0.0817 -0.1330
  785POPS   C3A 9415   0.247   4.421  17.899 -0.0199 -0.0066  0.0892
  785POPS   C4A 9416   0.380   4.310  17.473 -0.0745  0.0936 -0.1235
  785POPS   C1B 9417  -0.061   3.952  18.417  0.1347  0.1445 -0.1510
  785POPS   C2B 9418  -0.211   4.190  18.083 -0.1108  0.2360 -0.1440
  785POPS   C3B 9419  -0.381   4.447  17.719 -0.2617 -0.1260 -0.0334
  785POPS   C4B 9420  -0.466   4.866  17.595  0.0365 -0.1511  0.0594
  786POPS   CNO 9421   6.311  26.772  19.709  0.0124 -0.2568  0.4214
  786POPS   PO4 9422   6.136  26.467  19.563  0.1259 -0.1319 -0.2693
  786POPS   GL1 9423   6.317  26.338  19.282 -0.0065  0.0277 -0.0944
  786POPS   GL2 9424   6.162  26.387  19.031  0.1929 -0.1024 -0.0717
  786POPS   C1A 9425   6.587  26.527  18.912 -0.0903 -0.0351 -0.0080
  786POPS   D2A 9426   6.686  26.815  18.556 -0.3535 -0.0769  0.1321
  786POPS   C3A 9427   6.634  26.685  18.097  0.2051 -0.1928  0.1142
  786POPS   C4A 9428   6.644  26.912  17.713 -0.0896  0.1342 -0.1246
  786POPS   C1B 9429   6.243  26.535  18.591 -0.0958  0.0972  0.2007
  786POPS   C2B 9430   6.162  26.556  18.110  0.1521  0.0689  0.1633
  786POPS   C3B 9431   6.202  26.605  17.670 -0.0765 -0.0311  0.2606
  786POPS   C4B 9432   6.438  26.497  17.260  0.0949  0.1732 -0.0574
  787POPS   CNO 9433   2.277  23.023  19.188  0.2214 -0.1863 -0.1426
  787POPS   PO4 9434   2.604  22.872  19.138 -0.2630  0.4134  0.1474
  787POPS   GL1 9435   2.451  22.770  18.765 -0.0628 -0.1073  0.2205
  787POPS   GL2 9436   2.164  22.636  18.797  0.1812 -0.0628 -0.0728
  787POPS   C1A 9437   2.433  22.575  18.309  0.0254  0.3350 -0.0798
  787POPS   D2A 9438   2.647  22.377  17.932 -0.1718 -0.1725 -0.1199
  787POPS   C3A 9439   2.540  22.420  17.482 -0.1890  0.2303 -0.0284
  787POPS   C4A 9440   2.556  22.266  17.035  0.3390  0.1691 -0.0440
  787POPS   C1B 9441   2.022  22.835  18.396  0.0284 -0.0475  0.1156
  787POPS   C2B 9442   2.058  22.918  17.956 -0.1335  0.1014 -0.1059
  787POPS   C3B 9443   2.076  22.808  17.508 -0.2531 -0.2103  0.1624
  787POPS   C4B 9444   1.928  22.606  17.119 -0.2790  0.1403  0.1251
  788POPS   CNO 9445  11.996  28.452  19.227 -0.1430 -0.3751  0.0090
  788POPS   PO4 9446  11.616  28.565  19.354  0.1144  0.1241  0.1234
  788POPS   GL1 9447  11.523  28.380  19.019  0.1227  0.1118  0.4209
  788POPS   GL2 9448  11.705  28.235  18.836  0.0713  0.1803  0.1124
  788POPS   C1A 9449  11.237  28.358  18.649 -0.2931 -0.1322  0.1330
  788POPS   D2A 9450  10.891  28.548  18.446  0.0844  0.2551  0.0560
  788POPS   C3A 9451  10.697  28.924  18.579  0.2014 -0.1157  0.0416
  788POPS   C4A 9452  10.681  29.038  19.013  0.0108 -0.1455  0.3173
  788POPS   C1B 9453  11.631  28.241  18.376 -0.1674  0.5708 -0.0706
  788POPS   C2B 9454  11.549  28.326  17.879 -0.4614 -0.0595  0.0442
  788POPS   C3B 9455  11.206  28.318  17.555 -0.1061 -0.0495 -0.1923
  788POPS   C4B 9456  11.043  28.674  17.364 -0.1252  0.2205 -0.2634
  789POPS   CNO 9457   3.524  13.239  19.208 -0.3413  0.1325 -0.0940
  789POPS   PO4 9458   3.690  12.906  19.175  0.0882  0.0395 -0.0048
  789POPS   GL1 9459   3.395  12.879  18.892  0.3250 -0.0493 -0.2968
  789POPS   GL2 9460   3.594  12.865  18.722 -0.1926 -0.0220 -0.0462
  789POPS   C1A 9461   3.244  12.496  18.659 -0.3133  0.1354  0.0933
  789POPS   D2A 9462   3.325  12.020  18.546  0.0834  0.1803 -0.1194
  789POPS   C3A 9463   3.529  12.068  18.133 -0.0442  0.0455 -0.2566
  789POPS   C4A 9464   3.771  12.156  17.763 -0.0864  0.2048  0.0304
  789POPS   C1B 9465   3.813  12.939  18.320 -0.1009 -0.0533  0.2541
  789POPS   C2B 9466   4.035  13.108  17.965 -0.1233 -0.2157 -0.1887
  789POPS   C3B 9467   4.298  13.306  17.652  0.4822  0.0247 -0.0633
  789POPS   C4B 9468   4.675  13.537  17.741 -0.2928  0.1278  0.0803
  790POPS   CNO 9469  13.835  28.714  19.561 -0.2916 -0.1270  0.0469
  790POPS   PO4 9470  13.884  28.598  19.232  0.0005 -0.2193 -0.0437
  790POPS   GL1 9471  13.712  28.703  18.915  0.0056 -0.1667  0.4513
  790POPS   GL2 9472  13.764  28.977  18.821  0.0792  0.0597 -0.2179
  790POPS   C1A 9473  13.688  28.604  18.468  0.1260 -0.2958 -0.3437
  790POPS   D2A 9474  13.431  28.617  18.076 -0.1117 -0.2545 -0.1355
  790POPS   C3A 9475  13.186  28.239  17.931  0.0300  0.1133  0.1347
  790POPS   C4A 9476  13.031  27.895  17.647  0.0456 -0.1014  0.1200
  790POPS   C1B 9477  13.830  29.262  18.467 -0.3307 -0.0962 -0.2883
  790POPS   C2B 9478  13.954  29.491  18.071  0.0055 -0.1338 -0.1457
  790POPS   C3B 9479  13.790  29.520  17.669 -0.0937  0.3116 -0.0162
  790POPS   C4B 9480  13.845  29.714  17.233 -0.1381 -0.0879 -0.0414
  791POPS   CNO 9481   9.946  30.228  19.648  0.0878  0.1191  0.0312
  791POPS   PO4 9482  10.097  30.070  19.360  0.1073  0.0528 -0.0083
  791POPS   GL1 9483   9.982  30.057  19.015 -0.3612  0.0059  0.1125
  791POPS   GL2 9484  10.037  30.208  18.781 -0.1622 -0.0386 -0.1965
  791POPS   C1A 9485   9.686  29.851  18.716  0.2215  0.0749 -0.3059
  791POPS   D2A 9486   9.268  29.645  18.612 -0.0376 -0.1236  0.3066
  791POPS   C3A 9487   9.277  29.678  18.161  0.0529 -0.0030 -0.1596
  791POPS   C4A 9488   9.280  29.742  17.691 -0.1714 -0.1922  0.2054
  791POPS   C1B 9489   9.933  30.140  18.348 -0.0504  0.0139 -0.1367
  791POPS   C2B 9490  10.131  30.208  17.899 -0.0119  0.2632  0.0660
  791POPS   C3B 9491  10.459  30.274  17.549  0.0390 -0.1171  0.1335
  791POPS   C4B 9492  10.810  30.552  17.496 -0.1052  0.2269 -0.0052
  792POPS   CNO 9493   2.067  17.841  19.649  0.0510  0.0398 -0.0464
  792POPS   PO4 9494   2.418  17.849  19.506  0.0093  0.1230 -0.2295
  792POPS   GL1 9495   2.503  17.877  19.150 -0.0475 -0.2729 -0.4714
  792POPS   GL2 9496   2.489  17.636  18.964 -0.0714  0.1685  0.2327
  792POPS   C1A 9497   2.292  18.058  18.755 -0.1586  0.1607 -0.0777
  792POPS   D2A 9498   1.974  18.386  18.684  0.0024  0.1809  0.2538
  792POPS   C3A 9499   1.964  18.304  18.229  0.0028  0.0313 -0.2935
  792POPS   C4A 9500   2.002  18.480  17.830 -0.1119 -0.0797  0.1308
  792POPS   C1B 9501   2.329  17.425  18.571 -0.2088  0.1033 -0.3887
  792POPS   C2B 9502   2.585  17.206  18.164  0.0264  0.1671  0.1056
  792POPS   C3B 9503   2.542  17.023  17.734 -0.1121 -0.3383 -0.2413
  792POPS   C4B 9504   2.773  17.075  17.271 -0.1006  0.0549 -0.0323
  793POPS   CNO 9505   3.450   5.398  19.264 -0.0676 -0.2125 -0.0196
  793POPS   PO4 9506   3.778   5.184  19.256  0.2474 -0.4636 -0.1528
  793POPS   GL1 9507   3.603   5.222  18.904 -0.3986  0.1184 -0.2364
  793POPS   GL2 9508   3.747   5.438  18.842  0.1324  0.2991 -0.0590
  793POPS   C1A 9509   3.642   5.108  18.477  0.0246  0.0282  0.3179
  793POPS   D2A 9510   3.780   5.193  18.111  0.1830  0.1913 -0.3420
  793POPS   C3A 9511   4.161   5.036  17.832  0.0974 -0.1403 -0.1715
  793POPS   C4A 9512   4.330   4.933  17.445 -0.1577 -0.1271  0.0547
  793POPS   C1B 9513   4.046   5.402  18.552  0.0446  0.0530  0.0817
  793POPS   C2B 9514   4.054   5.599  18.177 -0.0659 -0.1606  0.1943
  793POPS   C3B 9515   3.832   5.578  17.764 -0.1715  0.0400  0.3096
  793POPS   C4B 9516   4.087   5.415  17.420 -0.2333  0.0447  0.0830
  794POPS   CNO 9517  11.302  11.134  19.188 -0.1468  0.0148  0.1098
  794POPS   PO4 9518  11.174  10.855  19.382  0.3787  0.0774  0.2298
  794POPS   GL1 9519  11.009  10.745  18.960 -0.0389  0.1237 -0.1096
  794POPS   GL2 9520  11.293  10.731  18.836 -0.1682 -0.2202  0.2920
  794POPS   C1A 9521  10.890  10.764  18.548  0.0762 -0.2636  0.0011
  794POPS   D2A 9522  10.977  10.761  18.098 -0.0862 -0.1200  0.0607
  794POPS   C3A 9523  11.268  10.652  17.779 -0.0140  0.0202  0.1123
  794POPS   C4A 9524  11.661  10.443  17.593 -0.4089 -0.0223 -0.2094
  794POPS   C1B 9525  11.275  10.393  18.496  0.0661  0.2340  0.1284
  794POPS   C2B 9526  11.067  10.272  18.073 -0.1901  0.1788 -0.2695
  794POPS   C3B 9527  11.236  10.128  17.664  0.0963 -0.1774  0.0288
  794POPS   C4B 9528  11.151   9.882  17.305 -0.1149 -0.1061  0.4093
  795POPS   CNO 9529   7.393  20.814  19.072 -0.1109  0.0744  0.1242
  795POPS   PO4 9530   7.044  20.823  18.900 -0.0714  0.1211  0.0478
  795POPS   GL1 9531   7.150  20.649  18.617 -0.1820  0.1634 -0.4464
  795POPS   GL2 9532   7.263  20.376  18.748  0.0617 -0.2533 -0.1895
  795POPS   C1A 9533   7.353  20.561  18.199  0.3196 -0.2413  0.0712
  795POPS   D2A 9534   7.604  20.403  17.931 -0.0261 -0.1507 -0.0009
  795POPS   C3A 9535   7.913  20.265  17.531 -0.1790 -0.0123  0.0839
  795POPS   C4A 9536   7.803  20.199  17.103  0.2134 -0.0097 -0.1576
  795POPS   C1B 9537   7.020  19.940  18.632 -0.0946  0.0115  0.0186
  795POPS   C2B 9538   7.118  19.729  18.248  0.0216  0.2203 -0.2880
  795POPS   C3B 9539   7.342  19.484  17.971  0.0800 -0.0398 -0.2377
  795POPS   C4B 9540   7.702  19.370  17.766 -0.0726 -0.2825 -0.0908
  796POPS   CNO 9541   4.890  13.902  19.652 -0.0344  0.1630 -0.1249
  796POPS   PO4 9542   4.799  13.675  19.365 -0.4752  0.0504 -0.3094
  796POPS   GL1 9543   4.986  14.036  19.280 -0.1140  0.4943  0.3166
  796POPS   GL2 9544   5.267  13.946  19.218  0.0924  0.0185  0.4772
  796POPS   C1A 9545   5.093  14.281  18.907 -0.2593  0.1110  0.0488
  796POPS   D2A 9546   5.155  14.381  18.431  0.1914  0.0795  0.0446
  796POPS   C3A 9547   5.335  14.375  17.994 -0.2095 -0.3199  0.0492
  796POPS   C4A 9548   5.612  14.346  17.573  0.0234  0.0820 -0.0638
  796POPS   C1B 9549   5.388  13.919  18.721 -0.0956 -0.0289  0.2647
  796POPS   C2B 9550   5.470  13.910  18.245  0.0272  0.0422  0.0481
  796POPS   C3B 9551   5.405  13.884  17.776 -0.0256 -0.0502  0.0667
  796POPS   C4B 9552   5.211  14.085  17.416 -0.2042  0.0471 -0.1704
  797POPS   CNO 9553   8.255   1.707  19.059  0.0122  0.2392 -0.2207
  797POPS   PO4 9554   8.066   1.386  19.161  0.2195  0.2530  0.1262
  797POPS   GL1 9555   8.271   1.313  18.768  0.2739 -0.0529 -0.0580
  797POPS   GL2 9556   8.156   1.090  18.675  0.0876 -0.1586  0.2543
  797POPS   C1A 9557   8.213   1.599  18.422  0.0334  0.0275  0.0408
  797POPS   D2A 9558   8.177   1.870  18.061  0.0692  0.1760  0.0847
  797POPS   C3A 9559   7.868   1.994  17.735 -0.1864 -0.1199  0.2097
  797POPS   C4A 9560   7.767   1.847  17.239  0.0698  0.0627 -0.0937
  797POPS   C1B 9561   8.325   1.098  18.231  0.1030  0.1147  0.1074
  797POPS   C2B 9562   8.313   1.393  17.886  0.0170  0.1642  0.2702
  797POPS   C3B 9563   8.173   1.534  17.424 -0.1209  0.3036  0.0941
  797POPS   C4B 9564   8.121   1.325  16.959  0.1471 -0.0687  0.2831
  798POPS   CNO 9565   6.576   5.937  19.257 -0.1893  0.3246  0.2880
  798POPS   PO4 9566   6.923   6.098  19.280 -0.0860 -0.4426 -0.4737
  798POPS   GL1 9567   6.841   6.017  18.868  0.0648 -0.3503 -0.1037
  798POPS   GL2 9568   6.888   5.828  18.633  0.1159 -0.2692 -0.0100
  798POPS   C1A 9569   6.583   6.203  18.511  0.2331 -0.1274 -0.0149
  798POPS   D2A 9570   6.394   6.283  18.079 -0.2299  0.3342  0.1400
  798POPS   C3A 9571   6.193   6.672  17.926 -0.3249  0.1354  0.0168
  798POPS   C4A 9572   6.217   6.818  17.529 -0.1206  0.0071  0.2376
  798POPS   C1B 9573   6.955   5.862  18.125 -0.0926 -0.3065  0.1735
  798POPS   C2B 9574   6.777   6.043  17.729 -0.1495 -0.0111  0.1622
  798POPS   C3B 9575   6.527   6.114  17.306  0.0614  0.1043 -0.1946
  798POPS   C4B 9576   6.534   6.128  16.837 -0.1343  0.0348  0.1323
  799POPS   CNO 9577  10.430  25.521  19.434 -0.0248 -0.0294 -0.0378
  799POPS   PO4 9578  10.349  25.121  19.423 -0.0845  0.1180 -0.0165
  799POPS   GL1 9579  10.468  25.240  19.065  0.1372 -0.2689  0.5238
  799POPS   GL2 9580  10.512  25.511  18.963 -0.1930 -0.0546 -0.3257
  799POPS   C1A 9581  10.285  25.179  18.616  0.2145 -0.0217 -0.1383
  799POPS   D2A 9582  10.300  25.255  18.111  0.0045 -0.0635 -0.1782
  799POPS   C3A 9583   9.907  25.436  18.190 -0.0741  0.1622 -0.3425
  799POPS   C4A 9584   9.590  25.596  18.532 -0.0335 -0.0313 -0.1551
  799POPS   C1B 9585  10.649  25.586  18.540  0.1055 -0.0332 -0.0070
  799POPS   C2B 9586  10.757  25.881  18.203  0.0855  0.2879  0.2555
  799POPS   C3B 9587  10.921  25.900  17.796 -0.3507 -0.1148 -0.2428
  799POPS   C4B 9588  10.789  25.853  17.342 -0.1749 -0.1620  0.0854
  800POPS   CNO 9589   0.795  26.676  19.388 -0.0620  0.2830  0.0604
  800POPS   PO4 9590   1.166  26.652  19.269  0.0961  0.0076 -0.0002
  800POPS   GL1 9591   1.382  26.608  18.976  0.2145 -0.0076  0.3169
  800POPS   GL2 9592   1.296  26.446  18.740  0.3787 -0.1617 -0.1382
  800POPS   C1A 9593   1.746  26.829  18.707  0.0440  0.1929  0.2283
  800POPS   D2A 9594   2.180  26.890  18.629  0.1083 -0.1629  0.1926
  800POPS   C3A 9595   2.440  27.260  18.468  0.0425  0.1792 -0.1354
  800POPS   C4A 9596   2.498  27.750  18.437  0.0711 -0.2535 -0.1745
  800POPS   C1B 9597   1.410  26.349  18.311 -0.1616 -0.0413  0.1310
  800POPS   C2B 9598   1.172  26.093  18.027 -0.0555  0.0046 -0.3427
  800POPS   C3B 9599   1.002  25.897  17.621 -0.2704  0.0532 -0.0047
  800POPS   C4B 9600   0.693  25.722  17.420  0.1872  0.0966 -0.1641
  801POPS   CNO 9601  15.007  15.122  20.059  0.1020 -0.1331 -0.3017
  801POPS   PO4 9602  15.334  15.296  20.053  0.0438 -0.0712  0.0185
  801POPS   GL1 9603  15.258  15.585  19.731 -0.1065  0.0729  0.2382
  801POPS   GL2 9604  15.144  15.368  19.526  0.3774  0.2527  0.2193
  801POPS   C1A 9605  15.355  15.870  19.403  0.0884 -0.0664  0.2491
  801POPS   D2A 9606  15.377  16.209  19.081  0.4007 -0.0402  0.0526
  801POPS   C3A 9607  15.412  16.234  18.681  0.0063  0.0891  0.0119
  801POPS   C4A 9608  15.323  16.538  18.299  0.0499  0.0591  0.0666
  801POPS   C1B 9609  15.266  15.507  19.076  0.0633 -0.1979  0.1321
  801POPS   C2B 9610  15.126  15.851  18.800 -0.0629  0.0543  0.0579
  801POPS   C3B 9611  15.126  16.007  18.324  0.3866 -0.1513  0.1293
  801POPS   C4B 9612  15.055  16.341  17.962 -0.0730  0.1982  0.1463
  802POPS   CNO 9613  13.175  14.090  19.481 -0.0764  0.1137 -0.0712
  802POPS   PO4 9614  13.304  14.412  19.322 -0.1730  0.1462  0.0616
  802POPS   GL1 9615  13.391  14.556  19.024 -0.1096  0.0118 -0.0901
  802POPS   GL2 9616  13.170  14.843  19.037  0.2486 -0.2139  0.0862
  802POPS   C1A 9617  13.462  14.681  18.590 -0.2329  0.1905 -0.1191
  802POPS   D2A 9618  13.659  14.768  18.150 -0.2257 -0.0168 -0.3365
  802POPS   C3A 9619  13.540  14.560  17.757 -0.1965 -0.0879 -0.1528
  802POPS   C4A 9620  13.374  14.445  17.369 -0.0574 -0.0292  0.0642
  802POPS   C1B 9621  12.907  14.865  18.639 -0.0401  0.1327  0.1516
  802POPS   C2B 9622  13.040  14.949  18.257  0.0121  0.3055  0.2130
  802POPS   C3B 9623  13.245  14.984  17.893 -0.2253 -0.1334 -0.1821
  802POPS   C4B 9624  13.431  15.018  17.466  0.1207 -0.1198 -0.0889
  803POPS   CNO 9625  12.648  20.978  19.736  0.0698  0.0058  0.0552
  803POPS   PO4 9626  12.655  20.898  19.374 -0.3669  0.1281  0.0673
  803POPS   GL1 9627  12.335  20.831  19.166  0.4611 -0.2068 -0.0327
  803POPS   GL2 9628  12.303  20.584  19.152 -0.0305  0.1616 -0.2925
  803POPS   C1A 9629  12.205  20.843  18.712  0.1758 -0.1199 -0.0785
  803POPS   D2A 9630  12.293  21.062  18.278 -0.0032 -0.1879 -0.1654
  803POPS   C3A 9631  12.055  21.290  17.945 -0.0528  0.2931  0.0731
  803POPS   C4A 9632  12.010  21.261  17.472  0.3801  0.1136  0.1078
  803POPS   C1B 9633  12.175  20.301  18.783  0.1625  0.1243 -0.1779
  803POPS   C2B 9634  12.452  20.036  18.439  0.1591  0.0009  0.3108
  803POPS   C3B 9635  12.425  20.162  17.981  0.3581 -0.6027  0.1236
  803POPS   C4B 9636  12.228  20.233  17.540 -0.0294  0.1780  0.1640
  804POPS   CNO 9637  12.358  17.188  19.053  0.3204 -0.4850 -0.3002
  804POPS   PO4 9638  12.016  17.222  19.179 -0.0599 -0.1397  0.4682
  804POPS   GL1 9639  11.883  17.306  18.789  0.0251 -0.2582  0.0250
  804POPS   GL2 9640  12.160  17.474  18.640  0.2821  0.4187  0.2613
  804POPS   C1A 9641  11.738  17.121  18.423  0.3236 -0.2470  0.0745
  804POPS   D2A 9642  11.635  17.136  17.953  0.3097 -0.1178  0.1901
  804POPS   C3A 9643  11.728  17.014  17.488 -0.0116 -0.0046  0.1133
  804POPS   C4A 9644  12.062  16.877  17.180  0.2917 -0.0137  0.2834
  804POPS   C1B 9645  12.117  17.480  18.175  0.0119  0.0599 -0.1959
  804POPS   C2B 9646  12.099  17.263  17.720  0.0013  0.0954  0.4140
  804POPS   C3B 9647  12.429  17.389  17.437 -0.1327 -0.1000 -0.0094
  804POPS   C4B 9648  12.838  17.368  17.208 -0.1950 -0.2330  0.1031
  805POPS   CNO 9649  10.139   0.876  19.846  0.1259 -0.0374  0.3037
  805POPS   PO4 9650   9.850   1.033  19.697 -0.0120  0.2021  0.0351
  805POPS   GL1 9651   9.897   1.088  19.319  0.2505  0.2193 -0.1171
  805POPS   GL2 9652   9.896   1.326  19.202 -0.3464 -0.0159  0.1897
  805POPS   C1A 9653  10.014   0.886  18.942  0.1635  0.0838 -0.4078
  805POPS   D2A 9654  10.147   0.503  18.719  0.1639 -0.1441  0.0985
  805POPS   C3A 9655  10.102   0.612  18.287 -0.2101 -0.0842 -0.2331
  805POPS   C4A 9656  10.115   0.729  17.851  0.0079  0.2285  0.0935
  805POPS   C1B 9657  10.001   1.355  18.759  0.1735  0.0215 -0.0120
  805POPS   C2B 9658  10.027   1.569  18.426  0.0415 -0.1391 -0.2653
  805POPS   C3B 9659  10.014   1.839  18.032 -0.4913 -0.2875  0.0990
  805POPS   C4B 9660   9.895   1.975  17.602  0.2515  0.2699 -0.1931
  806POPS   CNO 9661  13.689  13.863  19.228 -0.1577 -0.0611 -0.2030
  806POPS   PO4 9662  13.611  14.143  18.979 -0.3449  0.2087 -0.0656
  806POPS   GL1 9663  13.761  14.130  18.628  0.1355  0.1186  0.3671
  806POPS   GL2 9664  13.476  14.048  18.465  0.4020 -0.1659  0.2323
  806POPS   C1A 9665  13.766  14.250  18.172  0.2653  0.1377  0.1648
  806POPS   D2A 9666  13.991  14.460  17.854  0.0268 -0.1091 -0.2932
  806POPS   C3A 9667  13.948  14.397  17.419  0.0475  0.0494  0.1016
  806POPS   C4A 9668  13.700  14.231  17.053 -0.0889  0.5055 -0.1471
  806POPS   C1B 9669  13.185  14.357  18.372  0.0128  0.2114 -0.1980
  806POPS   C2B 9670  12.910  14.519  18.022  0.0675 -0.0928 -0.3954
  806POPS   C3B 9671  12.833  14.517  17.597 -0.0342 -0.3513  0.2781
  806POPS   C4B 9672  12.878  14.806  17.236  0.1160  0.0079 -0.0113
  807POPS   CNO 9673  11.310  15.774  19.170 -0.0332  0.3218  0.0842
  807POPS   PO4 9674  11.279  15.674  18.814 -0.0339  0.2340  0.0048
  807POPS   GL1 9675  11.122  15.727  18.481 -0.3493 -0.1983  0.0593
  807POPS   GL2 9676  10.918  15.519  18.409 -0.0267 -0.0335 -0.0960
  807POPS   C1A 9677  11.259  15.608  18.066  0.1979 -0.1833 -0.0355
  807POPS   D2A 9678  11.524  15.661  17.742  0.3189 -0.1477 -0.0785
  807POPS   C3A 9679  11.385  15.609  17.313  0.0952 -0.1049  0.1631
  807POPS   C4A 9680  11.381  15.619  16.846  0.0352  0.0116  0.0199
  807POPS   C1B 9681  10.699  15.462  18.031 -0.0161  0.1779  0.1737
  807POPS   C2B 9682  10.976  15.502  17.634 -0.0630 -0.2211  0.2106
  807POPS   C3B 9683  10.935  15.489  17.128 -0.0518 -0.0181  0.1350
  807POPS   C4B 9684  10.873  15.328  16.692 -0.0515  0.5217 -0.2674
  808POPS   CNO 9685   4.899  15.392  19.946 -0.3835 -0.1411  0.0174
  808POPS   PO4 9686   4.594  15.618  19.856  0.0906 -0.0007 -0.1914
  808POPS   GL1 9687   4.825  15.728  19.507  0.1579  0.0546 -0.3219
  808POPS   GL2 9688   4.571  15.828  19.386 -0.2656 -0.1948 -0.1738
  808POPS   C1A 9689   5.041  15.772  19.110  0.0400  0.0468 -0.3091
  808POPS   D2A 9690   5.236  15.676  18.731 -0.0906 -0.1438 -0.0608
  808POPS   C3A 9691   4.936  15.357  18.509  0.0258 -0.1028  0.1071
  808POPS   C4A 9692   4.498  15.180  18.444  0.1664  0.0117 -0.0386
  808POPS   C1B 9693   4.654  16.071  19.027  0.3552 -0.2023  0.0808
  808POPS   C2B 9694   4.703  16.167  18.585 -0.2670 -0.0696  0.0984
  808POPS   C3B 9695   4.799  16.290  18.124 -0.0303  0.0796  0.1075
  808POPS   C4B 9696   5.210  16.393  17.948  0.0927  0.0220 -0.2259
  809POPS   CNO 9697  15.475  11.143  19.337 -0.1099  0.3000 -0.2213
  809POPS   PO4 9698  15.252  10.855  19.339 -0.2607  0.2762 -0.1703
  809POPS   GL1 9699  15.059  10.972  19.091  0.1153 -0.4411  0.4704
  809POPS   GL2 9700  15.225  11.346  18.977 -0.0556  0.3500  0.0341
  809POPS   C1A 9701  14.892  11.022  18.651  0.1595  0.0275 -0.0025
  809POPS   D2A 9702  14.690  11.221  18.385 -0.0505  0.1486  0.2777
  809POPS   C3A 9703  14.898  11.389  18.001  0.0268 -0.1535 -0.2102
  809POPS   C4A 9704  14.854  11.435  17.579  0.2198 -0.0740  0.2177
  809POPS   C1B 9705  14.828  11.530  18.792 -0.1645  0.2205  0.2059
  809POPS   C2B 9706  14.746  11.780  18.411 -0.3221  0.0046 -0.2692
  809POPS   C3B 9707  14.747  12.053  18.111  0.2676  0.1933  0.1336
  809POPS   C4B 9708  15.095  12.330  18.159 -0.2773 -0.1641 -0.2315
  810POPS   CNO 9709  14.427   7.830  20.514  0.0018  0.1273 -0.2167
  810POPS   PO4 9710  14.588   7.808  20.150 -0.1813  0.0289  0.0427
  810POPS   GL1 9711  14.765   7.570  19.855 -0.1622  0.0989 -0.2633
  810POPS   GL2 9712  14.780   7.731  19.612 -0.0665 -0.1213 -0.3782
  810POPS   C1A 9713  14.686   7.287  19.499 -0.1683 -0.0813  0.0678
  810POPS   D2A 9714  14.827   6.852  19.479  0.0065  0.1421  0.0815
  810POPS   C3A 9715  15.045   6.467  19.516  0.4735 -0.0100 -0.3946
  810POPS   C4A 9716  15.335   6.165  19.727 -0.0802  0.1681 -0.1011
  810POPS   C1B 9717  15.198   7.485  19.644 -0.1022 -0.4043 -0.1250
  810POPS   C2B 9718  15.494   7.336  19.986 -0.0882 -0.2163 -0.0956
  810POPS   C3B 9719  15.740   7.169  20.329 -0.3374 -0.0608 -0.0457
  810POPS   C4B 9720  15.808   6.841  20.571  0.0822 -0.1894  0.0426
  811POPS   CNO 9721  15.214   8.796  19.250 -0.2449  0.2587  0.0273
  811POPS   PO4 9722  15.402   8.729  18.932 -0.0243 -0.3099 -0.1879
  811POPS   GL1 9723  15.446   8.408  18.755  0.1078 -0.3729 -0.1948
  811POPS   GL2 9724  15.725   8.279  18.936  0.1717 -0.2836  0.1746
  811POPS   C1A 9725  15.110   8.214  18.484  0.3047  0.1262 -0.2441
  811POPS   D2A 9726  15.222   7.899  18.177 -0.0158 -0.0905  0.0243
  811POPS   C3A 9727  15.507   8.104  17.838  0.2555  0.0752 -0.0984
  811POPS   C4A 9728  15.798   8.461  17.844  0.0800 -0.3130 -0.0296
  811POPS   C1B 9729  15.562   7.980  18.671  0.0990  0.0657 -0.0025
  811POPS   C2B 9730  15.594   7.573  18.422 -0.1173  0.1186 -0.1099
  811POPS   C3B 9731  15.562   7.255  18.089 -0.0297 -0.2724 -0.0126
  811POPS   C4B 9732  15.418   6.840  17.801 -0.0060 -0.0928  0.0469
  812POPS   CNO 9733   4.033  20.319  19.349  0.4074 -0.2231  0.2307
  812POPS   PO4 9734   3.797  20.497  19.082 -0.2254 -0.0750  0.2590
  812POPS   GL1 9735   3.688  20.271  18.737 -0.1660  0.3762 -0.0054
  812POPS   GL2 9736   3.884  20.255  18.532 -0.1230  0.2255 -0.0064
  812POPS   C1A 9737   3.447  20.317  18.342 -0.0811 -0.3714 -0.2011
  812POPS   D2A 9738   3.415  20.145  17.909  0.0024  0.1132  0.0427
  812POPS   C3A 9739   3.531  20.158  17.482  0.0830 -0.3482  0.0661
  812POPS   C4A 9740   3.622  20.219  16.983 -0.0144 -0.1160  0.0071
  812POPS   C1B 9741   4.147  20.333  18.152 -0.1356  0.2465  0.1311
  812POPS   C2B 9742   4.417  20.494  17.886  0.1079 -0.0548 -0.0507
  812POPS   C3B 9743   4.697  20.665  17.566  0.2414  0.0269  0.1686
  812POPS   C4B 9744   4.666  20.988  17.194 -0.2102  0.1308 -0.3210
  813POPS   CNO 9745   0.153  26.106  18.961 -0.1635  0.0930 -0.1993
  813POPS   PO4 9746   0.362  26.198  18.662  0.1254 -0.0106 -0.0433
  813POPS   GL1 9747   0.437  26.133  18.286  0.0985 -0.1399  0.1463
  813POPS   GL2 9748   0.223  26.223  18.158  0.2386 -0.2684 -0.2295
  813POPS   C1A 9749   0.744  26.313  17.956 -0.1668  0.0492 -0.2528
  813POPS   D2A 9750   0.876  26.460  17.503  0.0401 -0.0690 -0.0063
  813POPS   C3A 9751   0.976  26.115  17.207  0.1924  0.2249  0.4646
  813POPS   C4A 9752   0.959  25.813  16.900 -0.2988 -0.0265 -0.1673
  813POPS   C1B 9753   0.388  26.661  18.079 -0.2227  0.2815  0.1400
  813POPS   C2B 9754   0.715  26.934  17.983  0.1485  0.0246 -0.0605
  813POPS   C3B 9755   1.018  27.001  17.588  0.1398 -0.0852 -0.2192
  813POPS   C4B 9756   0.854  27.098  17.253 -0.0721 -0.1370  0.0640
  814POPS   CNO 9757  10.550  22.151  19.752  0.1466 -0.2440  0.0687
  814POPS   PO4 9758  10.743  22.183  19.435  0.4168 -0.1000 -0.1825
  814POPS   GL1 9759  10.596  21.804  19.254 -0.2248 -0.2201  0.2486
  814POPS   GL2 9760  10.536  21.918  19.008  0.1577 -0.1388  0.0721
  814POPS   C1A 9761  10.811  21.543  18.948  0.0709 -0.3337  0.2999
  814POPS   D2A 9762  10.949  21.835  18.670  0.0371  0.1432  0.0346
  814POPS   C3A 9763  11.168  21.747  18.223  0.3108 -0.0909 -0.1862
  814POPS   C4A 9764  10.959  21.732  17.812 -0.0693  0.1644 -0.0732
  814POPS   C1B 9765  10.417  21.819  18.619 -0.2087  0.1524 -0.1458
  814POPS   C2B 9766  10.645  21.772  18.287 -0.1393  0.1759  0.1446
  814POPS   C3B 9767  10.818  22.161  18.035  0.2880  0.1544 -0.2314
  814POPS   C4B 9768  11.132  22.295  17.710 -0.0016  0.2535 -0.3206
  815POPS   CNO 9769  14.947   4.374  20.009 -0.4865  0.0690 -0.1382
  815POPS   PO4 9770  14.584   4.595  20.043  0.1130 -0.0528 -0.0450
  815POPS   GL1 9771  14.805   4.748  19.739 -0.1380 -0.4835 -0.3429
  815POPS   GL2 9772  14.643   4.698  19.589  0.1271 -0.0132 -0.0283
  815POPS   C1A 9773  15.040   4.971  19.424  0.0032  0.0326 -0.1560
  815POPS   D2A 9774  15.379   5.037  19.115  0.0989  0.0124 -0.0014
  815POPS   C3A 9775  15.310   5.490  19.042 -0.0362 -0.0438  0.1941
  815POPS   C4A 9776  15.510   5.822  19.217  0.0579 -0.2095 -0.0704
  815POPS   C1B 9777  14.633   4.865  19.120 -0.1783 -0.1191  0.0418
  815POPS   C2B 9778  14.779   5.155  18.789  0.0666 -0.1726  0.1706
  815POPS   C3B 9779  14.886   5.152  18.332 -0.0430  0.0321 -0.0880
  815POPS   C4B 9780  15.070   5.276  17.912 -0.3192 -0.2869  0.0499
  816POPS   CNO 9781   8.875  12.741  19.105  0.0696  0.3033  0.1090
  816POPS   PO4 9782   8.949  12.411  19.312 -0.0221  0.0669  0.0386
  816POPS   GL1 9783   8.992  12.294  18.919  0.0485  0.1698 -0.1268
  816POPS   GL2 9784   8.715  12.282  18.900  0.0697  0.0013 -0.1455
  816POPS   C1A 9785   9.008  12.606  18.539 -0.1688  0.1324 -0.1558
  816POPS   D2A 9786   9.070  12.855  18.204 -0.3082 -0.0491  0.2576
  816POPS   C3A 9787   9.067  13.016  17.785 -0.1017  0.2518 -0.2154
  816POPS   C4A 9788   8.954  12.995  17.360  0.1613  0.0826  0.0419
  816POPS   C1B 9789   8.893  12.033  18.514  0.3734 -0.2053  0.3212
  816POPS   C2B 9790   8.939  12.048  18.039 -0.1797 -0.2748  0.0171
  816POPS   C3B 9791   9.208  11.966  17.655  0.0186 -0.0515  0.2016
  816POPS   C4B 9792   9.263  11.830  17.191 -0.2634 -0.1486 -0.0247
  817POPS   CNO 9793   0.532  11.612  18.884  0.1397 -0.0187 -0.1702
  817POPS   PO4 9794   0.611  11.227  18.886 -0.1487  0.0849  0.0455
  817POPS   GL1 9795   0.604  11.147  18.460 -0.0460 -0.0315 -0.0719
  817POPS   GL2 9796   0.661  11.376  18.328 -0.0660 -0.0886  0.3060
  817POPS   C1A 9797   0.829  10.974  18.098  0.0512  0.3376 -0.1978
  817POPS   D2A 9798   0.780  10.635  17.775  0.0240  0.1698  0.3331
  817POPS   C3A 9799   1.007  10.476  17.395  0.0906 -0.1030  0.0565
  817POPS   C4A 9800   1.339  10.567  17.026 -0.0174 -0.0713  0.1245
  817POPS   C1B 9801   0.573  11.470  17.878  0.0924  0.0296 -0.2508
  817POPS   C2B 9802   0.745  11.634  17.407 -0.1771 -0.1107 -0.0417
  817POPS   C3B 9803   0.608  11.830  17.003 -0.2785 -0.0753 -0.0090
  817POPS   C4B 9804   0.506  11.931  16.565 -0.0502  0.0657  0.1253
  818POPS   CNO 9805   8.832  28.866  19.558 -0.0691 -0.1337  0.4490
  818POPS   PO4 9806   8.578  29.153  19.518  0.0572  0.3524 -0.0563
  818POPS   GL1 9807   8.522  28.908  19.168  0.0290  0.0922 -0.0076
  818POPS   GL2 9808   8.696  28.940  18.914 -0.2781  0.0338 -0.1334
  818POPS   C1A 9809   8.195  28.883  18.817 -0.2205  0.3686 -0.1332
  818POPS   D2A 9810   8.210  29.015  18.375  0.3414  0.0870  0.1638
  818POPS   C3A 9811   7.960  28.799  18.060  0.2966  0.2149 -0.1578
  818POPS   C4A 9812   7.878  28.831  17.617  0.0191  0.0687  0.3778
  818POPS   C1B 9813   8.654  29.002  18.491 -0.0339  0.1209  0.1637
  818POPS   C2B 9814   8.652  28.947  18.060 -0.0678 -0.0081 -0.0037
  818POPS   C3B 9815   8.794  28.820  17.704  0.1835  0.1810 -0.0948
  818POPS   C4B 9816   8.725  28.521  17.363 -0.1455  0.3694  0.0854
  819POPS   CNO 9817  10.002   5.202  19.098  0.0316  0.0442 -0.3242
  819POPS   PO4 9818  10.197   5.115  18.803 -0.0128  0.0095 -0.0355
  819POPS   GL1 9819   9.999   5.085  18.526 -0.0779  0.2977 -0.1028
  819POPS   GL2 9820   9.958   5.372  18.410 -0.2649 -0.0780 -0.3258
  819POPS   C1A 9821   9.598   4.878  18.289 -0.2369  0.0471  0.0239
  819POPS   D2A 9822   9.277   4.809  17.972 -0.2613 -0.3573  0.0323
  819POPS   C3A 9823   9.211   4.639  17.575  0.3524 -0.2347  0.1359
  819POPS   C4A 9824   9.319   4.434  17.173 -0.2670 -0.2284  0.0210
  819POPS   C1B 9825   9.720   5.351  18.021  0.0607 -0.1165  0.0818
  819POPS   C2B 9826   9.454   5.587  17.740 -0.2264  0.2240  0.0367
  819POPS   C3B 9827   9.139   5.864  17.580 -0.0476  0.0758  0.2664
  819POPS   C4B 9828   8.813   6.182  17.725 -0.3419 -0.2406  0.1472
  820POPS   CNO 9829   5.191  19.852  18.414  0.2591 -0.2741  0.1600
  820POPS   PO4 9830   4.935  19.649  18.575 -0.0590  0.1142 -0.0077
  820POPS   GL1 9831   4.720  19.815  18.302  0.1832  0.2490 -0.0116
  820POPS   GL2 9832   4.783  20.072  18.197 -0.0496 -0.1929  0.0044
  820POPS   C1A 9833   4.285  19.792  18.099 -0.1684  0.0107 -0.1339
  820POPS   D2A 9834   4.006  19.952  17.787  0.1227 -0.2508 -0.0548
  820POPS   C3A 9835   4.045  19.918  17.351 -0.0724  0.1102  0.0101
  820POPS   C4A 9836   4.279  19.718  17.028  0.2388  0.3651  0.0497
  820POPS   C1B 9837   4.738  19.992  17.718 -0.0793 -0.1577 -0.2560
  820POPS   C2B 9838   4.541  20.041  17.277  0.0437  0.2172  0.0828
  820POPS   C3B 9839   4.709  20.466  17.072  0.4638  0.1898 -0.0217
  820POPS   C4B 9840   5.021  20.663  16.727  0.0081  0.1522  0.0765
  821POPS   CNO 9841  14.420  18.726  19.750 -0.2628 -0.2404  0.1263
  821POPS   PO4 9842  14.487  18.730  19.353 -0.0035  0.1829  0.4903
  821POPS   GL1 9843  14.900  18.710  19.100  0.0237  0.3919  0.2001
  821POPS   GL2 9844  15.126  18.799  18.852 -0.0791 -0.3621 -0.2291
  821POPS   C1A 9845  14.951  18.377  18.814 -0.1181  0.2344  0.0336
  821POPS   D2A 9846  14.997  18.050  18.473  0.2432  0.0472 -0.1566
  821POPS   C3A 9847  14.850  17.868  18.103  0.0781 -0.1044  0.0086
  821POPS   C4A 9848  14.622  17.974  17.745  0.2765 -0.3262  0.0000
  821POPS   C1B 9849  15.104  18.620  18.433  0.0786  0.2814 -0.1608
  821POPS   C2B 9850  15.367  18.667  18.066  0.1820  0.1342 -0.2858
  821POPS   C3B 9851  15.774  18.738  17.836 -0.0307  0.1053  0.0379
  821POPS   C4B 9852  16.193  18.953  17.712 -0.0264 -0.1449  0.0831
  822POPS   CNO 9853  10.811  12.873  19.624  0.0169  0.0461 -0.0225
  822POPS   PO4 9854  10.498  12.696  19.545 -0.3899 -0.0593 -0.0103
  822POPS   GL1 9855  10.349  12.423  19.351 -0.3294  0.0246  0.0044
  822POPS   GL2 9856  10.518  12.160  19.367 -0.0460 -0.0955 -0.4083
  822POPS   C1A 9857  10.340  12.301  18.878 -0.0444  0.1467  0.0479
  822POPS   D2A 9858  10.686  12.215  18.534  0.1819 -0.0426 -0.0427
  822POPS   C3A 9859  10.694  12.277  18.062  0.0427  0.1644  0.4444
  822POPS   C4A 9860  10.705  12.089  17.632  0.1722  0.2007 -0.0133
  822POPS   C1B 9861  10.712  11.879  19.068 -0.1701 -0.3426  0.1459
  822POPS   C2B 9862  10.698  11.638  18.632  0.3434 -0.2374  0.0639
  822POPS   C3B 9863  10.515  11.598  18.219 -0.0953 -0.0052 -0.1862
  822POPS   C4B 9864  10.360  11.675  17.778  0.4872 -0.1560  0.2791
  823POPS   CNO 9865   2.977   0.718  19.388 -0.0365 -0.2344  0.0490
  823POPS   PO4 9866   2.971   0.344  19.248  0.4060  0.2625 -0.2457
  823POPS   GL1 9867   2.804   0.477  18.948  0.0674 -0.2015  0.0378
  823POPS   GL2 9868   2.527   0.371  18.892 -0.1283 -0.0816  0.1776
  823POPS   C1A 9869   2.730   0.750  18.569  0.1220 -0.1676  0.0593
  823POPS   D2A 9870   2.654   0.794  18.098 -0.0492  0.1542 -0.0755
  823POPS   C3A 9871   2.820   0.733  17.660  0.2129 -0.0083 -0.3412
  823POPS   C4A 9872   2.904   0.714  17.221  0.0328 -0.0606  0.0226
  823POPS   C1B 9873   2.677   0.205  18.525 -0.2283  0.3681 -0.0962
  823POPS   C2B 9874   2.917   0.327  18.176  0.1834  0.0848 -0.0786
  823POPS   C3B 9875   3.017   0.231  17.782  0.0072 -0.1385  0.0261
  823POPS   C4B 9876   2.967   0.221  17.377 -0.0509  0.0783  0.1054
  824POPS   CNO 9877   6.799   7.199  19.232 -0.1174  0.2926 -0.1914
  824POPS   PO4 9878   6.870   7.598  19.233  0.1983 -0.2897  0.3655
  824POPS   GL1 9879   6.892   7.576  18.900 -0.1838 -0.1017 -0.0805
  824POPS   GL2 9880   7.068   7.374  18.820  0.0128 -0.0639  0.2151
  824POPS   C1A 9881   6.644   7.685  18.521 -0.2706  0.0232  0.0158
  824POPS   D2A 9882   6.579   7.698  18.042  0.0963 -0.0020 -0.0929
  824POPS   C3A 9883   6.540   7.634  17.600  0.1292  0.0342 -0.0404
  824POPS   C4A 9884   6.748   7.520  17.179  0.2908  0.1561  0.2745
  824POPS   C1B 9885   7.135   7.258  18.408 -0.2586 -0.3763 -0.0875
  824POPS   C2B 9886   7.409   7.450  18.025  0.1165 -0.0340  0.0290
  824POPS   C3B 9887   7.440   7.551  17.593  0.1987  0.0919 -0.1216
  824POPS   C4B 9888   7.615   7.419  17.147  0.2216 -0.1837  0.1792
  825POPS   CNO 9889  12.664   0.831  19.664  0.1368  0.0592 -0.1045
  825POPS   PO4 9890  12.769   0.692  19.334 -0.2658  0.3007 -0.1466
  825POPS   GL1 9891  12.562   0.661  19.062  0.0106  0.1568 -0.0490
  825POPS   GL2 9892  12.262   0.769  19.039  0.1582 -0.0067 -0.2922
  825POPS   C1A 9893  12.569   1.003  18.702 -0.1477 -0.1172 -0.1825
  825POPS   D2A 9894  12.571   1.251  18.361  0.0155  0.2011 -0.2232
  825POPS   C3A 9895  12.110   1.202  18.410 -0.3400 -0.2635  0.1787
  825POPS   C4A 9896  11.757   1.482  18.490 -0.2844  0.0379  0.1112
  825POPS   C1B 9897  12.143   0.723  18.623  0.1729 -0.1581 -0.1098
  825POPS   C2B 9898  11.916   0.748  18.249 -0.5043  0.0690  0.1821
  825POPS   C3B 9899  11.895   0.522  17.838  0.1515 -0.1510  0.2244
  825POPS   C4B 9900  11.910   0.714  17.356  0.0848 -0.2412 -0.0917
  826POPS   CNO 9901   7.817  12.557  19.655  0.1155 -0.0042  0.2800
  826POPS   PO4 9902   7.968  12.317  19.397 -0.2076 -0.0797 -0.1270
  826POPS   GL1 9903   8.177  12.232  19.020  0.3563 -0.2753 -0.1966
  826POPS   GL2 9904   8.293  12.518  18.862  0.1419  0.0877  0.1592
  826POPS   C1A 9905   7.976  12.156  18.617 -0.2888  0.0734  0.0589
  826POPS   D2A 9906   7.922  12.120  18.175  0.0185  0.0765 -0.1829
  826POPS   C3A 9907   8.097  11.964  17.737  0.0008 -0.0046  0.0250
  826POPS   C4A 9908   8.191  11.585  17.412  0.0698 -0.0681 -0.1176
  826POPS   C1B 9909   8.510  12.393  18.517 -0.3401 -0.2457  0.1948
  826POPS   C2B 9910   8.751  12.438  18.158 -0.1785 -0.1366  0.0799
  826POPS   C3B 9911   8.998  12.520  17.761  0.1739 -0.0637  0.1094
  826POPS   C4B 9912   9.407  12.732  17.536 -0.1411  0.1087 -0.3866
  827POPS   CNO 9913  11.230  30.777  20.027 -0.3108 -0.0032  0.1275
  827POPS   PO4 9914  11.116  30.996  19.735 -0.0922  0.2230  0.2240
  827POPS   GL1 9915  11.141  30.870  19.330  0.0438 -0.0062  0.1632
  827POPS   GL2 9916  11.380  30.899  19.205 -0.0562 -0.1843 -0.1604
  827POPS   C1A 9917  11.111  30.413  19.174 -0.2581 -0.3415 -0.1561
  827POPS   D2A 9918  11.333  30.064  18.902  0.4128  0.0675  0.2658
  827POPS   C3A 9919  11.422  30.078  18.478 -0.1720  0.1269 -0.2247
  827POPS   C4A 9920  11.507  30.320  18.181  0.0665  0.2330 -0.0199
  827POPS   C1B 9921  11.293  31.199  18.801  0.3838 -0.1061 -0.1481
  827POPS   C2B 9922  11.091  31.081  18.417  0.3619  0.0760  0.1232
  827POPS   C3B 9923  11.134  30.716  18.121 -0.1291 -0.1862 -0.0355
  827POPS   C4B 9924  11.237  30.543  17.729 -0.0216  0.2477 -0.3155
  828POPS   CNO 9925   6.219   1.751  19.499  0.2512  0.2045  0.0996
  828POPS   PO4 9926   6.232   1.477  19.252 -0.0878 -0.2307 -0.3437
  828POPS   GL1 9927   6.115   1.587  18.859  0.1001  0.0338 -0.3599
  828POPS   GL2 9928   5.934   1.336  18.786  0.1118 -0.0156  0.2856
  828POPS   C1A 9929   6.017   1.683  18.418 -0.2725 -0.1253  0.1231
  828POPS   D2A 9930   6.232   1.935  18.043  0.2342 -0.3893 -0.0698
  828POPS   C3A 9931   6.017   2.275  17.856  0.1631  0.2433  0.1534
  828POPS   C4A 9932   5.791   2.584  17.614 -0.0590 -0.1496  0.1334
  828POPS   C1B 9933   5.838   0.940  18.496 -0.3717  0.0724 -0.0961
  828POPS   C2B 9934   6.214   0.687  18.309  0.1418 -0.1444  0.1172
  828POPS   C3B 9935   6.683   0.689  18.182  0.2249  0.0583 -0.0794
  828POPS   C4B 9936   6.896   0.830  17.808 -0.1302 -0.3123  0.0453
  829POPS   CNO 9937   5.922  30.585  19.478 -0.0030  0.1200 -0.2597
  829POPS   PO4 9938   5.787  30.709  19.106 -0.1943  0.0293  0.0472
  829POPS   GL1 9939   5.662  30.814  18.763 -0.1961  0.0568 -0.1890
  829POPS   GL2 9940   5.371  30.691  18.848 -0.1694  0.1152 -0.3466
  829POPS   C1A 9941   5.892  30.668  18.365  0.1404  0.0831  0.0737
  829POPS   D2A 9942   6.131  30.604  17.943  0.0740  0.0117  0.0270
  829POPS   C3A 9943   6.348  30.794  17.625 -0.0099 -0.2179 -0.3422
  829POPS   C4A 9944   6.575  31.026  17.264  0.0829  0.0565  0.1288
  829POPS   C1B 9945   5.387  30.722  18.393  0.3383 -0.1360 -0.0484
  829POPS   C2B 9946   5.558  30.676  17.998 -0.0614 -0.1982  0.2891
  829POPS   C3B 9947   5.749  30.728  17.545  0.2847 -0.0842  0.0235
  829POPS   C4B 9948   5.589  30.969  17.188 -0.2718 -0.0671 -0.1103
  830POPS   CNO 9949   6.996  17.096  19.439  0.1178 -0.3956 -0.2408
  830POPS   PO4 9950   6.935  16.749  19.529 -0.0707  0.2007  0.4380
  830POPS   GL1 9951   7.170  16.784  19.131 -0.1523  0.3654 -0.0193
  830POPS   GL2 9952   7.271  16.984  19.037 -0.0566 -0.1546  0.0596
  830POPS   C1A 9953   7.326  16.534  18.772 -0.1757  0.0567  0.1529
  830POPS   D2A 9954   7.643  16.261  18.517 -0.1239  0.1937 -0.0665
  830POPS   C3A 9955   7.806  16.245  18.093 -0.0807 -0.0733 -0.0593
  830POPS   C4A 9956   7.756  15.999  17.729 -0.3333  0.1605  0.3206
  830POPS   C1B 9957   7.106  16.950  18.680  0.3903  0.1210  0.0959
  830POPS   C2B 9958   7.147  16.774  18.253  0.3574 -0.0059  0.0989
  830POPS   C3B 9959   7.324  16.353  18.096 -0.1460 -0.2570 -0.0925
  830POPS   C4B 9960   7.322  16.182  17.689  0.2431 -0.1852 -0.2147
  831POPS   CNO 9961  12.116  25.028  20.065  0.0717 -0.0676 -0.0666
  831POPS   PO4 9962  11.939  24.713  20.016 -0.0867 -0.1888 -0.0637
  831POPS   GL1 9963  11.977  24.875  19.605 -0.1962  0.1051  0.0667
  831POPS   GL2 9964  12.097  24.621  19.442 -0.2316 -0.0023 -0.0743
  831POPS   C1A 9965  11.892  24.973  19.167  0.1696  0.1762  0.1007
  831POPS   D2A 9966  12.119  24.955  18.768 -0.1154 -0.1101  0.0296
  831POPS   C3A 9967  12.098  25.046  18.282 -0.1014  0.0716  0.0641
  831POPS   C4A 9968  12.155  25.329  17.905 -0.3437 -0.1438  0.0450
  831POPS   C1B 9969  12.173  24.521  19.005 -0.1233 -0.3386  0.1414
  831POPS   C2B 9970  12.169  24.494  18.510  0.1443  0.0599 -0.0542
  831POPS   C3B 9971  12.204  24.587  18.074  0.1140 -0.0758  0.2176
  831POPS   C4B 9972  11.872  24.469  17.814 -0.0300 -0.1395  0.0793
  832POPS   CNO 9973   7.773   1.809  19.250  0.1363 -0.1579 -0.2528
  832POPS   PO4 9974   7.434   1.794  19.125 -0.0882  0.1430 -0.1855
  832POPS   GL1 9975   7.485   1.778  18.752  0.2354  0.1703 -0.2990
  832POPS   GL2 9976   7.729   1.695  18.746  0.0144 -0.1105  0.0494
  832POPS   C1A 9977   7.315   1.523  18.380  0.1552  0.0786 -0.1228
  832POPS   D2A 9978   7.410   1.340  18.058  0.0164  0.0331  0.0890
  832POPS   C3A 9979   7.408   0.977  17.733 -0.0165  0.1191  0.1446
  832POPS   C4A 9980   7.174   0.960  17.317 -0.2117 -0.1464  0.1926
  832POPS   C1B 9981   7.742   1.784  18.318 -0.3185  0.0880  0.1616
  832POPS   C2B 9982   7.474   1.844  17.987  0.1372  0.1026  0.0008
  832POPS   C3B 9983   7.099   1.935  17.748 -0.1084  0.0788 -0.0090
  832POPS   C4B 9984   6.912   1.982  17.318 -0.0036  0.0087 -0.0804
  833POPS   CNO 9985   9.599  14.242  19.704  0.3126 -0.0518 -0.0548
  833POPS   PO4 9986   9.723  14.584  19.634  0.1808  0.3459 -0.0583
  833POPS   GL1 9987   9.711  14.635  19.242 -0.3926 -0.0982  0.1777
  833POPS   GL2 9988   9.903  14.742  19.086 -0.2731  0.3059 -0.2497
  833POPS   C1A 9989   9.704  14.328  18.851 -0.2341 -0.2149 -0.1429
  833POPS   D2A 9990   9.676  14.177  18.409 -0.0589 -0.2814  0.0450
  833POPS   C3A 9991   9.649  14.442  18.060 -0.2608 -0.0823  0.3141
  833POPS   C4A 9992   9.440  14.692  17.749 -0.2685  0.3115  0.0798
  833POPS   C1B 9993   9.727  14.792  18.639  0.1236 -0.4201 -0.1853
  833POPS   C2B 9994   9.358  14.734  18.358  0.1750  0.0747 -0.2129
  833POPS   C3B 9995   9.005  14.784  18.080 -0.0262  0.0128  0.1001
  833POPS   C4B 9996   8.909  14.747  17.651 -0.1198 -0.1000 -0.0276
  834POPS   CNO 9997   1.218  13.924  19.210  0.1854 -0.2189  0.0453
  834POPS   PO4 9998   1.448  13.657  19.351 -0.0898 -0.0051  0.0941
  834POPS   GL1 9999   1.227  13.591  18.954  0.0763  0.1110 -0.1004
  834POPS   GL210000   1.286  13.824  18.706  0.2368 -0.1689 -0.1994
  834POPS   C1A10001   1.203  13.349  18.553  0.2154  0.3565 -0.2705
  834POPS   D2A10002   1.296  13.214  18.149 -0.4119 -0.1963 -0.3265
  834POPS   C3A10003   1.275  13.227  17.665  0.3437 -0.0644  0.0922
  834POPS   C4A10004   1.040  13.106  17.316  0.1973 -0.0833  0.2044
  834POPS   C1B10005   1.174  14.084  18.354 -0.2057 -0.1012 -0.0535
  834POPS   C2B10006   1.152  14.184  17.914 -0.3394 -0.0091 -0.1382
  834POPS   C3B10007   0.966  13.971  17.538  0.3328  0.1243 -0.1291
  834POPS   C4B10008   0.862  13.602  17.301 -0.0163  0.4227 -0.0389
  835POPS   CNO10009   7.395  28.751  19.864  0.2265 -0.0557  0.2324
  835POPS   PO410010   7.333  28.949  19.565  0.0048  0.2589  0.0736
  835POPS   GL110011   7.555  28.829  19.228  0.1484  0.2265 -0.0791
  835POPS   GL210012   7.797  28.952  19.153  0.1581 -0.0498  0.1355
  835POPS   C1A10013   7.328  28.730  18.900 -0.1646  0.0460  0.2958
  835POPS   D2A10014   7.042  28.563  18.594 -0.0532  0.2148 -0.0686
  835POPS   C3A10015   7.143  28.499  18.087 -0.0394 -0.0903  0.0462
  835POPS   C4A10016   7.228  28.568  17.605 -0.1794 -0.0556  0.4075
  835POPS   C1B10017   7.597  29.089  18.759 -0.1866  0.1069 -0.1220
  835POPS   C2B10018   7.754  29.194  18.339 -0.1457 -0.1927 -0.3697
  835POPS   C3B10019   7.857  29.284  17.900 -0.1212  0.1247 -0.3797
  835POPS   C4B10020   7.888  29.445  17.474  0.2445  0.1098 -0.1237
  836POPS   CNO10021  15.506  19.979  18.921 -0.1281  0.3513  0.2747
  836POPS   PO410022  15.365  19.652  19.030 -0.0870  0.2299  0.0969
  836POPS   GL110023  15.240  19.685  18.673  0.2801  0.3327 -0.1038
  836POPS   GL210024  15.508  19.538  18.551 -0.1985 -0.2109  0.1251
  836POPS   C1A10025  15.397  19.963  18.304  0.3095  0.0802 -0.0496
  836POPS   D2A10026  15.774  20.163  18.095  0.0750  0.1473 -0.2143
  836POPS   C3A10027  16.156  19.900  18.029  0.1693  0.2591  0.3656
  836POPS   C4A10028  16.500  19.568  18.102 -0.0440 -0.0171  0.1569
  836POPS   C1B10029  15.643  19.634  18.092  0.1583  0.1365  0.2853
  836POPS   C2B10030  16.001  19.439  17.855 -0.2270  0.2167 -0.0460
  836POPS   C3B10031  16.379  19.475  17.642  0.0581 -0.2237  0.0492
  836POPS   C4B10032  16.701  19.803  17.601 -0.1522  0.3078 -0.1531
  837POPS   CNO10033  14.927   0.765  19.955 -0.0742 -0.0448  0.1111
  837POPS   PO410034  14.752   1.020  19.746  0.0816 -0.0007 -0.0125
  837POPS   GL110035  14.720   1.030  19.267 -0.0118 -0.0767  0.1018
  837POPS   GL210036  14.495   0.944  19.310  0.0922  0.0541 -0.0999
  837POPS   C1A10037  14.649   1.211  18.821  0.0755 -0.0163 -0.0211
  837POPS   D2A10038  14.615   1.384  18.432  0.2304  0.1677  0.2038
  837POPS   C3A10039  14.640   1.312  17.953  0.0215  0.3210  0.1011
  837POPS   C4A10040  14.746   1.074  17.536  0.2869 -0.0230 -0.1210
  837POPS   C1B10041  14.282   0.882  18.907 -0.0803  0.1013 -0.0558
  837POPS   C2B10042  14.371   0.907  18.437  0.0171  0.1060  0.3941
  837POPS   C3B10043  14.425   0.881  17.976  0.1092 -0.1603 -0.1239
  837POPS   C4B10044  14.209   1.149  17.678 -0.3286 -0.0202 -0.0523
  838POPS   CNO10045   4.184  26.231  19.633  0.0019  0.0474 -0.0612
  838POPS   PO410046   3.926  26.461  19.511 -0.3206  0.1982  0.1486
  838POPS   GL110047   3.815  26.860  19.483  0.1218  0.1987  0.0249
  838POPS   GL210048   3.923  27.084  19.553 -0.0845  0.2829  0.2213
  838POPS   C1A10049   3.511  27.181  19.293 -0.1565  0.2232 -0.0781
  838POPS   D2A10050   3.237  27.385  18.992  0.2215  0.1388  0.1095
  838POPS   C3A10051   2.936  27.735  18.970  0.2242  0.1589 -0.0761
  838POPS   C4A10052   2.560  27.949  18.874  0.2048 -0.1749  0.2105
  838POPS   C1B10053   3.989  27.109  19.103 -0.1167 -0.1214  0.0378
  838POPS   C2B10054   4.115  27.086  18.605 -0.1245 -0.1617 -0.1197
  838POPS   C3B10055   4.012  26.885  18.176 -0.0726 -0.2125 -0.0622
  838POPS   C4B10056   4.361  26.719  17.861  0.3395  0.2070 -0.0387
  839POPS   CNO10057   1.122   3.974  19.091 -0.0748  0.3223 -0.0967
  839POPS   PO410058   1.459   4.089  19.212 -0.0023  0.3058  0.2578
  839POPS   GL110059   1.437   4.070  18.738 -0.1064 -0.0087 -0.0141
  839POPS   GL210060   1.481   4.340  18.805  0.2581 -0.1155  0.1765
  839POPS   C1A10061   1.230   3.948  18.358  0.1993  0.0223 -0.4689
  839POPS   D2A10062   1.198   3.843  17.914 -0.0998 -0.0222  0.0226
  839POPS   C3A10063   1.531   3.567  17.683  0.3549 -0.0029 -0.1516
  839POPS   C4A10064   1.868   3.329  17.479 -0.3845  0.3752  0.0087
  839POPS   C1B10065   1.393   4.427  18.364  0.0260  0.0714 -0.1707
  839POPS   C2B10066   1.332   4.325  17.992  0.1896 -0.0698  0.2155
  839POPS   C3B10067   1.161   4.455  17.599 -0.0883  0.1627 -0.0090
  839POPS   C4B10068   0.736   4.632  17.482 -0.0558  0.0264 -0.3049
  840POPS   CNO10069   4.522  31.520  19.480  0.0443  0.1413  0.2371
  840POPS   PO410070   4.630  31.469  19.115 -0.1883 -0.3628 -0.0358
  840POPS   GL110071   4.434  31.382  18.747  0.3182  0.0788  0.1686
  840POPS   GL210072   4.503  31.647  18.600  0.3155  0.2403  0.2037
  840POPS   C1A10073   4.416  31.009  18.446  0.1836  0.4301  0.1069
  840POPS   D2A10074   4.445  30.756  18.010 -0.0373  0.3366  0.0902
  840POPS   C3A10075   4.506  30.990  17.659 -0.1296 -0.0600  0.2335
  840POPS   C4A10076   4.486  31.046  17.241  0.1084 -0.0253  0.1706
  840POPS   C1B10077   4.483  31.495  18.192  0.1009 -0.1281 -0.3757
  840POPS   C2B10078   4.673  31.437  17.783 -0.0048 -0.1456  0.1369
  840POPS   C3B10079   4.844  31.548  17.368 -0.0357  0.0943 -0.1637
  840POPS   C4B10080   4.969  31.502  16.964 -0.2979 -0.0601 -0.0642
  841POPS   CNO10081  13.548  22.381  19.620 -0.0369 -0.4021  0.0768
  841POPS   PO410082  13.305  22.335  19.343 -0.1081  0.1114  0.1756
  841POPS   GL110083  13.298  22.413  18.981  0.5369 -0.2217  0.0944
  841POPS   GL210084  13.262  22.060  18.906  0.0734 -0.2405  0.1257
  841POPS   C1A10085  13.199  22.520  18.571  0.0517 -0.2499  0.1330
  841POPS   D2A10086  13.071  22.460  18.130 -0.1668  0.0651 -0.0555
  841POPS   C3A10087  13.304  22.164  17.798 -0.1134 -0.2988 -0.0114
  841POPS   C4A10088  13.555  21.989  17.452  0.3834 -0.1118  0.2303
  841POPS   C1B10089  13.057  21.975  18.486 -0.0335  0.0420 -0.1151
  841POPS   C2B10090  12.950  21.803  18.041 -0.1115  0.2055  0.8330
  841POPS   C3B10091  13.113  21.702  17.616 -0.0480  0.0331 -0.2081
  841POPS   C4B10092  13.233  21.711  17.166 -0.2480  0.2892  0.1599
  842POPS   CNO10093   0.524  10.759  19.237 -0.1228  0.0599  0.0890
  842POPS   PO410094   0.404  10.421  19.348 -0.1436  0.0968  0.1200
  842POPS   GL110095   0.463  10.228  18.970 -0.1331  0.2520  0.3291
  842POPS   GL210096   0.784  10.176  19.008 -0.1184 -0.1235 -0.1411
  842POPS   C1A10097   0.234  10.545  18.710  0.3174 -0.0852  0.0797
  842POPS   D2A10098   0.154  10.946  18.599  0.2490 -0.2427 -0.4003
  842POPS   C3A10099  -0.238  10.990  18.274 -0.2273 -0.0907 -0.2853
  842POPS   C4A10100  -0.486  11.162  17.866  0.2541  0.0647  0.0500
  842POPS   C1B10101   1.018  10.281  18.673  0.1054  0.0339  0.0933
  842POPS   C2B10102   0.985  10.334  18.223  0.2898  0.0043  0.3124
  842POPS   C3B10103   1.149  10.201  17.800 -0.2452 -0.1977 -0.0669
  842POPS   C4B10104   1.456  10.303  17.427 -0.1163  0.3205 -0.2297
  843POPS   CNO10105  13.621  20.895  19.566 -0.3801  0.1921  0.0038
  843POPS   PO410106  13.272  20.701  19.595 -0.1457 -0.1312 -0.2334
  843POPS   GL110107  13.288  20.725  19.199 -0.1105 -0.1304 -0.2825
  843POPS   GL210108  13.419  20.463  19.189  0.1605  0.0702 -0.0694
  843POPS   C1A10109  13.125  20.497  18.814  0.2248 -0.0638  0.1756
  843POPS   D2A10110  13.089  20.132  18.550 -0.3617  0.1607  0.1648
  843POPS   C3A10111  12.823  20.283  18.251  0.0251 -0.1448  0.0305
  843POPS   C4A10112  12.388  20.517  18.333 -0.1705 -0.0989 -0.0720
  843POPS   C1B10113  13.691  20.386  18.830  0.2248 -0.1589 -0.0745
  843POPS   C2B10114  13.602  20.434  18.361  0.2740 -0.1294  0.2774
  843POPS   C3B10115  13.558  20.572  17.907  0.0500  0.2386  0.0451
  843POPS   C4B10116  13.620  20.686  17.431  0.1927 -0.0273 -0.1789
  844POPS   CNO10117   4.953  25.360  19.655  0.2255 -0.0236 -0.2530
  844POPS   PO410118   5.266  25.554  19.570  0.1797  0.2428 -0.0519
  844POPS   GL110119   5.368  25.564  19.120 -0.3444 -0.3105  0.1846
  844POPS   GL210120   5.498  25.375  19.001  0.2001  0.1747  0.0734
  844POPS   C1A10121   5.393  25.918  18.839 -0.0956 -0.0155  0.0274
  844POPS   D2A10122   5.282  26.273  18.538  0.3697 -0.1173  0.0505
  844POPS   C3A10123   5.311  26.300  18.105 -0.3071 -0.2990 -0.0130
  844POPS   C4A10124   5.243  26.289  17.641 -0.0275 -0.4418 -0.4046
  844POPS   C1B10125   5.122  25.383  18.724  0.1173  0.1190  0.1727
  844POPS   C2B10126   4.823  25.251  18.417 -0.1398  0.0691  0.2119
  844POPS   C3B10127   4.816  25.246  17.972  0.0382 -0.1493  0.2342
  844POPS   C4B10128   4.965  25.421  17.578 -0.1483 -0.0401  0.0186
  845POPS   CNO10129  14.460  29.654  19.737  0.1639  0.3771  0.0712
  845POPS   PO410130  14.699  29.726  19.501 -0.2317  0.0031  0.4812
  845POPS   GL110131  14.706  29.476  19.130  0.2249  0.1678 -0.2782
  845POPS   GL210132  14.559  29.617  18.936  0.0514 -0.0116 -0.0385
  845POPS   C1A10133  14.989  29.416  18.783  0.1631  0.2999 -0.1838
  845POPS   D2A10134  15.217  29.108  18.460 -0.2126 -0.2017 -0.0463
  845POPS   C3A10135  15.121  29.000  18.015 -0.2603 -0.1150 -0.1966
  845POPS   C4A10136  14.817  29.154  17.710 -0.0733 -0.0388  0.1302
  845POPS   C1B10137  14.689  29.785  18.522  0.0236  0.0234 -0.0705
  845POPS   C2B10138  14.921  29.559  18.182 -0.2188  0.0039  0.2865
  845POPS   C3B10139  14.995  29.605  17.749 -0.0311 -0.2059 -0.1756
  845POPS   C4B10140  14.968  29.523  17.269  0.2672  0.0170 -0.0854
  846POPS   CNO10141   3.596  21.344  19.443 -0.1433  0.1397 -0.2074
  846POPS   PO410142   3.829  21.402  19.141 -0.1644  0.0416 -0.0851
  846POPS   GL110143   4.141  21.476  18.826 -0.1023  0.0363 -0.0146
  846POPS   GL210144   4.360  21.681  18.725  0.1093  0.0604 -0.2483
  846POPS   C1A10145   3.929  21.632  18.482  0.0237 -0.1064 -0.2336
  846POPS   D2A10146   3.980  21.908  18.124 -0.4550 -0.1455 -0.2398
  846POPS   C3A10147   4.070  22.156  17.769  0.0111 -0.0984  0.1935
  846POPS   C4A10148   3.864  22.228  17.344 -0.1878  0.0338 -0.0006
  846POPS   C1B10149   4.436  21.738  18.297  0.1818 -0.1483 -0.3226
  846POPS   C2B10150   4.492  21.828  17.838 -0.3397  0.0928 -0.1556
  846POPS   C3B10151   4.262  21.829  17.483 -0.2007 -0.1881 -0.2832
  846POPS   C4B10152   4.093  21.923  17.047 -0.0242 -0.0403  0.1057
  847POPS   CNO10153   9.279  16.713  19.410  0.2762 -0.4634 -0.0478
  847POPS   PO410154   9.066  16.595  19.158 -0.3291 -0.1578 -0.0291
  847POPS   GL110155   8.949  16.666  18.753  0.2517  0.0070  0.0030
  847POPS   GL210156   8.679  16.821  18.911 -0.0372  0.2882 -0.1947
  847POPS   C1A10157   9.174  16.854  18.437  0.0377 -0.0725 -0.0245
  847POPS   D2A10158   9.182  16.832  17.992  0.1993  0.1313  0.2056
  847POPS   C3A10159   9.145  16.510  17.584 -0.0096 -0.2900 -0.0962
  847POPS   C4A10160   9.158  16.111  17.324 -0.1188 -0.1138 -0.6739
  847POPS   C1B10161   8.570  16.673  18.465 -0.0651 -0.0140  0.0433
  847POPS   C2B10162   8.623  16.774  18.043 -0.0882  0.0899  0.0202
  847POPS   C3B10163   8.544  16.648  17.641  0.2322  0.3175  0.4150
  847POPS   C4B10164   8.312  16.519  17.291  0.3730  0.2220  0.0085
  848POPS   CNO10165   4.613  14.892  19.384 -0.0849  0.1711 -0.4947
  848POPS   PO410166   4.544  15.236  19.568  0.1488  0.1702 -0.0330
  848POPS   GL110167   4.650  15.378  19.230 -0.1075  0.1423 -0.2253
  848POPS   GL210168   4.786  15.273  18.960 -0.2207  0.0106  0.0813
  848POPS   C1A10169   4.387  15.597  18.905  0.1806  0.0058  0.0771
  848POPS   D2A10170   4.373  15.840  18.501  0.1314 -0.1093  0.2453
  848POPS   C3A10171   4.681  15.822  18.195  0.0180 -0.3707 -0.2126
  848POPS   C4A10172   4.718  15.988  17.719 -0.3285 -0.2152 -0.0209
  848POPS   C1B10173   5.257  15.329  19.081  0.2264  0.0797 -0.2611
  848POPS   C2B10174   5.675  15.411  18.888  0.1336  0.0491 -0.4423
  848POPS   C3B10175   5.844  15.386  18.434 -0.0442  0.2488  0.0149
  848POPS   C4B10176   5.748  15.118  18.159  0.4051  0.2062  0.0029
  849POPS   CNO10177   1.936  29.928  19.704  0.0971 -0.0089  0.0800
  849POPS   PO410178   1.648  29.798  19.511 -0.1030 -0.1189 -0.2511
  849POPS   GL110179   1.393  29.857  19.172  0.0208 -0.2492 -0.1764
  849POPS   GL210180   1.494  30.154  19.032 -0.1482 -0.0926  0.4918
  849POPS   C1A10181   0.968  29.793  18.966 -0.0832 -0.0280 -0.0014
  849POPS   D2A10182   0.592  30.098  18.884  0.1127  0.0613 -0.0444
  849POPS   C3A10183   0.698  30.087  18.375  0.0383  0.0287  0.2366
  849POPS   C4A10184   0.738  30.078  17.934  0.0579 -0.0292 -0.1941
  849POPS   C1B10185   1.598  29.966  18.629  0.1606 -0.2924 -0.1029
  849POPS   C2B10186   1.553  29.864  18.217 -0.2340  0.2039  0.0797
  849POPS   C3B10187   1.380  29.707  17.829  0.0402 -0.2232 -0.2262
  849POPS   C4B10188   1.356  29.358  17.545 -0.2222  0.3335 -0.0164
  850POPS   CNO10189   1.633   5.544  19.812  0.4446  0.2367  0.1193
  850POPS   PO410190   1.330   5.775  19.700 -0.2273  0.0141  0.0815
  850POPS   GL110191   1.264   5.740  19.300  0.4638 -0.3695 -0.0488
  850POPS   GL210192   1.302   5.467  19.178 -0.1492  0.0589  0.0045
  850POPS   C1A10193   0.975   5.777  18.953  0.2128 -0.0139 -0.3730
  850POPS   D2A10194   0.968   5.848  18.523  0.0207  0.2687 -0.1067
  850POPS   C3A10195   0.678   6.087  18.210 -0.0970 -0.2854 -0.2007
  850POPS   C4A10196   0.255   6.317  18.358  0.0229  0.2014 -0.1241
  850POPS   C1B10197   1.333   5.481  18.713  0.3577  0.1462  0.0635
  850POPS   C2B10198   1.335   5.627  18.289  0.2066  0.1271 -0.0895
  850POPS   C3B10199   1.148   5.869  18.042  0.0441  0.0362 -0.1534
  850POPS   C4B10200   0.752   5.900  17.791 -0.0270  0.0518  0.3179
  851POPS   CNO10201  12.553   3.361  19.521  0.0916  0.2802  0.0836
  851POPS   PO410202  12.572   3.685  19.285  0.0624  0.0471  0.0272
  851POPS   GL110203  12.499   3.846  18.923  0.1518  0.1218  0.2805
  851POPS   GL210204  12.413   4.099  18.790  0.2321 -0.0528 -0.0888
  851POPS   C1A10205  12.916   3.919  18.690  0.1112 -0.0876 -0.4732
  851POPS   D2A10206  12.924   4.091  18.316 -0.3155 -0.0699  0.0266
  851POPS   C3A10207  13.234   3.930  18.060 -0.0344  0.3153  0.1354
  851POPS   C4A10208  13.578   3.718  17.869 -0.0451  0.0232 -0.0605
  851POPS   C1B10209  12.487   4.315  18.403  0.0705  0.3314 -0.0696
  851POPS   C2B10210  12.678   4.478  18.042 -0.2710 -0.1845  0.0573
  851POPS   C3B10211  12.788   4.914  17.807  0.2097  0.1615  0.1657
  851POPS   C4B10212  12.732   5.204  17.450 -0.1422 -0.1023  0.0365
  852POPS   CNO10213  12.245   9.829  19.042  0.0661 -0.2508 -0.0941
  852POPS   PO410214  12.403  10.193  19.078  0.1587  0.1864 -0.0315
  852POPS   GL110215  12.472  10.494  18.861 -0.1145 -0.3756  0.0150
  852POPS   GL210216  12.788  10.421  18.849 -0.0030  0.1164  0.2258
  852POPS   C1A10217  12.519  10.818  18.555 -0.1074 -0.1842  0.0654
  852POPS   D2A10218  12.576  10.660  18.079 -0.0086 -0.0040  0.0225
  852POPS   C3A10219  12.869  10.461  17.803  0.1247  0.2160 -0.0981
  852POPS   C4A10220  13.029  10.177  17.501  0.0161 -0.1416  0.2964
  852POPS   C1B10221  12.589  10.300  18.468  0.2496 -0.0273  0.1485
  852POPS   C2B10222  12.602  10.154  18.048  0.0536 -0.0638  0.2247
  852POPS   C3B10223  12.491  10.138  17.621 -0.0643 -0.1877 -0.3510
  852POPS   C4B10224  12.135  10.134  17.340 -0.2179 -0.0440 -0.1249
  853POPS   CNO10225  11.692  30.311  19.275  0.0263  0.2385  0.2144
  853POPS   PO410226  11.824  30.637  19.323 -0.0513 -0.0053 -0.3529
  853POPS   GL110227  11.828  30.795  18.922  0.1777  0.2590 -0.0807
  853POPS   GL210228  11.716  31.003  18.875 -0.2174  0.2931  0.2259
  853POPS   C1A10229  12.058  30.763  18.494 -0.0357  0.0612  0.1891
  853POPS   D2A10230  12.283  30.575  18.179  0.2600 -0.0118 -0.0471
  853POPS   C3A10231  12.273  30.283  17.847 -0.1002  0.4319  0.1815
  853POPS   C4A10232  12.158  30.258  17.454 -0.2773  0.1976  0.2757
  853POPS   C1B10233  11.544  30.840  18.468 -0.2872 -0.0458 -0.0400
  853POPS   C2B10234  11.748  30.727  18.094  0.0803  0.0260  0.0035
  853POPS   C3B10235  11.724  30.494  17.706  0.0246 -0.2665  0.1862
  853POPS   C4B10236  11.729  30.472  17.285 -0.2492  0.0655  0.0856
  854POPS   CNO10237  13.565  11.992  19.573  0.0563 -0.3177 -0.1866
  854POPS   PO410238  13.651  11.637  19.677 -0.2067 -0.0119 -0.2830
  854POPS   GL110239  13.784  11.617  19.285  0.1226  0.1604  0.0739
  854POPS   GL210240  13.786  11.349  19.289 -0.0048 -0.0678  0.0379
  854POPS   C1A10241  13.646  11.868  18.959 -0.1125  0.2652  0.2026
  854POPS   D2A10242  13.563  12.301  18.757 -0.1395  0.0162 -0.1518
  854POPS   C3A10243  13.520  12.485  18.321  0.2975 -0.4046  0.1495
  854POPS   C4A10244  13.307  12.489  17.939 -0.2124 -0.2885 -0.1817
  854POPS   C1B10245  13.861  11.368  18.861 -0.0195 -0.0620 -0.0585
  854POPS   C2B10246  13.792  11.531  18.454  0.0211 -0.1092  0.0686
  854POPS   C3B10247  13.828  11.648  17.985 -0.2697  0.2834  0.0370
  854POPS   C4B10248  13.853  11.637  17.494  0.0369  0.0339  0.1971
  855POPS   CNO10249  14.343   3.339  19.878  0.3396  0.3094 -0.0399
  855POPS   PO410250  14.191   3.165  19.562  0.0005  0.2636 -0.0774
  855POPS   GL110251  14.145   3.169  19.087  0.1672 -0.0505 -0.0943
  855POPS   GL210252  14.257   3.525  19.009  0.0790  0.0602  0.0027
  855POPS   C1A10253  13.886   3.265  18.714  0.0473 -0.1200  0.0077
  855POPS   D2A10254  13.868   3.310  18.288  0.1277 -0.1758 -0.1912
  855POPS   C3A10255  13.819   3.306  17.848 -0.1464 -0.3780 -0.0191
  855POPS   C4A10256  13.944   2.873  17.648  0.2294  0.0470 -0.0166
  855POPS   C1B10257  14.277   3.502  18.539  0.0072  0.0664 -0.2877
  855POPS   C2B10258  14.487   3.519  18.095  0.0003 -0.0610  0.0892
  855POPS   C3B10259  14.779   3.325  17.818  0.0230 -0.1393  0.0335
  855POPS   C4B10260  15.130   3.062  17.679  0.1567  0.1267  0.0693
  856POPS   CNO10261  13.029  16.577  19.712  0.1084 -0.0389  0.2583
  856POPS   PO410262  13.329  16.662  19.864 -0.0041 -0.1847  0.3236
  856POPS   GL110263  13.536  16.667  19.522  0.0595  0.0938 -0.2293
  856POPS   GL210264  13.750  16.531  19.459  0.1086 -0.0674  0.0062
  856POPS   C1A10265  13.511  17.002  19.185 -0.0437 -0.3126 -0.0062
  856POPS   D2A10266  13.349  17.194  18.750 -0.1814  0.2966 -0.2489
  856POPS   C3A10267  13.375  17.577  18.524  0.4083 -0.0833  0.0698
  856POPS   C4A10268  13.381  17.903  18.291  0.0986  0.0697  0.0028
  856POPS   C1B10269  13.976  16.877  19.286  0.1717 -0.0871  0.0604
  856POPS   C2B10270  14.360  16.904  19.025  0.0738 -0.2046  0.1563
  856POPS   C3B10271  14.521  16.517  18.911  0.2005 -0.1556 -0.1794
  856POPS   C4B10272  14.910  16.362  18.879 -0.0691 -0.0483  0.2114
  857POPS   CNO10273   5.895   1.138  19.189 -0.0157  0.0246  0.1774
  857POPS   PO410274   5.988   0.730  19.118 -0.2471  0.0265 -0.1976
  857POPS   GL110275   6.301   0.703  18.954  0.2554 -0.3011  0.0746
  857POPS   GL210276   6.322   1.014  18.870  0.0683 -0.0087  0.1264
  857POPS   C1A10277   6.609   0.520  18.643  0.2648 -0.1535 -0.0428
  857POPS   D2A10278   6.475   0.185  18.344  0.0496  0.1558  0.0166
  857POPS   C3A10279   6.337   0.423  17.900 -0.2172 -0.1392  0.2703
  857POPS   C4A10280   6.284   0.672  17.475 -0.0985 -0.0526  0.3356
  857POPS   C1B10281   6.329   1.204  18.453  0.0832 -0.1492  0.3549
  857POPS   C2B10282   6.247   1.417  18.030  0.1419  0.0905  0.1404
  857POPS   C3B10283   6.084   1.589  17.624 -0.0275  0.2526 -0.0710
  857POPS   C4B10284   5.685   1.792  17.560 -0.0000  0.1315 -0.0572
  858POPS   CNO10285  13.807   5.799  19.462 -0.1989  0.0835  0.1599
  858POPS   PO410286  13.445   5.956  19.435 -0.4295 -0.2787 -0.0391
  858POPS   GL110287  13.786   6.102  19.123  0.1136  0.2128 -0.4869
  858POPS   GL210288  13.885   6.350  19.198 -0.0453  0.1903 -0.3227
  858POPS   C1A10289  13.598   6.141  18.691  0.2841  0.0169  0.2055
  858POPS   D2A10290  13.770   6.188  18.292 -0.0441 -0.0495  0.1010
  858POPS   C3A10291  14.014   6.275  17.958 -0.3246 -0.0518 -0.0394
  858POPS   C4A10292  14.213   6.462  17.614  0.1101 -0.0494  0.2221
  858POPS   C1B10293  14.184   6.266  18.833 -0.1089 -0.0340  0.1986
  858POPS   C2B10294  14.256   6.282  18.397  0.1787 -0.0103  0.0882
  858POPS   C3B10295  14.614   6.231  18.060  0.1073  0.2298  0.0641
  858POPS   C4B10296  15.090   6.106  17.940  0.0686 -0.0547 -0.2074
  859POPS   CNO10297  13.676   4.609  19.925  0.1252 -0.2116 -0.0209
  859POPS   PO410298  13.683   4.837  19.643  0.3100  0.3512 -0.0614
  859POPS   GL110299  13.826   4.944  19.346 -0.0075  0.0188 -0.4428
  859POPS   GL210300  14.106   4.914  19.419 -0.2863  0.3225  0.1554
  859POPS   C1A10301  13.852   4.856  18.860 -0.1960  0.1773  0.0093
  859POPS   D2A10302  13.944   5.195  18.555  0.1415  0.2842  0.3458
  859POPS   C3A10303  14.285   5.293  18.244  0.0257  0.0307 -0.0914
  859POPS   C4A10304  14.547   5.258  17.827  0.0253  0.3000 -0.0625
  859POPS   C1B10305  14.229   5.322  19.204  0.0833 -0.0480  0.1335
  859POPS   C2B10306  14.378   5.414  18.844 -0.1604 -0.1087 -0.0106
  859POPS   C3B10307  14.606   5.572  18.464  0.0191 -0.2380  0.0793
  859POPS   C4B10308  14.764   5.727  17.998 -0.1537 -0.1445  0.2334
  860SAP2    C110309  13.612   5.580  20.269 -0.0744 -0.1108  0.0217
  860SAP2    C210310  13.507   5.389  20.439 -0.0413 -0.0530  0.1076
  860SAP2    C310311  13.354   5.509  20.166 -0.0385 -0.2426  0.0206
  860SAP2    C410312  13.491   5.493  20.291  0.0007 -0.0000  0.0553
  860SAP2   PO410313  13.923   5.501  20.259  0.0863  0.4210 -0.0191
  860SAP2    P410314  13.112   5.351  20.200  0.0494  0.0434 -0.2144
  860SAP2    P510315  13.241   5.316  20.591 -0.0510 -0.1070  0.1329
  860SAP2   GL110316  13.956   5.322  20.015 -0.0841  0.1883 -0.0158
  860SAP2   GL210317  14.043   5.319  19.801 -0.0851  0.2550 -0.1312
  860SAP2   D1A10318  14.383   5.128  20.144  0.1297  0.1279  0.3227
  860SAP2   D2A10319  14.388   5.588  20.083 -0.0199  0.1489  0.0515
  860SAP2   D3A10320  14.489   6.015  19.896 -0.3406  0.0335  0.1192
  860SAP2   D4A10321  14.183   6.082  19.556 -0.4308 -0.1655  0.0498
  860SAP2   C5A10322  14.359   5.634  19.623 -0.2204  0.0055  0.1397
  860SAP2   C1B10323  14.407   5.153  19.663  0.1613 -0.3133 -0.3008
  860SAP2   C2B10324  14.695   5.362  19.356 -0.1615  0.1020 -0.0393
  860SAP2   C3B10325  14.837   5.714  19.017 -0.1097 -0.2623 -0.4513
  860SAP2   C4B10326  15.064   5.799  18.690  0.0074  0.1203 -0.1610
  861SAP2    C110327   0.893   8.126  20.571 -0.1846 -0.0477 -0.1108
  861SAP2    C210328   0.766   8.371  20.542  0.0574  0.0655 -0.2397
  861SAP2    C310329   0.865   8.237  20.834 -0.0580  0.1294 -0.1705
  861SAP2    C410330   0.842   8.245  20.649  0.0007 -0.0000  0.0553
  861SAP2   PO410331   1.111   8.039  20.320  0.1613 -0.0766 -0.2349
  861SAP2    P410332   0.746   8.502  20.973 -0.0121 -0.0319  0.0600
  861SAP2    P510333   0.529   8.500  20.491 -0.1649  0.1053  0.2494
  861SAP2   GL110334   1.053   8.052  20.011 -0.1093  0.0563 -0.1644
  861SAP2   GL210335   0.774   7.970  19.978  0.0607 -0.1675 -0.0464
  861SAP2   D1A10336   1.033   7.565  20.140  0.0697 -0.1787  0.1334
  861SAP2   D2A10337   0.735   7.198  20.054  0.0698  0.0599  0.2207
  861SAP2   D3A10338   0.474   6.880  20.236 -0.1541 -0.0490 -0.2457
  861SAP2   D4A10339   0.825   6.694  20.022  0.3070 -0.1798  0.1214
  861SAP2   C5A10340   0.621   6.246  19.968 -0.2593 -0.1077 -0.1938
  861SAP2   C1B10341   0.982   7.942  19.576 -0.0687 -0.0054 -0.1240
  861SAP2   C2B10342   1.238   7.846  19.233  0.0310  0.0510  0.0512
  861SAP2   C3B10343   1.408   7.596  18.856 -0.0625 -0.3991  0.0257
  861SAP2   C4B10344   1.256   7.497  18.449 -0.0956 -0.2543  0.4919
  862SAP2    C110345   7.005   9.968  19.450  0.1419 -0.2338 -0.0819
  862SAP2    C210346   7.106  10.029  19.701  0.1355  0.1560 -0.1686
  862SAP2    C310347   6.817   9.868  19.641  0.0631  0.1922  0.0733
  862SAP2    C410348   6.976   9.955  19.598  0.0007 -0.0000  0.0553
  862SAP2   PO410349   7.146   9.968  19.138 -0.1586 -0.1021 -0.1160
  862SAP2    P410350   6.699   9.789  19.885  0.0003 -0.0420 -0.0526
  862SAP2    P510351   6.913  10.240  19.879  0.0338  0.2332 -0.5124
  862SAP2   GL110352   7.104   9.943  18.798  0.1707  0.0445  0.1763
  862SAP2   GL210353   7.108  10.199  18.890  0.3425  0.0013  0.2857
  862SAP2   D1A10354   6.805   9.808  18.467  0.1751  0.1471 -0.1137
  862SAP2   D2A10355   6.990   9.416  18.243 -0.2790 -0.3009  0.1419
  862SAP2   D3A10356   7.228   9.429  17.828 -0.2274 -0.0715  0.1819
  862SAP2   D4A10357   6.959   9.581  17.529  0.1347  0.1624 -0.1209
  862SAP2   C5A10358   6.742   9.700  17.877 -0.1602 -0.5123 -0.0774
  862SAP2   C1B10359   7.280  10.199  18.480  0.2501  0.2801 -0.2693
  862SAP2   C2B10360   7.292  10.304  18.045  0.0187  0.0598  0.0434
  862SAP2   C3B10361   7.384  10.526  17.635  0.2889 -0.1297  0.0866
  862SAP2   C4B10362   7.811  10.588  17.517  0.1646  0.0350  0.2114
  863SAP2    C110363   4.862  28.410  20.112  0.0880 -0.0465  0.2434
  863SAP2    C210364   4.710  28.366  20.339  0.1399 -0.0480  0.2779
  863SAP2    C310365   4.929  28.617  20.298 -0.0322  0.0828  0.1452
  863SAP2    C410366   4.834  28.464  20.250  0.0007 -0.0000  0.0553
  863SAP2   PO410367   4.675  28.310  19.842 -0.0989 -0.1363  0.0673
  863SAP2    P410368   5.043  28.706  20.579 -0.0071  0.0357  0.0312
  863SAP2    P510369   4.820  28.262  20.573  0.0434 -0.0532 -0.1479
  863SAP2   GL110370   4.599  28.362  19.601 -0.2375 -0.2852  0.0566
  863SAP2   GL210371   4.665  28.329  19.329 -0.0934 -0.0214 -0.0155
  863SAP2   D1A10372   4.390  27.954  19.490  0.0639  0.2320  0.0336
  863SAP2   D2A10373   4.298  28.147  19.061  0.0546  0.1331 -0.3578
  863SAP2   D3A10374   3.914  28.046  18.846 -0.1047 -0.4503 -0.0146
  863SAP2   D4A10375   3.933  28.237  18.403 -0.3412  0.1168  0.0751
  863SAP2   C5A10376   3.518  28.309  18.603 -0.0328 -0.2299  0.3437
  863SAP2   C1B10377   4.825  28.098  19.016 -0.2783  0.1481  0.1873
  863SAP2   C2B10378   4.917  27.673  18.828 -0.1887 -0.0414 -0.0033
  863SAP2   C3B10379   5.345  27.494  18.705  0.0809 -0.3710  0.2461
  863SAP2   C4B10380   5.763  27.269  18.858  0.0183  0.0516 -0.1112
  864SAP2    C110381  13.569   6.128  20.606 -0.0263 -0.2151 -0.4052
  864SAP2    C210382  13.432   6.068  20.839  0.2779  0.0901 -0.1364
  864SAP2    C310383  13.307   6.239  20.577  0.0719  0.1441 -0.0054
  864SAP2    C410384  13.436   6.145  20.674  0.0007 -0.0000  0.0553
  864SAP2   PO410385  13.784   5.907  20.539 -0.1032  0.0368 -0.0991
  864SAP2    P410386  13.013   6.237  20.666 -0.2072 -0.2011  0.1418
  864SAP2    P510387  13.302   6.147  21.092 -0.0717 -0.0311 -0.2963
  864SAP2   GL110388  13.997   6.105  20.428 -0.2522  0.0342 -0.2177
  864SAP2   GL210389  14.235   5.968  20.334  0.2286  0.0727 -0.1988
  864SAP2   D1A10390  14.341   6.303  20.667  0.2055  0.2206 -0.0607
  864SAP2   D2A10391  14.499   6.381  20.291  0.1303  0.0409  0.1977
  864SAP2   D3A10392  14.899   6.512  20.512  0.2176 -0.1689  0.1930
  864SAP2   D4A10393  14.987   6.204  20.775  0.0843 -0.1869  0.2774
  864SAP2   C5A10394  15.247   6.566  20.922 -0.2293  0.2053  0.0978
  864SAP2   C1B10395  14.682   5.887  20.417 -0.1864  0.1873 -0.1531
  864SAP2   C2B10396  15.163   5.814  20.365  0.0417  0.0590 -0.0084
  864SAP2   C3B10397  15.348   5.745  19.981  0.2087  0.1570 -0.1367
  864SAP2   C4B10398  15.685   5.721  19.654  0.2979 -0.1481  0.3710
  865SAP2    C110399  15.637   5.418  21.558  0.0343  0.0675  0.0728
  865SAP2    C210400  15.575   5.664  21.669 -0.1055 -0.0200  0.1918
  865SAP2    C310401  15.819   5.458  21.776  0.2085  0.1938 -0.0923
  865SAP2    C410402  15.677   5.513  21.668  0.0007 -0.0000  0.0553
  865SAP2   PO410403  15.556   5.457  21.212 -0.2989  0.4002 -0.1309
  865SAP2    P410404  15.830   5.514  22.076 -0.2178  0.2343  0.0583
  865SAP2    P510405  15.372   5.527  21.938 -0.2364  0.0892  0.0251
  865SAP2   GL110406  15.239   5.490  21.029 -0.2169  0.1125 -0.2447
  865SAP2   GL210407  15.156   5.766  21.021  0.0050  0.0121 -0.1311
  865SAP2   D1A10408  15.534   5.617  20.702  0.4551  0.1937 -0.0571
  865SAP2   D2A10409  15.388   5.325  20.378  0.2278 -0.0517  0.2301
  865SAP2   D3A10410  14.927   5.310  20.292 -0.0175 -0.3766 -0.1586
  865SAP2   D4A10411  14.891   5.191  19.834  0.0660  0.0091  0.2551
  865SAP2   C5A10412  14.837   5.613  19.945 -0.1372 -0.0293  0.2230
  865SAP2   C1B10413  15.459   6.083  20.843  0.1664 -0.2497  0.0259
  865SAP2   C2B10414  15.717   6.344  20.540  0.0887 -0.0681 -0.3086
  865SAP2   C3B10415  16.146   6.408  20.357 -0.0093 -0.1196  0.2947
  865SAP2   C4B10416  16.573   6.360  20.427  0.0966  0.0516  0.1917
  866SAP2    C110417   1.881   0.375  19.689 -0.1048 -0.0108  0.1330
  866SAP2    C210418   1.874   0.294  19.954 -0.1250 -0.0732  0.1137
  866SAP2    C310419   1.920   0.610  19.848 -0.3061 -0.0179  0.1959
  866SAP2    C410420   1.891   0.426  19.830  0.0007 -0.0000  0.0553
  866SAP2   PO410421   1.592   0.296  19.473 -0.0771 -0.1833  0.2899
  866SAP2    P410422   1.859   0.704  20.100  0.0966 -0.0969 -0.2413
  866SAP2    P510423   2.142   0.299  20.108  0.1518 -0.2070  0.0368
  866SAP2   GL110424   1.669   0.440  19.207  0.3120  0.1398 -0.1355
  866SAP2   GL210425   1.597   0.530  18.958 -0.1217  0.0149 -0.2368
  866SAP2   D1A10426   1.177   0.499  19.299 -0.4235 -0.2280 -0.1131
  866SAP2   D2A10427   1.275   0.188  18.921  0.0046  0.1833  0.2519
  866SAP2   D3A10428   1.158   0.348  18.473  0.0378 -0.1330  0.1006
  866SAP2   D4A10429   0.748   0.165  18.395  0.4604 -0.2796 -0.1168
  866SAP2   C5A10430   0.993   0.029  18.023  0.3307  0.1812  0.2236
  866SAP2   C1B10431   1.637   0.464  18.463  0.0016 -0.2796  0.1997
  866SAP2   C2B10432   1.739   0.246  18.050 -0.1838  0.1306  0.1567
  866SAP2   C3B10433   2.025   0.065  17.751  0.2013 -0.1727 -0.2634
  866SAP2   C4B10434   1.950   0.193  17.321  0.2400 -0.0114  0.0089
  867SAP2    C110435   0.337  15.500  20.392  0.1785 -0.4166  0.2018
  867SAP2    C210436   0.289  15.559  20.658  0.1205 -0.4084  0.1895
  867SAP2    C310437   0.177  15.286  20.496 -0.3530 -0.1252  0.0200
  867SAP2    C410438   0.268  15.448  20.515  0.0007 -0.0000  0.0553
  867SAP2   PO410439   0.607  15.508  20.265 -0.0736 -0.2169 -0.1171
  867SAP2    P410440  -0.054  15.108  20.696  0.0361  0.2649  0.4377
  867SAP2    P510441   0.057  15.626  20.783 -0.0945  0.1846 -0.4741
  867SAP2   GL110442   0.464  15.541  19.956  0.3284  0.0414  0.1615
  867SAP2   GL210443   0.246  15.746  19.951  0.0006  0.0845  0.1040
  867SAP2   D1A10444   0.362  15.560  19.471 -0.3401 -0.0208 -0.2554
  867SAP2   D2A10445  -0.006  15.682  19.346  0.2484 -0.0270 -0.0046
  867SAP2   D3A10446   0.193  15.973  19.016 -0.2745 -0.0168 -0.0800
  867SAP2   D4A10447  -0.192  15.836  18.852  0.0406  0.0831  0.1469
  867SAP2   C5A10448   0.170  15.812  18.567 -0.0457 -0.0155  0.2140
  867SAP2   C1B10449  -0.121  16.048  19.844 -0.1110 -0.3498 -0.1905
  867SAP2   C2B10450  -0.031  16.209  19.419 -0.0133 -0.1461  0.3057
  867SAP2   C3B10451  -0.107  16.417  18.994 -0.3097 -0.0467  0.1865
  867SAP2   C4B10452   0.016  16.303  18.560  0.0463 -0.0358 -0.2720
  868SAP2    C110453  13.783   6.962  20.325  0.0115 -0.0926 -0.0435
  868SAP2    C210454  13.675   6.902  20.573 -0.0511  0.2154  0.0090
  868SAP2    C310455  13.757   7.210  20.468  0.0916  0.0729 -0.3094
  868SAP2    C410456  13.738   7.025  20.455  0.0007 -0.0000  0.0553
  868SAP2   PO410457  13.649   6.834  20.088  0.0959 -0.0353 -0.1089
  868SAP2    P410458  13.653   7.328  20.720  0.0140 -0.2629  0.2951
  868SAP2    P510459  13.801   6.838  20.821 -0.1140 -0.1394 -0.2034
  868SAP2   GL110460  13.825   6.704  19.840 -0.2702  0.0940  0.0308
  868SAP2   GL210461  13.646   6.909  19.696 -0.1692  0.0974 -0.0490
  868SAP2   D1A10462  14.110   6.351  19.944 -0.0774  0.2863  0.0923
  868SAP2   D2A10463  14.538   6.509  19.730  0.3377 -0.1786  0.2148
  868SAP2   D3A10464  14.919   6.687  19.980 -0.0535 -0.3225  0.0745
  868SAP2   D4A10465  14.913   6.211  20.071  0.1056  0.0517 -0.0377
  868SAP2   C5A10466  15.318   6.243  20.239  0.3151  0.0745  0.3273
  868SAP2   C1B10467  13.843   6.920  19.303 -0.1070 -0.3196 -0.0313
  868SAP2   C2B10468  14.154   7.077  19.004 -0.2294  0.2799 -0.0604
  868SAP2   C3B10469  14.574   6.985  18.900 -0.0232 -0.2238  0.0858
  868SAP2   C4B10470  15.022   7.036  18.675  0.0269 -0.0186 -0.1611
  869SAP2    C110471  15.819  20.391  19.740  0.2190  0.3456 -0.1018
  869SAP2    C210472  15.841  20.592  19.929  0.1877  0.4214 -0.1774
  869SAP2    C310473  15.581  20.382  19.898  0.2451  0.3313 -0.0630
  869SAP2    C410474  15.747  20.455  19.856  0.0007 -0.0000  0.0553
  869SAP2   PO410475  16.111  20.229  19.631  0.2731  0.0123  0.1983
  869SAP2    P410476  15.442  20.563  20.127  0.0144  0.1873 -0.0509
  869SAP2    P510477  15.743  20.893  19.905 -0.2093 -0.1928  0.0095
  869SAP2   GL110478  16.169  20.381  19.305  0.2212  0.2760 -0.1999
  869SAP2   GL210479  16.479  20.387  19.244 -0.1915 -0.1682 -0.0218
  869SAP2   D1A10480  16.104  20.694  19.012 -0.1885  0.1568 -0.0555
  869SAP2   D2A10481  16.201  21.079  18.751  0.2442  0.1237 -0.1894
  869SAP2   D3A10482  15.875  21.350  18.633 -0.2363 -0.0576  0.3836
  869SAP2   D4A10483  15.557  21.571  18.448 -0.0603 -0.0500 -0.2083
  869SAP2   C5A10484  15.288  21.455  18.078  0.0512 -0.0430  0.1450
  869SAP2   C1B10485  16.362  20.371  18.771  0.2218  0.0435  0.1326
  869SAP2   C2B10486  16.205  20.425  18.339  0.2701  0.1385 -0.3223
  869SAP2   C3B10487  16.162  20.452  17.887  0.1029 -0.1109 -0.2288
  869SAP2   C4B10488  16.322  20.540  17.477 -0.0824  0.4537  0.1331
  870SAP2    C110489   8.989  19.193  20.360 -0.2186 -0.0664 -0.0833
  870SAP2    C210490   8.803  19.175  20.564 -0.1900  0.0012 -0.0510
  870SAP2    C310491   9.126  19.085  20.587 -0.2002 -0.0439 -0.0837
  870SAP2    C410492   8.973  19.151  20.504  0.0007 -0.0000  0.0553
  870SAP2   PO410493   8.942  19.450  20.157  0.0467  0.3449  0.0670
  870SAP2    P410494   9.137  19.046  20.869  0.0248  0.0257 -0.2289
  870SAP2    P510495   8.656  19.059  20.803 -0.2613  0.0242  0.0136
  870SAP2   GL110496   9.121  19.567  20.004 -0.2254  0.1012  0.1008
  870SAP2   GL210497   9.307  19.744  19.856  0.1059 -0.0680  0.2156
  870SAP2   D1A10498   8.849  19.390  19.651 -0.1094 -0.0685  0.2284
  870SAP2   D2A10499   8.472  19.314  19.783 -0.1118 -0.0897  0.2591
  870SAP2   D3A10500   8.432  19.773  19.761 -0.0444  0.1634 -0.1932
  870SAP2   D4A10501   8.894  19.900  19.668 -0.4025 -0.1375 -0.1727
  870SAP2   C5A10502   9.152  20.266  19.535 -0.3013  0.2794 -0.1402
  870SAP2   C1B10503   9.222  19.727  19.400  0.3217  0.0187  0.0102
  870SAP2   C2B10504   9.068  19.442  19.079  0.1947 -0.2958  0.3200
  870SAP2   C3B10505   9.222  19.448  18.657 -0.2696 -0.0150 -0.0300
  870SAP2   C4B10506   9.344  19.319  18.190  0.1039  0.1206  0.2331
  871SAP2    C110507   5.454  19.359  19.160 -0.0029 -0.2059  0.0036
  871SAP2    C210508   5.348  19.602  19.238  0.0720 -0.1094 -0.1903
  871SAP2    C310509   5.527  19.397  19.435 -0.0128 -0.0202 -0.0186
  871SAP2    C410510   5.443  19.453  19.278  0.0007 -0.0000  0.0553
  871SAP2   PO410511   5.622  19.453  18.883  0.1822 -0.0840 -0.0196
  871SAP2    P410512   5.558  19.638  19.667  0.0390 -0.0044 -0.3220
  871SAP2    P510513   5.086  19.650  19.393  0.0013 -0.0018  0.2430
  871SAP2   GL110514   5.525  19.617  18.539 -0.1367  0.3345  0.1102
  871SAP2   GL210515   5.337  19.396  18.487 -0.1174  0.2165  0.0230
  871SAP2   D1A10516   5.605  19.945  18.158 -0.2522 -0.3885 -0.0395
  871SAP2   D2A10517   5.246  20.208  17.902 -0.1048  0.0800  0.2377
  871SAP2   D3A10518   5.455  19.860  17.640 -0.0834 -0.1577 -0.0738
  871SAP2   D4A10519   5.315  19.534  17.988 -0.1893 -0.0447 -0.3288
  871SAP2   C5A10520   5.441  19.338  17.619 -0.2572 -0.0621  0.1100
  871SAP2   C1B10521   5.336  19.074  18.118  0.2931  0.4931  0.2438
  871SAP2   C2B10522   5.490  18.900  17.730 -0.0223  0.0892  0.1452
  871SAP2   C3B10523   5.771  18.798  17.362 -0.1938 -0.0547  0.0362
  871SAP2   C4B10524   6.052  18.719  16.995 -0.1126  0.2400 -0.1011
  872SAP2    C110525   7.678   2.031  19.667  0.2672 -0.0874 -0.0551
  872SAP2    C210526   7.553   1.910  19.883  0.1337 -0.0242 -0.0964
  872SAP2    C310527   7.865   2.033  19.884  0.2625 -0.3435 -0.0452
  872SAP2    C410528   7.699   1.991  19.811  0.0007 -0.0000  0.0553
  872SAP2   PO410529   7.485   2.213  19.473 -0.1021  0.2303 -0.0203
  872SAP2    P410530   8.029   2.039  20.129 -0.3055 -0.0127  0.0436
  872SAP2    P510531   7.608   1.627  20.084  0.1037 -0.2516  0.0400
  872SAP2   GL110532   7.653   2.399  19.325 -0.4109 -0.0890  0.0514
  872SAP2   GL210533   7.534   2.373  19.011  0.0921  0.0867 -0.1619
  872SAP2   D1A10534   7.338   2.740  19.303  0.0156 -0.0976 -0.0257
  872SAP2   D2A10535   7.052   2.580  18.958  0.4394 -0.0293  0.0507
  872SAP2   D3A10536   6.902   2.910  18.750 -0.2541  0.1152 -0.1264
  872SAP2   D4A10537   7.119   3.232  18.484 -0.0470  0.1413 -0.0787
  872SAP2   C5A10538   7.580   3.219  18.383 -0.1315 -0.0093 -0.0017
  872SAP2   C1B10539   7.554   2.399  18.549  0.0649  0.0053 -0.0123
  872SAP2   C2B10540   7.724   2.648  18.196  0.0662 -0.1984  0.3229
  872SAP2   C3B10541   8.013   2.535  17.854 -0.1063 -0.0399 -0.0708
  872SAP2   C4B10542   8.152   2.566  17.355 -0.1522 -0.1641 -0.2318
  873SAP2    C110543   1.712  19.135  19.345  0.1709  0.0470 -0.0025
  873SAP2    C210544   1.792  19.143  19.610 -0.0167  0.1636  0.0533
  873SAP2    C310545   1.538  18.958  19.490  0.0784  0.0984 -0.0495
  873SAP2    C410546   1.681  19.079  19.482  0.0007 -0.0000  0.0553
  873SAP2   PO410547   1.929  19.133  19.136  0.0863  0.0150 -0.3759
  873SAP2    P410548   1.481  18.868  19.786  0.5109  0.4708 -0.0578
  873SAP2    P510549   1.691  19.234  19.909 -0.1382  0.1947 -0.3025
  873SAP2   GL110550   1.827  19.264  18.879  0.0447 -0.3734 -0.0180
  873SAP2   GL210551   1.620  19.429  18.970  0.2915  0.1217  0.0026
  873SAP2   D1A10552   1.969  18.865  18.679  0.1354 -0.0631  0.0268
  873SAP2   D2A10553   1.649  18.693  18.973  0.0346  0.1674 -0.3668
  873SAP2   D3A10554   1.404  18.588  18.615  0.0053 -0.2271  0.1793
  873SAP2   D4A10555   1.484  18.464  18.153  0.1596  0.4496 -0.0830
  873SAP2   C5A10556   1.563  17.983  18.277  0.0368  0.0481 -0.1112
  873SAP2   C1B10557   1.471  19.054  18.686 -0.2164  0.3490 -0.0955
  873SAP2   C2B10558   1.409  19.000  18.238  0.2109 -0.0824  0.1959
  873SAP2   C3B10559   1.621  19.256  17.893  0.3959  0.1476  0.0469
  873SAP2   C4B10560   1.696  19.500  17.512 -0.2327 -0.1162 -0.1764
  874SAP2    C110561  10.250   7.080  20.296 -0.0735  0.1591 -0.0163
  874SAP2    C210562  10.435   6.876  20.319  0.0255  0.1837 -0.4869
  874SAP2    C310563  10.126   6.873  20.451  0.2598  0.0342  0.0915
  874SAP2    C410564  10.270   6.943  20.355  0.0007 -0.0000  0.0553
  874SAP2   PO410565  10.311   7.202  19.980  0.1819 -0.3577 -0.3810
  874SAP2    P410566  10.042   6.680  20.719 -0.1012 -0.2567  0.0586
  874SAP2    P510567  10.511   6.637  20.536  0.2145  0.0676  0.0201
  874SAP2   GL110568  10.421   7.477  19.947  0.0013  0.1973  0.0815
  874SAP2   GL210569  10.208   7.735  19.918  0.2744  0.0620  0.2721
  874SAP2   D1A10570  10.815   7.601  19.807 -0.2193 -0.0241  0.2264
  874SAP2   D2A10571  10.744   7.733  19.391 -0.0779 -0.4605 -0.0240
  874SAP2   D3A10572  10.370   7.952  19.398  0.0254  0.0585  0.0096
  874SAP2   D4A10573   9.984   7.786  19.251  0.0117 -0.2228 -0.3290
  874SAP2   C5A10574   9.817   7.972  18.887  0.1461  0.4888 -0.0631
  874SAP2   C1B10575   9.998   8.123  19.684  0.0331  0.0102 -0.0181
  874SAP2   C2B10576   9.885   8.346  19.215 -0.0755 -0.0882 -0.1140
  874SAP2   C3B10577   9.817   8.542  18.756  0.0568 -0.0559  0.0023
  874SAP2   C4B10578   9.667   8.862  18.483  0.2083 -0.4153  0.1001
  875SAP2    C110579  14.854  11.900  19.634  0.0539  0.0686 -0.3795
  875SAP2    C210580  14.806  12.085  19.835  0.1289  0.0192 -0.3153
  875SAP2    C310581  15.000  11.813  19.865 -0.2472 -0.2562 -0.3033
  875SAP2    C410582  14.887  11.933  19.778  0.0007 -0.0000  0.0553
  875SAP2   PO410583  14.881  12.127  19.374  0.0552 -0.1206 -0.2090
  875SAP2    P410584  15.030  11.835  20.179  0.2060 -0.2081 -0.0831
  875SAP2    P510585  14.586  11.968  20.129  0.3398  0.1756  0.1210
  875SAP2   GL110586  14.962  11.881  19.106 -0.3783  0.1047  0.0679
  875SAP2   GL210587  15.123  12.009  18.939 -0.2487 -0.2538  0.0714
  875SAP2   D1A10588  14.641  12.078  18.817 -0.2381 -0.0757 -0.0960
  875SAP2   D2A10589  14.911  12.384  18.675  0.2689  0.1511  0.0904
  875SAP2   D3A10590  15.339  12.386  18.665 -0.0717  0.2158  0.1948
  875SAP2   D4A10591  15.217  12.840  18.758  0.0904 -0.2292  0.3747
  875SAP2   C5A10592  15.010  12.782  18.379 -0.1287 -0.2822 -0.0521
  875SAP2   C1B10593  15.252  11.765  18.576  0.3899  0.1790  0.2152
  875SAP2   C2B10594  15.234  11.809  18.140  0.1456 -0.0387 -0.1345
  875SAP2   C3B10595  15.108  11.916  17.642 -0.5085 -0.0275 -0.1068
  875SAP2   C4B10596  15.143  12.257  17.255 -0.0008 -0.2035  0.4227
  876SAP2    C110597  14.421  16.757  20.405 -0.1785  0.0359  0.0748
  876SAP2    C210598  14.474  16.543  20.573  0.0700  0.0623  0.0340
  876SAP2    C310599  14.346  16.838  20.669 -0.0112 -0.0059  0.1368
  876SAP2    C410600  14.414  16.713  20.549  0.0007 -0.0000  0.0553
  876SAP2   PO410601  14.347  16.706  20.134  0.1049 -0.2213  0.3700
  876SAP2    P410602  14.320  16.774  20.952  0.1503 -0.1265  0.1926
  876SAP2    P510603  14.671  16.351  20.713 -0.1971 -0.5347 -0.3102
  876SAP2   GL110604  14.524  16.666  19.840  0.3057  0.1140  0.1869
  876SAP2   GL210605  14.255  16.539  19.683  0.1073 -0.0321 -0.2119
  876SAP2   D1A10606  14.941  16.530  19.703 -0.0596 -0.1349 -0.1271
  876SAP2   D2A10607  15.160  16.923  19.680 -0.0380  0.0904 -0.1857
  876SAP2   D3A10608  15.379  17.122  19.357 -0.0957 -0.1240 -0.0823
  876SAP2   D4A10609  15.724  16.772  19.314 -0.0158  0.0520 -0.2778
  876SAP2   C5A10610  16.088  16.625  19.651 -0.3112  0.0550  0.1333
  876SAP2   C1B10611  14.597  16.724  19.421 -0.0457 -0.3504 -0.2797
  876SAP2   C2B10612  14.867  17.009  19.227 -0.0735  0.0107  0.2056
  876SAP2   C3B10613  15.181  17.098  18.910  0.0144 -0.1635  0.3241
  876SAP2   C4B10614  15.225  16.983  18.402  0.1355 -0.0618  0.3559
  877SAP2    C110615   1.207   2.642  19.478  0.3018 -0.2897 -0.0287
  877SAP2    C210616   1.266   2.404  19.606  0.2725 -0.2647  0.0321
  877SAP2    C310617   1.184   2.691  19.760  0.0176 -0.2917 -0.0488
  877SAP2    C410618   1.219   2.579  19.615  0.0007 -0.0000  0.0553
  877SAP2   PO410619   1.032   2.522  19.218 -0.0342 -0.1403  0.0624
  877SAP2    P410620   1.168   2.634  20.038 -0.1766  0.1779  0.0439
  877SAP2    P510621   1.464   2.250  19.765 -0.2727 -0.0082  0.0938
  877SAP2   GL110622   1.194   2.528  18.960  0.0896 -0.4849  0.1853
  877SAP2   GL210623   1.436   2.408  18.812  0.0592  0.0758 -0.0852
  877SAP2   D1A10624   0.888   2.301  18.652  0.2219  0.1245  0.0238
  877SAP2   D2A10625   0.946   2.366  18.170 -0.1933 -0.0809  0.1148
  877SAP2   D3A10626   1.158   2.711  18.416  0.0123 -0.0441  0.0677
  877SAP2   D4A10627   1.007   3.011  18.090 -0.1241 -0.0866  0.1988
  877SAP2   C5A10628   0.747   2.756  17.868  0.2553 -0.0969  0.2412
  877SAP2   C1B10629   1.419   2.220  18.426  0.0597  0.2892 -0.2286
  877SAP2   C2B10630   1.353   2.147  17.944 -0.0295 -0.1900  0.1554
  877SAP2   C3B10631   1.012   2.221  17.655 -0.1335 -0.1470  0.0119
  877SAP2   C4B10632   0.597   2.403  17.512 -0.1454 -0.1489  0.0367
  878SAP2    C110633  11.965   1.173  19.789 -0.0999  0.0290 -0.1628
  878SAP2    C210634  12.169   0.987  19.768 -0.1085  0.0195 -0.1625
  878SAP2    C310635  11.844   0.925  19.714 -0.1455 -0.0341  0.1093
  878SAP2    C410636  11.993   1.028  19.757  0.0007 -0.0000  0.0553
  878SAP2   PO410637  12.070   1.479  19.649  0.0803 -0.0984 -0.0780
  878SAP2    P410638  11.895   0.644  19.650  0.1913  0.1215 -0.1383
  878SAP2    P510639  12.251   0.775  19.955 -0.1243 -0.1992 -0.1527
  878SAP2   GL110640  12.206   1.524  19.351 -0.1614  0.0355 -0.3883
  878SAP2   GL210641  12.447   1.712  19.365  0.2755  0.1250  0.0916
  878SAP2   D1A10642  11.939   1.596  19.011  0.1445 -0.1211 -0.2273
  878SAP2   D2A10643  12.116   1.195  18.869  0.3203 -0.0144 -0.3881
  878SAP2   D3A10644  11.692   1.048  18.999  0.1027 -0.0259  0.1803
  878SAP2   D4A10645  11.291   1.226  18.822 -0.2105 -0.1253 -0.2155
  878SAP2   C5A10646  11.176   1.489  19.134  0.0842 -0.0871 -0.1206
  878SAP2   C1B10647  12.637   1.504  19.031  0.1029  0.0484 -0.0814
  878SAP2   C2B10648  12.894   1.670  18.635 -0.0779 -0.3089 -0.0439
  878SAP2   C3B10649  13.185   1.956  18.369 -0.2459 -0.1557 -0.2095
  878SAP2   C4B10650  13.392   2.049  17.973  0.2179 -0.1871 -0.0395
  879SAP2    C110651  13.278  10.831  19.442 -0.0599 -0.3331  0.0648
  879SAP2    C210652  13.111  10.722  19.634 -0.1319 -0.1518  0.1071
  879SAP2    C310653  13.205  11.044  19.619  0.1868 -0.2440  0.0629
  879SAP2    C410654  13.198  10.865  19.565  0.0007 -0.0000  0.0553
  879SAP2   PO410655  13.154  10.700  19.168  0.1309 -0.0436  0.3967
  879SAP2    P410656  12.996  11.164  19.877  0.1243  0.4370  0.1995
  879SAP2    P510657  12.911  10.659  19.888  0.2263 -0.0765  0.0428
  879SAP2   GL110658  13.108  10.744  18.792 -0.0328 -0.1185  0.1837
  879SAP2   GL210659  13.087  10.737  18.581 -0.3280  0.0347 -0.1428
  879SAP2   D1A10660  13.305  10.328  18.874  0.4002  0.1223  0.0654
  879SAP2   D2A10661  13.504  10.186  18.532 -0.1168  0.2950 -0.0353
  879SAP2   D3A10662  13.029  10.073  18.498  0.0214 -0.1106 -0.2417
  879SAP2   D4A10663  13.065  10.370  18.252  0.2193 -0.1769  0.0215
  879SAP2   C5A10664  13.403  10.262  17.996  0.0050  0.0650 -0.0102
  879SAP2   C1B10665  13.293  10.893  18.202 -0.2392 -0.0384  0.1993
  879SAP2   C2B10666  13.221  10.853  17.775  0.1475  0.1267 -0.2318
  879SAP2   C3B10667  12.925  10.760  17.413 -0.0240  0.1531 -0.0141
  879SAP2   C4B10668  12.791  10.718  16.996  0.1569  0.0113  0.0064
  880SAP2    C110669  15.089   9.452  19.524 -0.3943 -0.0294 -0.0566
  880SAP2    C210670  15.199   9.253  19.683 -0.3890 -0.0451 -0.0797
  880SAP2    C310671  14.969   9.477  19.783 -0.0174  0.2687  0.0982
  880SAP2    C410672  15.085   9.394  19.663  0.0007 -0.0000  0.0553
  880SAP2   PO410673  15.056   9.293  19.231  0.0401  0.0764 -0.1766
  880SAP2    P410674  14.829   9.445  20.070 -0.1227 -0.1602 -0.0899
  880SAP2    P510675  15.304   9.247  19.981  0.0051 -0.1774 -0.1119
  880SAP2   GL110676  14.821   9.242  18.964 -0.2385 -0.0697  0.4575
  880SAP2   GL210677  15.061   9.075  18.872 -0.0481  0.2258 -0.0622
  880SAP2   D1A10678  14.689   8.823  18.751 -0.1121  0.1314  0.0044
  880SAP2   D2A10679  15.109   8.735  18.523  0.3311  0.0001  0.5017
  880SAP2   D3A10680  15.466   8.819  18.403 -0.0916 -0.2797 -0.0439
  880SAP2   D4A10681  15.515   8.394  18.301  0.2893  0.0326 -0.2183
  880SAP2   C5A10682  15.136   8.383  18.038  0.0131 -0.0298  0.1294
  880SAP2   C1B10683  15.159   9.222  18.453  0.0917  0.0305  0.1168
  880SAP2   C2B10684  15.171   9.416  18.027 -0.0088  0.0030  0.1281
  880SAP2   C3B10685  15.004   9.641  17.644  0.1514  0.2650  0.1786
  880SAP2   C4B10686  14.778   9.611  17.225 -0.2457  0.1756  0.3267
  881SAP2    C110687   4.318   9.632  19.738 -0.0975  0.2081  0.0681
  881SAP2    C210688   4.202   9.445  19.907  0.0509  0.0690  0.0186
  881SAP2    C310689   4.421   9.682  20.001 -0.0908  0.1809  0.0706
  881SAP2    C410690   4.314   9.586  19.882  0.0007 -0.0000  0.0553
  881SAP2   PO410691   4.099   9.673  19.435  0.1855 -0.2193  0.1983
  881SAP2    P410692   4.400   9.609  20.325  0.0113  0.0625 -0.3770
  881SAP2    P510693   4.118   9.304  20.198  0.2707  0.1325 -0.2165
  881SAP2   GL110694   3.954   9.963  19.301  0.1462  0.1290  0.0419
  881SAP2   GL210695   3.930   9.901  18.987 -0.0192  0.0587 -0.2395
  881SAP2   D1A10696   4.084  10.404  19.210 -0.1867  0.0969  0.0603
  881SAP2   D2A10697   4.216  10.836  19.215  0.2166 -0.0896 -0.2761
  881SAP2   D3A10698   4.457  10.596  19.552 -0.1402 -0.3225  0.1724
  881SAP2   D4A10699   4.554  10.438  19.141 -0.0071 -0.1342 -0.1410
  881SAP2   C5A10700   4.341  10.405  18.683 -0.1113  0.2105  0.0705
  881SAP2   C1B10701   3.926  10.156  18.623 -0.1626  0.0323 -0.0790
  881SAP2   C2B10702   4.013  10.524  18.325 -0.0256  0.1221  0.0263
  881SAP2   C3B10703   4.219  10.404  17.924 -0.0775 -0.0292 -0.1488
  881SAP2   C4B10704   4.448  10.228  17.599  0.2992  0.0362  0.4172
  882POPC   NC310705  14.599  27.852  15.136  0.1419  0.2399  0.1496
  882POPC   PO410706  14.369  28.128  15.246 -0.0707  0.0823  0.0334
  882POPC   GL110707  14.435  28.148  15.579  0.1135  0.1042  0.1148
  882POPC   GL210708  14.542  27.868  15.737 -0.0271  0.0756  0.1136
  882POPC   C1A10709  14.627  28.237  16.004  0.2070  0.0356 -0.2274
  882POPC   D2A10710  14.874  28.335  16.300 -0.0912  0.0314 -0.0578
  882POPC   C3A10711  15.073  28.647  16.577 -0.1481  0.1112  0.0414
  882POPC   C4A10712  15.259  28.643  16.965 -0.0666  0.0030  0.2022
  882POPC   C1B10713  14.630  27.622  16.123  0.1491 -0.2023 -0.0006
  882POPC   C2B10714  14.635  27.524  16.553  0.2483 -0.1612  0.2536
  882POPC   C3B10715  14.531  27.677  16.991  0.2173  0.0861 -0.0948
  882POPC   C4B10716  14.474  27.385  17.339  0.1242 -0.1214  0.1444
  883POPC   NC310717   1.645   0.382  15.110 -0.1266  0.1135  0.3388
  883POPC   PO410718   1.371   0.630  15.274  0.1625 -0.2318  0.2902
  883POPC   GL110719   1.250   0.803  15.565  0.0177  0.0130 -0.1845
  883POPC   GL210720   0.971   0.642  15.617 -0.2285  0.0434  0.1430
  883POPC   C1A10721   1.132   1.038  15.955  0.0522 -0.0376 -0.0944
  883POPC   D2A10722   1.022   1.226  16.372 -0.1625  0.0972 -0.0506
  883POPC   C3A10723   0.750   1.667  16.477  0.0963 -0.1747  0.0180
  883POPC   C4A10724   0.702   1.983  16.763  0.3081  0.0317 -0.0209
  883POPC   C1B10725   0.912   0.598  16.145  0.1976 -0.0544  0.0131
  883POPC   C2B10726   1.100   0.683  16.543  0.0547  0.1053  0.1309
  883POPC   C3B10727   1.157   0.704  16.987  0.2047  0.0316 -0.2195
  883POPC   C4B10728   1.109   0.665  17.448  0.0094  0.3773  0.1274
  884POPC   NC310729  13.029  11.840  15.347 -0.0549  0.1967 -0.0715
  884POPC   PO410730  13.132  11.500  15.257 -0.1956  0.1551  0.2950
  884POPC   GL110731  13.271  11.283  15.521 -0.1726  0.3329  0.0686
  884POPC   GL210732  13.150  11.367  15.748  0.1663  0.3484 -0.0484
  884POPC   C1A10733  13.684  11.169  15.678 -0.1635 -0.0770  0.3804
  884POPC   D2A10734  13.936  11.167  16.118 -0.3053 -0.0285  0.3409
  884POPC   C3A10735  14.324  10.960  15.945 -0.0545  0.2770  0.1977
  884POPC   C4A10736  14.524  10.733  15.624  0.1994  0.1198  0.1311
  884POPC   C1B10737  13.417  11.375  16.112  0.1523  0.1393 -0.0645
  884POPC   C2B10738  13.635  11.528  16.478 -0.1832  0.2648 -0.0916
  884POPC   C3B10739  13.804  11.732  16.879 -0.0884  0.1467  0.2466
  884POPC   C4B10740  14.174  11.831  17.070  0.2594 -0.0440 -0.2771
  885POPC   NC310741  11.553  19.535  15.284 -0.2102  0.0525  0.1362
  885POPC   PO410742  11.292  19.828  15.178  0.0263  0.2335 -0.2178
  885POPC   GL110743  11.207  19.860  15.575  0.0181 -0.6220 -0.0112
  885POPC   GL210744  10.961  19.790  15.672 -0.0161 -0.0098 -0.1117
  885POPC   C1A10745  11.347  19.447  15.793 -0.0753 -0.1121 -0.2557
  885POPC   D2A10746  11.162  19.026  15.655 -0.1273  0.1622  0.3605
  885POPC   C3A10747  11.143  18.562  15.820  0.1058 -0.1095 -0.0203
  885POPC   C4A10748  10.926  18.100  15.791  0.3748 -0.2923  0.0918
  885POPC   C1B10749  10.870  19.810  16.122  0.0219  0.2354 -0.2191
  885POPC   C2B10750  10.981  19.862  16.581  0.0637  0.2092  0.1108
  885POPC   C3B10751  11.362  19.734  16.790 -0.0547  0.0784 -0.2211
  885POPC   C4B10752  11.657  19.907  17.072 -0.0655 -0.1469  0.0764
  886POPC   NC310753   3.389   2.143  15.390  0.2180  0.1240 -0.2200
  886POPC   PO410754   3.337   2.442  15.150 -0.2548  0.0237  0.0233
  886POPC   GL110755   3.427   2.529  15.568 -0.3024 -0.2555  0.1333
  886POPC   GL210756   3.205   2.531  15.695  0.0839 -0.2588  0.2905
  886POPC   C1A10757   3.654   2.346  15.944  0.0299 -0.0641 -0.2364
  886POPC   D2A10758   4.115   2.142  16.017 -0.1353 -0.4791  0.2012
  886POPC   C3A10759   4.344   2.017  16.435  0.1624  0.2268  0.0194
  886POPC   C4A10760   4.722   2.222  16.616  0.0356  0.0749 -0.0611
  886POPC   C1B10761   3.124   2.062  15.821  0.2200 -0.1120 -0.0546
  886POPC   C2B10762   2.958   1.856  16.273 -0.0522 -0.0568 -0.0685
  886POPC   C3B10763   3.096   2.039  16.700  0.0681  0.0002 -0.2264
  886POPC   C4B10764   3.382   2.192  17.045 -0.0255 -0.0901  0.0226
  887POPC   NC310765   1.017  16.042  15.315  0.1207  0.0150 -0.3180
  887POPC   PO410766   0.922  15.676  15.438 -0.1000  0.2813  0.0028
  887POPC   GL110767   0.908  15.399  15.681 -0.3759 -0.0579  0.2368
  887POPC   GL210768   1.140  15.333  15.794  0.0697 -0.1604  0.1934
  887POPC   C1A10769   0.737  15.529  16.058 -0.0232 -0.0979 -0.1260
  887POPC   D2A10770   0.934  15.745  16.436  0.1116 -0.5663  0.1197
  887POPC   C3A10771   0.711  15.941  16.802 -0.1873 -0.2055 -0.2389
  887POPC   C4A10772   0.572  16.410  16.764  0.2135  0.0642  0.1380
  887POPC   C1B10773   1.258  15.643  16.126 -0.1029  0.3609 -0.1277
  887POPC   C2B10774   1.414  15.768  16.547  0.3440 -0.1379  0.0437
  887POPC   C3B10775   1.321  15.964  16.952  0.2369 -0.2433 -0.0052
  887POPC   C4B10776   1.162  15.946  17.366 -0.1513 -0.0227 -0.0108
  888POPC   NC310777   3.596  12.158  15.428  0.1666  0.1506  0.1011
  888POPC   PO410778   3.967  12.149  15.486  0.1624 -0.0211 -0.0688
  888POPC   GL110779   3.826  12.135  15.881  0.1858  0.2665  0.1230
  888POPC   GL210780   3.595  12.375  15.853 -0.2866 -0.0809 -0.2501
  888POPC   C1A10781   3.676  11.722  15.983  0.0302 -0.0614  0.0349
  888POPC   D2A10782   3.869  11.296  16.017 -0.2281 -0.1948 -0.0034
  888POPC   C3A10783   4.279  11.087  16.229  0.1841  0.0741 -0.1279
  888POPC   C4A10784   4.701  11.167  16.187  0.0712  0.2155  0.0115
  888POPC   C1B10785   3.986  12.521  16.130 -0.1701  0.0097 -0.1388
  888POPC   C2B10786   4.030  12.369  16.572 -0.3854 -0.2778 -0.1091
  888POPC   C3B10787   3.711  12.124  16.768  0.0847 -0.2587 -0.1398
  888POPC   C4B10788   3.458  11.880  17.036  0.1001  0.1501 -0.1345
  889POPC   NC310789   5.213  22.311  15.575 -0.3890 -0.3455 -0.1721
  889POPC   PO410790   5.032  22.201  15.252  0.1098 -0.1388  0.4135
  889POPC   GL110791   4.766  22.133  15.504  0.2471  0.0766 -0.0204
  889POPC   GL210792   4.683  22.392  15.640  0.2187 -0.0684  0.1157
  889POPC   C1A10793   4.380  22.020  15.734  0.0678  0.1698 -0.1635
  889POPC   D2A10794   4.257  21.945  16.210  0.0515  0.0072 -0.0273
  889POPC   C3A10795   3.935  21.743  16.526 -0.0429 -0.1421  0.1523
  889POPC   C4A10796   3.581  21.820  16.768  0.0326 -0.2966  0.3650
  889POPC   C1B10797   4.691  22.271  16.150  0.3732 -0.1411  0.1412
  889POPC   C2B10798   4.682  21.854  16.313  0.1258  0.0588 -0.0218
  889POPC   C3B10799   4.427  21.621  16.668 -0.2663 -0.1709 -0.0985
  889POPC   C4B10800   4.369  21.354  16.985 -0.1175 -0.2987 -0.3053
  890POPC   NC310801   9.152  29.596  15.437  0.1137  0.2330  0.1372
  890POPC   PO410802   8.896  29.323  15.283  0.1194  0.1120  0.0274
  890POPC   GL110803   8.890  29.238  15.671  0.0314  0.0173 -0.5945
  890POPC   GL210804   8.902  29.419  15.878 -0.1615  0.2969  0.1250
  890POPC   C1A10805   9.015  28.939  15.999  0.1135 -0.1871  0.1432
  890POPC   D2A10806   8.675  28.798  16.209  0.2709 -0.0150 -0.0017
  890POPC   C3A10807   8.698  28.854  16.687 -0.1441  0.2996  0.1758
  890POPC   C4A10808   8.700  28.978  17.140  0.1202  0.0265  0.0922
  890POPC   C1B10809   8.608  29.503  16.301 -0.5949 -0.2846  0.1671
  890POPC   C2B10810   8.166  29.687  16.383 -0.1571 -0.0352 -0.2352
  890POPC   C3B10811   7.828  29.922  16.652 -0.0016 -0.1015 -0.0165
  890POPC   C4B10812   7.848  30.214  17.018  0.3659  0.0983  0.2267
  891POPC   NC310813   3.966  27.231  15.629  0.1614 -0.0588  0.0145
  891POPC   PO410814   4.311  27.139  15.761 -0.3464 -0.1379 -0.2373
  891POPC   GL110815   4.268  26.958  16.125  0.2356  0.0884  0.1098
  891POPC   GL210816   4.321  26.654  16.094 -0.0524  0.0374 -0.0695
  891POPC   C1A10817   4.456  27.186  16.483 -0.2141 -0.0877  0.3388
  891POPC   D2A10818   4.753  27.212  16.773 -0.2369 -0.0510  0.0197
  891POPC   C3A10819   4.682  27.299  17.170 -0.2091 -0.3365  0.2323
  891POPC   C4A10820   4.677  27.113  17.584 -0.2180 -0.0381  0.1817
  891POPC   C1B10821   4.564  26.679  16.505 -0.2512  0.2238 -0.1237
  891POPC   C2B10822   4.448  26.755  16.978 -0.2534 -0.2118  0.1125
  891POPC   C3B10823   4.269  26.938  17.355 -0.5291  0.1197 -0.0447
  891POPC   C4B10824   3.973  26.964  17.702  0.1707  0.1017 -0.5403
  892POPC   NC310825  10.343   1.057  15.220 -0.1148 -0.5424  0.0888
  892POPC   PO410826  10.098   1.275  15.442  0.1814  0.2166  0.0879
  892POPC   GL110827  10.076   1.408  15.827 -0.3453  0.1781  0.2205
  892POPC   GL210828   9.902   1.115  15.903  0.0972 -0.0800  0.2613
  892POPC   C1A10829  10.113   1.550  16.291  0.1416 -0.0851 -0.1126
  892POPC   D2A10830   9.857   1.655  16.716  0.1925 -0.0329 -0.0041
  892POPC   C3A10831  10.043   1.428  17.030  0.2903 -0.0879 -0.0267
  892POPC   C4A10832  10.386   1.230  17.252  0.0657  0.4855  0.2408
  892POPC   C1B10833   9.770   1.233  16.335 -0.0940  0.2033 -0.0032
  892POPC   C2B10834   9.780   1.084  16.780  0.0994  0.1589 -0.1557
  892POPC   C3B10835   9.658   1.078  17.197 -0.0385  0.3450  0.0321
  892POPC   C4B10836   9.814   1.066  17.610  0.1672 -0.1920 -0.1195
  893POPC   NC310837  14.078  26.809  15.392  0.0934  0.3584  0.1605
  893POPC   PO410838  14.243  26.443  15.389 -0.3915  0.3705 -0.0788
  893POPC   GL110839  14.096  26.369  15.758  0.0693  0.0536 -0.0943
  893POPC   GL210840  14.012  26.635  15.840  0.1239  0.2941  0.0940
  893POPC   C1A10841  14.058  26.276  16.171  0.1776 -0.1315  0.0542
  893POPC   D2A10842  14.301  26.024  16.477  0.2170 -0.0377  0.0956
  893POPC   C3A10843  14.342  25.672  16.682 -0.1525 -0.0626  0.0081
  893POPC   C4A10844  14.419  25.449  17.066 -0.0074  0.1851 -0.0483
  893POPC   C1B10845  13.981  26.851  16.226  0.1970  0.1872 -0.2416
  893POPC   C2B10846  14.090  26.843  16.672  0.2124  0.0770  0.0559
  893POPC   C3B10847  14.235  26.760  17.090 -0.3240  0.1228 -0.2831
  893POPC   C4B10848  14.275  26.921  17.488  0.0825 -0.2971  0.0559
  894POPC   NC310849   8.714  19.519  15.630  0.0307 -0.0964 -0.0048
  894POPC   PO410850   8.406  19.643  15.405  0.1389  0.1150  0.0512
  894POPC   GL110851   8.267  19.470  15.605 -0.0096 -0.3908 -0.4352
  894POPC   GL210852   8.117  19.200  15.734  0.2636 -0.3898 -0.0909
  894POPC   C1A10853   8.221  19.600  16.088 -0.0289 -0.1769  0.2495
  894POPC   D2A10854   8.053  19.629  16.471 -0.1124 -0.1023 -0.1766
  894POPC   C3A10855   7.999  19.721  16.912 -0.0115 -0.0754  0.1430
  894POPC   C4A10856   7.954  19.608  17.350  0.3278  0.1291  0.1140
  894POPC   C1B10857   7.900  19.208  16.142  0.0851  0.2816  0.0433
  894POPC   C2B10858   7.658  19.293  16.504  0.2330 -0.0256  0.0588
  894POPC   C3B10859   7.891  19.104  16.831 -0.0985 -0.1306  0.1308
  894POPC   C4B10860   8.010  18.835  17.141  0.0725 -0.0050 -0.0031
  895POPC   NC310861  13.034   0.738  15.102  0.0627 -0.0825  0.1910
  895POPC   PO410862  12.743   0.995  14.995  0.1499  0.1033 -0.1132
  895POPC   GL110863  12.536   0.998  15.302 -0.2890 -0.2706  0.1518
  895POPC   GL210864  12.753   1.119  15.490 -0.0585  0.0603 -0.0592
  895POPC   C1A10865  12.348   0.786  15.696 -0.1072  0.0417  0.1584
  895POPC   D2A10866  12.294   0.599  16.104 -0.3733  0.1802  0.1991
  895POPC   C3A10867  12.423   0.965  16.344  0.0628  0.3680  0.0348
  895POPC   C4A10868  12.464   1.323  16.626 -0.1133  0.1703 -0.1461
  895POPC   C1B10869  12.700   1.152  15.934 -0.1879  0.2586  0.0154
  895POPC   C2B10870  12.858   1.129  16.360  0.0102  0.2833 -0.0003
  895POPC   C3B10871  13.117   0.966  16.749 -0.0336  0.3031 -0.1597
  895POPC   C4B10872  13.297   0.921  17.160 -0.0472  0.0247  0.3714
  896POPC   NC310873  15.711  10.201  15.440 -0.2475 -0.0216 -0.0675
  896POPC   PO410874  15.437   9.980  15.261 -0.0260  0.2781 -0.0065
  896POPC   GL110875  15.109   9.988  15.600  0.0348  0.1086  0.1170
  896POPC   GL210876  15.285  10.197  15.706 -0.3898  0.5193  0.2936
  896POPC   C1A10877  15.071   9.697  15.973 -0.0764  0.2082  0.2683
  896POPC   D2A10878  15.061   9.812  16.380  0.1801  0.1847 -0.3178
  896POPC   C3A10879  15.017   9.914  16.825  0.0997  0.2399 -0.1657
  896POPC   C4A10880  15.241   9.943  17.216  0.0378  0.1145  0.1326
  896POPC   C1B10881  15.309  10.297  16.173  0.1691  0.1746 -0.0210
  896POPC   C2B10882  15.050  10.471  16.486 -0.1318  0.1617  0.1002
  896POPC   C3B10883  14.797  10.650  16.830 -0.0411 -0.0984  0.2844
  896POPC   C4B10884  14.575  11.085  16.973 -0.0067  0.3330  0.0506
  897POPC   NC310885   9.642  20.846  15.240  0.0400 -0.0458  0.0495
  897POPC   PO410886   9.654  20.451  15.330 -0.0972  0.0310 -0.2707
  897POPC   GL110887   9.528  20.375  15.670  0.3882  0.0724  0.3275
  897POPC   GL210888   9.224  20.226  15.751  0.0012  0.0938 -0.1013
  897POPC   C1A10889   9.659  20.420  16.107  0.0435 -0.2502 -0.2844
  897POPC   D2A10890   9.820  20.297  16.484  0.1043 -0.0406  0.0236
  897POPC   C3A10891   9.685  20.405  16.880  0.0746  0.0908  0.3568
  897POPC   C4A10892   9.498  20.737  17.094 -0.0046 -0.2072 -0.1892
  897POPC   C1B10893   9.157  20.557  16.062  0.3534 -0.0197  0.2241
  897POPC   C2B10894   9.248  20.609  16.515  0.1152  0.0815 -0.1389
  897POPC   C3B10895   9.175  20.357  16.961 -0.1788 -0.3628 -0.2262
  897POPC   C4B10896   9.342  20.337  17.387  0.0377  0.2517  0.1857
  898POPC   NC310897   4.609  24.386  15.425  0.0828 -0.3969 -0.1183
  898POPC   PO410898   4.221  24.225  15.406 -0.2470 -0.0827 -0.1535
  898POPC   GL110899   4.155  24.197  15.827 -0.4137  0.2732 -0.2579
  898POPC   GL210900   4.252  23.922  15.854 -0.0522  0.0044 -0.2058
  898POPC   C1A10901   4.235  24.379  16.270 -0.1648 -0.2504 -0.1898
  898POPC   D2A10902   4.083  24.680  16.620  0.1051 -0.1728 -0.0175
  898POPC   C3A10903   4.044  24.449  17.024  0.0908  0.0367  0.0952
  898POPC   C4A10904   4.237  24.023  17.126 -0.2522  0.0425 -0.0223
  898POPC   C1B10905   4.397  23.934  16.304  0.0665  0.0481 -0.0011
  898POPC   C2B10906   4.619  23.929  16.675  0.0580  0.1389  0.1153
  898POPC   C3B10907   4.716  23.999  17.090  0.4095  0.0883  0.0558
  898POPC   C4B10908   4.842  24.204  17.543  0.3704 -0.0028  0.0126
  899POPC   NC310909  10.378  14.639  14.647 -0.0079 -0.0826  0.1934
  899POPC   PO410910  10.498  15.016  14.692 -0.0399  0.0988 -0.2003
  899POPC   GL110911  10.754  15.190  14.955  0.5631 -0.1070  0.0167
  899POPC   GL210912  10.594  15.401  15.111  0.0003 -0.1365 -0.1985
  899POPC   C1A10913  11.219  15.059  15.108 -0.0711  0.1905 -0.1609
  899POPC   D2A10914  11.589  14.828  15.225 -0.1236 -0.0796  0.1209
  899POPC   C3A10915  11.739  15.034  15.546  0.2060  0.0363  0.1144
  899POPC   C4A10916  12.018  15.233  15.897  0.0724 -0.1005 -0.0288
  899POPC   C1B10917  10.942  15.413  15.399 -0.2827  0.1762  0.1536
  899POPC   C2B10918  11.210  15.086  15.629 -0.0639  0.0553  0.0872
  899POPC   C3B10919  11.501  15.121  15.997  0.0639  0.2182 -0.1076
  899POPC   C4B10920  11.778  15.334  16.331 -0.1163  0.2898  0.0494
  900POPC   NC310921   8.831  20.181  15.268  0.1108 -0.1180 -0.4153
  900POPC   PO410922   8.862  19.963  15.577 -0.2456 -0.0680  0.2040
  900POPC   GL110923   8.853  20.118  15.991 -0.3036 -0.3784  0.0283
  900POPC   GL210924   8.656  19.945  16.126 -0.0849 -0.1873  0.0866
  900POPC   C1A10925   8.738  20.298  16.402  0.1496 -0.0007  0.1509
  900POPC   D2A10926   8.786  20.057  16.752  0.0354 -0.2041 -0.0359
  900POPC   C3A10927   8.790  20.050  17.184  0.5147 -0.0536  0.1247
  900POPC   C4A10928   8.887  20.036  17.608 -0.2114 -0.1527 -0.0743
  900POPC   C1B10929   8.567  19.725  16.485  0.0097  0.1430 -0.3891
  900POPC   C2B10930   8.551  19.650  16.953  0.0790 -0.1103  0.2593
  900POPC   C3B10931   8.475  19.652  17.404  0.0626 -0.2122 -0.3337
  900POPC   C4B10932   8.488  19.644  17.868  0.0996 -0.0825 -0.2679
  901POPC   NC310933  13.309  29.467  15.566  0.0004 -0.2368  0.1684
  901POPC   PO410934  12.957  29.477  15.372  0.5021 -0.3507 -0.0462
  901POPC   GL110935  12.811  29.639  15.755 -0.2352 -0.0461  0.1445
  901POPC   GL210936  13.056  29.885  15.851 -0.1203 -0.0589 -0.3165
  901POPC   C1A10937  12.687  29.643  16.177  0.1793 -0.3990  0.1317
  901POPC   D2A10938  12.810  29.626  16.591  0.0637 -0.1048  0.4249
  901POPC   C3A10939  13.073  29.757  16.993 -0.1750  0.2350  0.1574
  901POPC   C4A10940  13.372  30.076  17.196  0.3683  0.1104  0.0394
  901POPC   C1B10941  13.125  29.442  16.017 -0.0210  0.0229  0.1989
  901POPC   C2B10942  13.075  29.259  16.428 -0.1293  0.2187  0.1152
  901POPC   C3B10943  12.939  29.223  16.886  0.1488 -0.1207 -0.0045
  901POPC   C4B10944  12.613  29.587  17.047  0.1758  0.1515  0.0262
  902POPC   NC310945   9.769   9.333  15.378  0.3528 -0.1964  0.0929
  902POPC   PO410946  10.071   9.466  15.590  0.2919  0.0199  0.1731
  902POPC   GL110947   9.852   9.199  15.881  0.0718  0.0865  0.0412
  902POPC   GL210948   9.888   9.402  16.113 -0.2234  0.1284  0.0301
  902POPC   C1A10949   9.751   9.003  16.308  0.0361  0.2767  0.2380
  902POPC   D2A10950   9.652   9.004  16.760 -0.2470 -0.2087  0.3205
  902POPC   C3A10951   9.673   8.659  17.042 -0.0687  0.1884  0.2481
  902POPC   C4A10952   9.435   8.489  17.414 -0.0249 -0.0219 -0.1511
  902POPC   C1B10953  10.104   9.300  16.514  0.0776 -0.0474  0.0770
  902POPC   C2B10954  10.348   9.163  16.910 -0.1115 -0.1136 -0.0479
  902POPC   C3B10955  10.215   9.043  17.335 -0.0402  0.0932 -0.1948
  902POPC   C4B10956  10.467   8.969  17.758 -0.0687 -0.0776 -0.0747
  903POPC   NC310957   4.330  29.570  15.216  0.3141 -0.0804 -0.5182
  903POPC   PO410958   4.295  29.387  15.597 -0.0183  0.3612  0.0829
  903POPC   GL110959   4.175  29.755  15.815  0.0761  0.2306 -0.0566
  903POPC   GL210960   4.397  29.891  15.627  0.1186  0.0967 -0.1851
  903POPC   C1A10961   4.212  29.691  16.300  0.3185 -0.0656 -0.1408
  903POPC   D2A10962   4.010  29.812  16.681  0.3033 -0.2262 -0.1020
  903POPC   C3A10963   3.968  29.449  16.896  0.0018  0.0494  0.1852
  903POPC   C4A10964   3.760  29.277  17.237  0.1561  0.0780  0.1929
  903POPC   C1B10965   4.378  30.067  16.057 -0.0025 -0.1327 -0.0877
  903POPC   C2B10966   4.205  30.211  16.441  0.0874  0.3725 -0.1035
  903POPC   C3B10967   4.049  30.278  16.822  0.3013  0.1102 -0.2300
  903POPC   C4B10968   3.910  30.215  17.273  0.0278 -0.0253  0.3961
  904POPC   NC310969  14.704  21.375  15.119 -0.2018  0.1107  0.1354
  904POPC   PO410970  14.536  21.625  15.367 -0.2909  0.0457 -0.2876
  904POPC   GL110971  14.439  21.571  15.724 -0.0167  0.1400 -0.2760
  904POPC   GL210972  14.229  21.410  15.872 -0.2969 -0.0056  0.1951
  904POPC   C1A10973  14.377  21.870  16.084 -0.1251 -0.0803  0.1365
  904POPC   D2A10974  14.767  21.884  16.317 -0.1498 -0.1254 -0.0034
  904POPC   C3A10975  15.063  22.210  16.222 -0.0478  0.0565  0.1268
  904POPC   C4A10976  15.448  22.473  16.415  0.0214  0.0846 -0.0246
  904POPC   C1B10977  14.332  21.461  16.315 -0.0076  0.1484  0.2446
  904POPC   C2B10978  14.531  21.520  16.685  0.0021  0.1173 -0.3791
  904POPC   C3B10979  14.714  21.590  17.086  0.1306 -0.1726  0.5789
  904POPC   C4B10980  14.902  21.609  17.495 -0.0608  0.3300  0.1119
  905POPC   NC310981  14.826   3.898  15.950 -0.0107 -0.1348 -0.0863
  905POPC   PO410982  14.671   3.633  15.758  0.3891 -0.0690 -0.1967
  905POPC   GL110983  14.719   3.366  16.087  0.0423 -0.0905 -0.1325
  905POPC   GL210984  14.659   3.107  15.993 -0.0426  0.0032  0.3473
  905POPC   C1A10985  14.410   3.379  16.467  0.1167 -0.3125 -0.1869
  905POPC   D2A10986  14.273   3.480  16.849  0.2321  0.1795  0.1722
  905POPC   C3A10987  14.489   3.572  17.222  0.0918  0.0917 -0.2379
  905POPC   C4A10988  14.557   3.779  17.671  0.0291  0.0718 -0.2431
  905POPC   C1B10989  14.715   3.043  16.449  0.1128  0.0370 -0.0679
  905POPC   C2B10990  14.726   3.173  16.839  0.0214  0.0616 -0.1295
  905POPC   C3B10991  14.772   2.953  17.257 -0.1974  0.1127 -0.2681
  905POPC   C4B10992  14.580   2.767  17.688 -0.1540 -0.3478  0.0925
  906POPC   NC310993   3.499  28.049  15.357 -0.1833  0.0175  0.0256
  906POPC   PO410994   3.648  28.441  15.314  0.1564 -0.3697 -0.2707
  906POPC   GL110995   3.791  28.496  15.632 -0.0026 -0.1270  0.2653
  906POPC   GL210996   3.718  28.282  15.842 -0.0477 -0.1602  0.3947
  906POPC   C1A10997   3.971  28.754  15.968 -0.0548 -0.1518 -0.4700
  906POPC   D2A10998   4.061  28.600  16.404  0.2375 -0.0634 -0.0625
  906POPC   C3A10999   4.134  28.561  16.838 -0.0150  0.0716  0.2954
  906POPC   C4A11000   4.216  28.391  17.267 -0.0419  0.0740  0.1096
  906POPC   C1B11001   3.655  28.423  16.298  0.2682 -0.0144 -0.1451
  906POPC   C2B11002   3.658  28.514  16.727 -0.2657 -0.1819 -0.0701
  906POPC   C3B11003   3.676  28.718  17.096 -0.2230  0.0759 -0.0780
  906POPC   C4B11004   3.790  28.806  17.490  0.0184  0.1981  0.0754
  907POPC   NC311005   0.030  17.507  15.786  0.1433  0.1241  0.2648
  907POPC   PO411006   0.346  17.727  15.679  0.1081 -0.3694 -0.3179
  907POPC   GL111007   0.530  17.944  15.898  0.1103 -0.2974  0.1523
  907POPC   GL211008   0.724  17.824  15.974  0.1121  0.0365  0.0549
  907POPC   C1A11009   0.478  18.275  16.267 -0.3459  0.2757 -0.0378
  907POPC   D2A11010   0.589  18.324  16.708 -0.0719 -0.0454  0.0701
  907POPC   C3A11011   1.013  18.408  16.775  0.1055  0.1409  0.0802
  907POPC   C4A11012   1.429  18.405  16.880  0.1006  0.1158  0.2568
  907POPC   C1B11013   0.401  17.822  16.296  0.0553  0.0245  0.2041
  907POPC   C2B11014   0.250  17.907  16.742  0.1594  0.0052  0.1133
  907POPC   C3B11015  -0.026  18.048  17.093  0.0230  0.3789  0.1636
  907POPC   C4B11016  -0.167  17.952  17.574 -0.1702 -0.0853 -0.1041
  908POPC   NC311017   2.017  12.223  15.409  0.4639 -0.1119  0.0397
  908POPC   PO411018   1.730  12.195  15.116 -0.0631 -0.0869 -0.0859
  908POPC   GL111019   1.549  12.380  15.358  0.4017  0.3146  0.1083
  908POPC   GL211020   1.486  12.207  15.587  0.3868 -0.0312  0.1611
  908POPC   C1A11021   1.758  12.608  15.727 -0.0999 -0.0752 -0.4747
  908POPC   D2A11022   1.948  12.541  16.172 -0.0394 -0.1059 -0.0206
  908POPC   C3A11023   1.577  12.642  16.416 -0.0216  0.0678 -0.2678
  908POPC   C4A11024   1.611  12.567  16.900  0.0758  0.1150 -0.0073
  908POPC   C1B11025   1.493  12.309  16.056 -0.1101 -0.0382  0.0638
  908POPC   C2B11026   1.438  12.219  16.532  0.0493 -0.0668  0.0991
  908POPC   C3B11027   1.612  11.984  16.850  0.2453  0.1391 -0.1467
  908POPC   C4B11028   1.608  11.683  17.203 -0.0869  0.0568  0.0763
  909POPC   NC311029   4.455  15.387  14.938  0.0495 -0.1951 -0.0047
  909POPC   PO411030   4.163  15.545  15.150  0.1210  0.0303  0.1510
  909POPC   GL111031   4.145  15.233  15.414 -0.0072 -0.1847  0.1376
  909POPC   GL211032   4.432  15.243  15.423 -0.2743  0.2355  0.1049
  909POPC   C1A11033   4.071  15.394  15.829 -0.0487  0.2532  0.0810
  909POPC   D2A11034   3.759  15.484  16.121  0.1409 -0.0506  0.1123
  909POPC   C3A11035   3.882  15.573  16.567  0.0302 -0.1390  0.0835
  909POPC   C4A11036   3.836  15.774  16.983  0.3509  0.4213  0.0816
  909POPC   C1B11037   4.557  15.258  15.823  0.1578  0.4066  0.1556
  909POPC   C2B11038   4.704  15.215  16.271  0.2160  0.0794 -0.1454
  909POPC   C3B11039   4.823  15.166  16.688  0.0181  0.1411 -0.0183
  909POPC   C4B11040   5.168  15.371  16.998 -0.0690  0.0021 -0.2169
  910POPC   NC311041   9.759  25.442  15.406  0.0195  0.1698 -0.0578
  910POPC   PO411042   9.911  25.676  15.139  0.0014  0.0985  0.5315
  910POPC   GL111043   9.724  25.958  15.383  0.0868  0.0671 -0.0006
  910POPC   GL211044   9.929  25.986  15.582 -0.5099 -0.3903  0.0080
  910POPC   C1A11045   9.485  26.034  15.763  0.1566 -0.2818  0.0111
  910POPC   D2A11046   9.511  25.997  16.201  0.2825 -0.1450 -0.1496
  910POPC   C3A11047   9.552  26.283  16.573  0.1788 -0.1457  0.4725
  910POPC   C4A11048   9.271  26.364  16.872  0.1772  0.2427  0.0808
  910POPC   C1B11049   9.911  26.170  16.018  0.0729  0.1777 -0.2480
  910POPC   C2B11050  10.021  26.199  16.471  0.1877 -0.1508 -0.0114
  910POPC   C3B11051  10.096  25.813  16.740  0.6605 -0.2949 -0.2147
  910POPC   C4B11052  10.121  25.340  16.694  0.0967  0.1484 -0.1590
  911POPC   NC311053   9.356  15.971  15.182 -0.1508 -0.1106  0.2589
  911POPC   PO411054   9.118  15.736  15.007 -0.5351  0.0916 -0.4171
  911POPC   GL111055   9.170  15.630  15.389  0.0757 -0.0479  0.0373
  911POPC   GL211056   8.976  15.807  15.505 -0.2013 -0.1226 -0.2943
  911POPC   C1A11057   9.391  15.567  15.761  0.0776  0.0536  0.2514
  911POPC   D2A11058   9.746  15.332  15.942 -0.0389  0.3034 -0.1810
  911POPC   C3A11059   9.913  15.285  16.394 -0.4469 -0.1139  0.0973
  911POPC   C4A11060  10.030  15.319  16.855 -0.3728 -0.1268  0.1976
  911POPC   C1B11061   8.849  15.551  15.873 -0.0811 -0.3766  0.1519
  911POPC   C2B11062   9.064  15.242  16.178  0.0391 -0.1545 -0.0564
  911POPC   C3B11063   9.408  15.310  16.505  0.0113 -0.0761  0.0426
  911POPC   C4B11064   9.649  14.999  16.738  0.0275  0.0158 -0.0717
  912POPC   NC311065   3.526   3.230  15.284 -0.1245  0.4544 -0.3092
  912POPC   PO411066   3.586   2.874  15.319  0.3380  0.0568  0.0815
  912POPC   GL111067   3.699   3.039  15.687 -0.3574 -0.1714 -0.0284
  912POPC   GL211068   3.398   2.969  15.793  0.0971 -0.0884 -0.1055
  912POPC   C1A11069   3.836   3.145  16.134  0.0358  0.1998  0.4236
  912POPC   D2A11070   3.827   3.463  16.471 -0.1495  0.0308 -0.0700
  912POPC   C3A11071   3.537   3.519  16.775  0.3162  0.0750  0.0093
  912POPC   C4A11072   3.271   3.663  17.109  0.1982  0.0084 -0.2930
  912POPC   C1B11073   3.421   2.723  16.211 -0.0558  0.1965  0.1338
  912POPC   C2B11074   3.566   2.536  16.593  0.1241 -0.0647  0.0612
  912POPC   C3B11075   3.886   2.544  16.957  0.0331  0.0305  0.0061
  912POPC   C4B11076   4.295   2.686  17.155  0.4241  0.0713 -0.1007
  913POPC   NC311077  14.468   9.800  15.097  0.0404 -0.1799  0.0910
  913POPC   PO411078  14.532   9.563  15.428 -0.0992 -0.2442 -0.0969
  913POPC   GL111079  14.761   9.304  15.693 -0.2798 -0.0820  0.5466
  913POPC   GL211080  14.573   9.406  15.921  0.0370  0.0038 -0.2579
  913POPC   C1A11081  14.945   9.090  16.068  0.0896  0.4069 -0.0285
  913POPC   D2A11082  15.047   9.327  16.442 -0.0411  0.2352 -0.1630
  913POPC   C3A11083  14.843   9.163  16.826 -0.0004 -0.4046  0.2094
  913POPC   C4A11084  14.728   8.877  17.200 -0.3485  0.1765 -0.1382
  913POPC   C1B11085  14.559   9.498  16.373 -0.2705 -0.1057 -0.1494
  913POPC   C2B11086  14.576   9.667  16.782 -0.0319  0.2296 -0.2634
  913POPC   C3B11087  14.584  10.059  17.054  0.0126  0.2753 -0.3793
  913POPC   C4B11088  14.377  10.209  17.443  0.5865 -0.0771  0.0364
  914POPC   NC311089   1.299  27.946  15.269  0.5094 -0.2248  0.1189
  914POPC   PO411090   1.219  27.599  15.153  0.2534 -0.0927  0.0890
  914POPC   GL111091   1.388  27.485  15.531  0.2170 -0.3449  0.3520
  914POPC   GL211092   1.284  27.725  15.747  0.2239  0.0176 -0.4960
  914POPC   C1A11093   1.615  27.440  15.945  0.0723  0.0761  0.0768
  914POPC   D2A11094   1.420  27.458  16.362 -0.2823 -0.2063  0.0092
  914POPC   C3A11095   1.359  27.208  16.792  0.0618  0.1053  0.0517
  914POPC   C4A11096   1.269  26.861  17.042 -0.4050 -0.2509  0.0365
  914POPC   C1B11097   1.586  27.898  16.118  0.0506  0.1336  0.1581
  914POPC   C2B11098   1.665  27.859  16.564 -0.3237 -0.0512  0.1357
  914POPC   C3B11099   1.803  27.526  16.827 -0.0132  0.0517  0.0693
  914POPC   C4B11100   1.898  27.309  17.222  0.0410 -0.2175  0.3195
  915POPC   NC311101   6.626  26.587  14.970  0.1349 -0.0747 -0.0406
  915POPC   PO411102   6.350  26.839  15.050  0.0850  0.0899 -0.2057
  915POPC   GL111103   6.475  26.692  15.411 -0.0946  0.2501  0.1968
  915POPC   GL211104   6.598  26.973  15.612 -0.2456  0.0678 -0.1067
  915POPC   C1A11105   6.369  26.581  15.853  0.0041 -0.0689  0.2928
  915POPC   D2A11106   6.464  26.508  16.261  0.0532  0.1242  0.3929
  915POPC   C3A11107   6.188  26.349  16.607 -0.0462  0.0106  0.1490
  915POPC   C4A11108   5.806  26.094  16.717 -0.1465 -0.4431  0.5130
  915POPC   C1B11109   6.693  26.951  16.018  0.2272  0.1289 -0.1247
  915POPC   C2B11110   6.914  27.127  16.425  0.2232  0.2741 -0.2060
  915POPC   C3B11111   7.193  27.187  16.839 -0.0783  0.0245 -0.2925
  915POPC   C4B11112   7.438  27.156  17.253 -0.1782  0.2088  0.1157
  916POPC   NC311113  13.409  15.995  14.894  0.3061 -0.3293 -0.2505
  916POPC   PO411114  13.671  15.913  15.177 -0.1983  0.1345  0.0104
  916POPC   GL111115  13.491  15.988  15.544  0.1635  0.2494 -0.1129
  916POPC   GL211116  13.561  15.752  15.744  0.2018  0.2244 -0.0720
  916POPC   C1A11117  13.057  15.864  15.766  0.0375 -0.1145  0.1870
  916POPC   D2A11118  12.735  15.758  16.132  0.2252 -0.0665 -0.3361
  916POPC   C3A11119  12.644  15.910  16.539 -0.2320  0.3315  0.0945
  916POPC   C4A11120  12.428  16.034  16.938  0.0091 -0.2047  0.3448
  916POPC   C1B11121  13.531  15.710  16.181  0.1460 -0.2819 -0.2348
  916POPC   C2B11122  13.552  15.841  16.636  0.1417  0.0602 -0.0253
  916POPC   C3B11123  13.553  16.017  17.090 -0.1453  0.0450 -0.2529
  916POPC   C4B11124  13.391  16.169  17.503 -0.0803 -0.2467 -0.2512
  917POPC   NC311125   7.379   7.382  14.334  0.2118  0.1087  0.2973
  917POPC   PO411126   7.533   7.738  14.470  0.0774  0.0697 -0.1582
  917POPC   GL111127   7.538   7.974  14.689  0.0605  0.0428  0.4534
  917POPC   GL211128   7.317   8.135  14.664  0.1984 -0.0307 -0.0341
  917POPC   C1A11129   7.623   8.228  15.062  0.1752  0.3295  0.5094
  917POPC   D2A11130   7.381   8.224  15.429  0.1204 -0.2427  0.2730
  917POPC   C3A11131   7.329   7.810  15.722  0.2500  0.1307  0.0171
  917POPC   C4A11132   7.372   7.736  16.163 -0.1661  0.2717  0.3192
  917POPC   C1B11133   7.177   7.885  15.026 -0.0367  0.0677 -0.1162
  917POPC   C2B11134   6.921   7.600  15.321 -0.2878 -0.2073 -0.1560
  917POPC   C3B11135   6.622   7.359  15.525 -0.1228  0.1420  0.1579
  917POPC   C4B11136   6.433   7.215  15.943 -0.1842 -0.3548  0.2186
  918POPC   NC311137   8.399   8.337  15.246 -0.1298 -0.2470  0.2113
  918POPC   PO411138   8.266   7.963  15.280  0.0746  0.0159 -0.0470
  918POPC   GL111139   8.016   7.917  15.544  0.1895 -0.1686 -0.0333
  918POPC   GL211140   7.906   8.216  15.503 -0.1858 -0.2635 -0.0505
  918POPC   C1A11141   7.852   7.649  15.889 -0.0321 -0.1790  0.0674
  918POPC   D2A11142   7.797   7.443  16.295  0.1356 -0.0421  0.1683
  918POPC   C3A11143   7.596   7.689  16.610 -0.1750  0.2089  0.3824
  918POPC   C4A11144   7.500   7.908  16.978  0.0949  0.0613 -0.0050
  918POPC   C1B11145   7.666   8.198  15.912  0.2497  0.1067  0.4021
  918POPC   C2B11146   7.242   8.283  16.022  0.2773 -0.0549 -0.0162
  918POPC   C3B11147   6.924   8.229  16.368 -0.0117  0.3453  0.0647
  918POPC   C4B11148   6.717   7.951  16.647 -0.0701  0.0949 -0.0067
  919POPC   NC311149   8.834  21.838  15.395 -0.2159 -0.0828 -0.2302
  919POPC   PO411150   9.092  22.121  15.405  0.0111 -0.1779 -0.1939
  919POPC   GL111151   8.999  22.051  15.766 -0.3756  0.2743  0.0351
  919POPC   GL211152   9.048  21.757  15.894 -0.0070  0.1225  0.2217
  919POPC   C1A11153   9.194  22.219  16.127 -0.0052 -0.1787 -0.0631
  919POPC   D2A11154   9.217  21.866  16.500 -0.3300 -0.4043 -0.1665
  919POPC   C3A11155   9.264  21.621  16.917 -0.0898  0.1732 -0.0112
  919POPC   C4A11156   9.455  21.593  17.367  0.2960  0.1648 -0.0302
  919POPC   C1B11157   8.821  21.980  16.219  0.0882 -0.1006 -0.1439
  919POPC   C2B11158   8.408  22.153  16.326  0.2447  0.2102 -0.2228
  919POPC   C3B11159   8.061  22.052  15.994 -0.0331  0.1244 -0.2622
  919POPC   C4B11160   7.639  21.935  15.923  0.3954  0.2515  0.2113
  920POPC   NC311161   2.757  15.380  15.329  0.0042  0.2068  0.0251
  920POPC   PO411162   2.398  15.601  15.328 -0.1168  0.1271  0.0344
  920POPC   GL111163   2.470  15.704  15.632  0.1008 -0.0815 -0.3202
  920POPC   GL211164   2.315  15.807  15.807  0.0291 -0.2045 -0.2490
  920POPC   C1A11165   2.815  15.802  15.945  0.0756 -0.1831  0.0399
  920POPC   D2A11166   3.119  15.664  16.278  0.0080 -0.3125 -0.4388
  920POPC   C3A11167   2.992  15.467  16.703  0.1291  0.1123 -0.0940
  920POPC   C4A11168   2.999  15.100  16.991  0.0436  0.0688 -0.0558
  920POPC   C1B11169   2.179  15.425  15.990 -0.1298  0.0985  0.0908
  920POPC   C2B11170   2.240  15.238  16.388  0.0922 -0.1766  0.0471
  920POPC   C3B11171   2.602  15.165  16.617  0.2092  0.0107 -0.2629
  920POPC   C4B11172   2.988  15.049  16.467 -0.0864  0.1545  0.3457
  921POPC   NC311173   1.562  22.390  14.904  0.0016  0.0173  0.2044
  921POPC   PO411174   1.253  22.408  15.185  0.0747 -0.0809  0.1043
  921POPC   GL111175   1.219  22.142  15.515 -0.3481  0.0457 -0.1743
  921POPC   GL211176   0.958  22.168  15.551 -0.0290 -0.3775  0.0996
  921POPC   C1A11177   1.456  22.011  15.919 -0.1494 -0.1619  0.1339
  921POPC   D2A11178   1.751  22.151  16.218 -0.2927  0.3234  0.1158
  921POPC   C3A11179   1.971  22.576  16.227 -0.1428 -0.0355 -0.3784
  921POPC   C4A11180   2.156  22.879  16.529  0.0955 -0.1720 -0.0874
  921POPC   C1B11181   0.917  22.100  16.028  0.0103  0.0267 -0.0788
  921POPC   C2B11182   0.876  22.157  16.482  0.0460  0.3317 -0.0737
  921POPC   C3B11183   0.845  22.456  16.862 -0.2177 -0.4628  0.0678
  921POPC   C4B11184   0.997  22.413  17.261  0.4551  0.0242 -0.0207
  922POPC   NC311185  13.748  11.897  14.912 -0.1630 -0.0757 -0.1644
  922POPC   PO411186  13.603  11.991  15.303 -0.3094 -0.0413  0.1905
  922POPC   GL111187  13.406  11.930  15.608  0.0711 -0.2231 -0.1194
  922POPC   GL211188  13.554  11.709  15.770 -0.1276 -0.0781 -0.1305
  922POPC   C1A11189  13.036  12.018  15.911 -0.0380 -0.1807  0.0550
  922POPC   D2A11190  13.031  12.170  16.314 -0.0442  0.1155  0.0259
  922POPC   C3A11191  12.680  12.117  16.590 -0.0957  0.0450 -0.1819
  922POPC   C4A11192  12.682  12.059  17.023  0.0612  0.1847 -0.0991
  922POPC   C1B11193  13.404  11.857  16.201  0.1910  0.1620 -0.0305
  922POPC   C2B11194  13.009  11.742  16.549  0.0513 -0.1112  0.1465
  922POPC   C3B11195  12.653  11.576  16.848 -0.0323  0.1087  0.0882
  922POPC   C4B11196  12.663  11.199  17.109 -0.0042  0.0628  0.1452
  923POPC   NC311197  15.358  23.539  15.256  0.1504  0.0655  0.3062
  923POPC   PO411198  15.750  23.521  15.216 -0.0515 -0.0095 -0.1004
  923POPC   GL111199  15.680  23.434  15.573 -0.0756  0.1146  0.0415
  923POPC   GL211200  15.492  23.521  15.734  0.0251  0.0245  0.0112
  923POPC   C1A11201  15.620  23.011  15.768  0.2259 -0.0179  0.1456
  923POPC   D2A11202  15.610  22.590  15.927  0.1143  0.1278  0.0955
  923POPC   C3A11203  15.906  22.575  16.298  0.2474 -0.1461 -0.0052
  923POPC   C4A11204  15.783  22.724  16.686  0.0853 -0.0474 -0.1897
  923POPC   C1B11205  15.580  23.408  16.135 -0.0888  0.0300 -0.0315
  923POPC   C2B11206  15.783  23.635  16.397  0.2224  0.1029 -0.1280
  923POPC   C3B11207  16.133  23.676  16.693  0.0858  0.1436 -0.1971
  923POPC   C4B11208  16.321  23.455  17.078  0.0909 -0.1194 -0.0274
  924POPC   NC311209   8.163  29.816  15.616 -0.0699  0.2891  0.0889
  924POPC   PO411210   8.107  30.008  15.274 -0.0610  0.2500  0.3318
  924POPC   GL111211   8.089  30.292  15.542  0.1245  0.2753  0.0221
  924POPC   GL211212   8.150  30.563  15.483 -0.1269 -0.1941 -0.1680
  924POPC   C1A11213   8.145  30.244  15.990  0.0937  0.1133 -0.1433
  924POPC   D2A11214   8.075  30.347  16.413  0.2045  0.0390 -0.0311
  924POPC   C3A11215   8.351  30.420  16.789 -0.3596  0.5482  0.0268
  924POPC   C4A11216   8.748  30.221  16.984  0.2384 -0.1022 -0.1143
  924POPC   C1B11217   8.096  30.698  15.891  0.1438  0.1133 -0.3064
  924POPC   C2B11218   7.959  30.809  16.291 -0.0473  0.5081 -0.1404
  924POPC   C3B11219   7.882  30.740  16.759 -0.1183 -0.3221  0.3504
  924POPC   C4B11220   7.931  31.139  17.117 -0.1699 -0.1494 -0.2242
  925POPC   NC311221   4.496   4.983  15.093  0.1233 -0.0308 -0.0440
  925POPC   PO411222   4.232   5.204  14.918  0.2029 -0.0567  0.3079
  925POPC   GL111223   4.149   5.241  15.286 -0.0993 -0.3583  0.3811
  925POPC   GL211224   3.837   5.284  15.368 -0.0604  0.0087 -0.2187
  925POPC   C1A11225   4.549   5.288  15.550  0.3694 -0.1213  0.4220
  925POPC   D2A11226   4.612   5.163  15.993  0.2833 -0.2206 -0.0417
  925POPC   C3A11227   4.490   4.727  16.034 -0.1372 -0.3162 -0.0600
  925POPC   C4A11228   4.198   4.551  15.737  0.3913  0.1495  0.0814
  925POPC   C1B11229   4.096   5.043  15.677 -0.0164 -0.0216 -0.1065
  925POPC   C2B11230   4.119   5.053  16.117 -0.1435 -0.1469  0.1371
  925POPC   C3B11231   3.899   5.047  16.514  0.3368  0.1830 -0.0122
  925POPC   C4B11232   3.941   4.857  16.923  0.0062  0.1113  0.1942
  926POPC   NC311233   5.734  27.703  15.378 -0.1136 -0.1855 -0.0151
  926POPC   PO411234   5.813  28.099  15.385 -0.0015 -0.1799  0.1546
  926POPC   GL111235   5.802  28.395  15.630 -0.0211 -0.1793 -0.1107
  926POPC   GL211236   5.935  28.557  15.660  0.0367 -0.0525 -0.1732
  926POPC   C1A11237   5.631  28.559  16.046 -0.0336 -0.1517 -0.1081
  926POPC   D2A11238   5.775  28.569  16.539 -0.2319 -0.3200 -0.0813
  926POPC   C3A11239   5.423  28.618  16.856 -0.1621  0.1693 -0.0933
  926POPC   C4A11240   5.142  28.609  17.209  0.0827  0.0881 -0.2345
  926POPC   C1B11241   6.049  28.303  16.069  0.1727 -0.0742  0.1924
  926POPC   C2B11242   6.012  28.120  16.469 -0.0346  0.2687  0.4637
  926POPC   C3B11243   6.206  28.179  16.873 -0.2771  0.1694 -0.3481
  926POPC   C4B11244   6.083  28.158  17.264 -0.0544 -0.2394  0.1725
  927POPC   NC311245  11.962  14.639  14.741  0.3046 -0.1644  0.1211
  927POPC   PO411246  12.251  14.814  14.942 -0.2314  0.0413  0.1035
  927POPC   GL111247  12.275  14.764  15.281  0.0978  0.2904  0.1917
  927POPC   GL211248  12.340  15.021  15.425  0.2237 -0.1803  0.1647
  927POPC   C1A11249  11.955  14.614  15.617 -0.2817  0.1301 -0.1211
  927POPC   D2A11250  11.843  14.748  16.074  0.2493  0.2545 -0.2099
  927POPC   C3A11251  12.061  14.941  16.479 -0.0169 -0.0256  0.1633
  927POPC   C4A11252  11.781  14.861  16.852  0.2381  0.1129  0.2026
  927POPC   C1B11253  12.375  14.706  15.841  0.3030  0.2115 -0.0122
  927POPC   C2B11254  12.392  14.569  16.306 -0.2103 -0.0558  0.0937
  927POPC   C3B11255  12.505  14.503  16.742 -0.0909 -0.0561  0.3553
  927POPC   C4B11256  12.496  14.422  17.214  0.1363  0.0749 -0.2008
  928POPC   NC311257  13.922  10.329  15.305  0.1860 -0.0586  0.0822
  928POPC   PO411258  14.008   9.943  15.195  0.1539  0.0855 -0.0587
  928POPC   GL111259  14.196   9.902  15.613 -0.1389  0.0201  0.1746
  928POPC   GL211260  14.262  10.187  15.664  0.1031  0.1336 -0.0993
  928POPC   C1A11261  14.141   9.856  16.066  0.0201 -0.1569  0.0843
  928POPC   D2A11262  14.216  10.122  16.423  0.3329 -0.0922  0.2370
  928POPC   C3A11263  14.122  10.034  16.799  0.1374  0.2805  0.0807
  928POPC   C4A11264  13.879   9.667  16.897  0.0477 -0.0967 -0.5104
  928POPC   C1B11265  14.177  10.508  16.022 -0.1934  0.0219 -0.2196
  928POPC   C2B11266  13.938  10.693  16.332  0.2590  0.2332  0.0662
  928POPC   C3B11267  13.719  10.568  16.644  0.1354  0.3265 -0.1032
  928POPC   C4B11268  13.679  10.749  17.014 -0.1309 -0.0772  0.1691
  929POPC   NC311269   9.421  18.815  15.146  0.1284  0.1025 -0.0685
  929POPC   PO411270   9.743  18.571  15.168  0.2397  0.2380  0.1310
  929POPC   GL111271   9.737  18.696  15.516 -0.2930 -0.0495  0.1626
  929POPC   GL211272   9.901  18.962  15.474 -0.0349  0.0539 -0.0439
  929POPC   C1A11273  10.100  18.571  15.758 -0.2575 -0.0888 -0.2617
  929POPC   D2A11274  10.518  18.452  15.872  0.4505 -0.0390 -0.1499
  929POPC   C3A11275  10.835  18.416  16.218 -0.0402  0.0777  0.1038
  929POPC   C4A11276  11.251  18.458  16.362  0.0192  0.2147  0.2700
  929POPC   C1B11277   9.839  18.952  15.968 -0.3337 -0.4332 -0.0032
  929POPC   C2B11278   9.821  19.037  16.423 -0.0221  0.0655 -0.0379
  929POPC   C3B11279   9.786  18.936  16.859  0.1391 -0.0249  0.3983
  929POPC   C4B11280   9.816  18.828  17.315  0.0437 -0.0328 -0.1195
  930POPC   NC311281  13.125   6.229  15.192  0.0699  0.1037  0.0720
  930POPC   PO411282  12.796   5.993  15.108  0.0122  0.0762 -0.0190
  930POPC   GL111283  12.644   6.368  15.204  0.2232 -0.1762 -0.1427
  930POPC   GL211284  12.794   6.495  15.412  0.1185 -0.0292  0.0612
  930POPC   C1A11285  12.260   6.597  15.422 -0.0010  0.0306 -0.1401
  930POPC   D2A11286  12.010   6.607  15.796 -0.0436  0.0825 -0.5581
  930POPC   C3A11287  12.222   6.586  16.177 -0.1530  0.0024 -0.0599
  930POPC   C4A11288  12.402   6.492  16.612  0.2924  0.0917  0.1278
  930POPC   C1B11289  12.556   6.411  15.804 -0.1044  0.1302  0.1753
  930POPC   C2B11290  12.177   6.150  15.950  0.2339 -0.2965 -0.3011
  930POPC   C3B11291  12.022   6.181  16.405 -0.0542 -0.0414 -0.0940
  930POPC   C4B11292  11.913   6.342  16.813 -0.1339 -0.2971 -0.2240
  931POPC   NC311293   2.926  25.251  14.888 -0.1032 -0.0733 -0.1071
  931POPC   PO411294   3.217  25.489  14.997 -0.1898 -0.2412  0.0884
  931POPC   GL111295   2.987  25.430  15.340 -0.2286 -0.1145 -0.1400
  931POPC   GL211296   2.711  25.321  15.356  0.2334 -0.1850  0.2576
  931POPC   C1A11297   2.988  25.628  15.764 -0.1154  0.0268 -0.1701
  931POPC   D2A11298   2.870  25.463  16.183 -0.3098 -0.2632 -0.1098
  931POPC   C3A11299   2.820  25.072  16.483 -0.1847 -0.0197  0.5052
  931POPC   C4A11300   3.079  24.692  16.672  0.0328 -0.0784 -0.1661
  931POPC   C1B11301   2.812  25.153  15.777  0.0425  0.1752 -0.0099
  931POPC   C2B11302   2.696  24.793  16.076 -0.2545  0.0184 -0.1439
  931POPC   C3B11303   2.636  24.617  16.496 -0.2226 -0.0960 -0.2642
  931POPC   C4B11304   2.818  24.292  16.820  0.1418  0.0058  0.1615
  932POPC   NC311305   0.487   5.647  16.000 -0.0286 -0.2164 -0.0233
  932POPC   PO411306   0.301   5.469  15.737  0.0336  0.0215  0.1005
  932POPC   GL111307   0.262   5.230  16.010 -0.1048  0.0503  0.1698
  932POPC   GL211308   0.096   5.382  16.228 -0.2816  0.0265  0.1768
  932POPC   C1A11309   0.401   5.128  16.475 -0.1945  0.1709 -0.0086
  932POPC   D2A11310   0.327   5.134  16.975  0.2144 -0.1024 -0.2177
  932POPC   C3A11311   0.437   4.751  17.146 -0.3393 -0.0676 -0.0758
  932POPC   C4A11312   0.427   4.296  16.978  0.2853 -0.3789  0.0238
  932POPC   C1B11313  -0.132   5.261  16.622 -0.0218 -0.0191 -0.0964
  932POPC   C2B11314  -0.180   5.218  17.033  0.1667  0.0536 -0.0495
  932POPC   C3B11315  -0.037   5.143  17.473 -0.3568 -0.0543 -0.1709
  932POPC   C4B11316  -0.244   5.302  17.865 -0.1269  0.2850  0.0561
  933POPC   NC311317   7.386  23.258  14.922 -0.0027  0.0000 -0.1894
  933POPC   PO411318   7.036  23.248  15.126  0.0963  0.0543 -0.4133
  933POPC   GL111319   7.236  23.113  15.505  0.1177 -0.0933 -0.1310
  933POPC   GL211320   7.002  23.294  15.648  0.1777  0.0093  0.1199
  933POPC   C1A11321   6.926  22.853  15.756  0.1278 -0.1381 -0.0219
  933POPC   D2A11322   6.963  22.807  16.208  0.1822 -0.1145 -0.1407
  933POPC   C3A11323   7.228  22.439  16.503 -0.0545 -0.0426  0.1249
  933POPC   C4A11324   7.538  22.434  16.788 -0.0659  0.0351  0.0514
  933POPC   C1B11325   7.015  23.251  16.100  0.0223  0.0367  0.0237
  933POPC   C2B11326   6.887  23.410  16.513 -0.1791  0.0062  0.0085
  933POPC   C3B11327   6.683  23.321  16.929  0.0655  0.1376 -0.0095
  933POPC   C4B11328   6.431  23.342  17.317  0.0533 -0.1090  0.3555
  934POPC   NC311329   9.677  12.998  14.845  0.1423 -0.0692  0.1260
  934POPC   PO411330   9.370  13.318  14.851 -0.1288 -0.0713 -0.1695
  934POPC   GL111331   9.234  13.245  15.166 -0.1601  0.0935 -0.0597
  934POPC   GL211332   9.174  13.505  15.284  0.0017 -0.3129  0.0563
  934POPC   C1A11333   8.968  12.868  15.352 -0.2606 -0.0661  0.2080
  934POPC   D2A11334   8.833  12.656  15.675 -0.1505 -0.1022  0.2834
  934POPC   C3A11335   8.939  12.780  16.098  0.2726  0.0063  0.2304
  934POPC   C4A11336   9.185  12.577  16.512  0.3043 -0.0296  0.0690
  934POPC   C1B11337   9.230  13.673  15.725 -0.0998 -0.1785 -0.1412
  934POPC   C2B11338   9.296  13.681  16.240  0.0649  0.2938 -0.3619
  934POPC   C3B11339   9.015  13.681  16.632  0.0286 -0.1664  0.3674
  934POPC   C4B11340   8.699  13.729  16.961 -0.0307 -0.2764 -0.0893
  935POPC   NC311341   6.339  12.486  15.475  0.1820  0.0372 -0.0448
  935POPC   PO411342   5.957  12.578  15.495 -0.1137  0.0615 -0.0613
  935POPC   GL111343   6.100  12.572  15.902  0.2743 -0.1487  0.2763
  935POPC   GL211344   6.026  12.324  16.072 -0.0259 -0.1735  0.0255
  935POPC   C1A11345   5.735  12.714  16.218  0.1879  0.1610  0.0191
  935POPC   D2A11346   5.750  13.085  16.507 -0.1218 -0.3705 -0.0542
  935POPC   C3A11347   6.131  13.447  16.497 -0.1458 -0.2261  0.0281
  935POPC   C4A11348   6.427  13.548  16.859 -0.0444 -0.0939 -0.0783
  935POPC   C1B11349   6.145  12.453  16.524  0.2360  0.0009  0.1307
  935POPC   C2B11350   6.525  12.551  16.756  0.1055  0.1237 -0.0726
  935POPC   C3B11351   6.804  12.678  17.169  0.2283 -0.1643 -0.1956
  935POPC   C4B11352   7.152  12.801  17.443  0.1438  0.1108 -0.1811
  936POPC   NC311353  14.940   5.232  15.647 -0.0478  0.0303 -0.2779
  936POPC   PO411354  14.789   4.894  15.554 -0.2312  0.3801  0.2748
  936POPC   GL111355  14.856   4.890  15.956 -0.0082  0.2361 -0.2569
  936POPC   GL211356  14.704   4.790  16.190 -0.0623  0.2813  0.2235
  936POPC   C1A11357  15.142   4.978  16.335  0.0500 -0.0191 -0.2190
  936POPC   D2A11358  15.139   5.054  16.748 -0.1097  0.3045 -0.1351
  936POPC   C3A11359  15.298   4.814  17.066  0.0220 -0.0559 -0.1037
  936POPC   C4A11360  15.383   4.445  17.281  0.3797 -0.3320  0.0682
  936POPC   C1B11361  14.774   4.729  16.670 -0.2874  0.1319  0.0389
  936POPC   C2B11362  14.565   4.840  17.094  0.1398 -0.2828  0.4110
  936POPC   C3B11363  14.410   4.827  17.544  0.0689 -0.2637  0.0178
  936POPC   C4B11364  14.042   4.685  17.780  0.0345  0.1848 -0.3182
  937POPC   NC311365  14.657  16.077  15.298  0.4450 -0.1446  0.1796
  937POPC   PO411366  14.470  15.727  15.305 -0.0689  0.1386 -0.1286
  937POPC   GL111367  14.310  15.669  15.671  0.2820  0.2177  0.1029
  937POPC   GL211368  14.028  15.794  15.714 -0.1890  0.1672 -0.1486
  937POPC   C1A11369  14.263  15.457  16.063  0.4238  0.0595  0.1309
  937POPC   D2A11370  14.599  15.353  16.333 -0.1575 -0.2476  0.1044
  937POPC   C3A11371  14.582  15.055  16.678  0.1605  0.1240 -0.0046
  937POPC   C4A11372  14.439  14.993  17.115  0.0162 -0.0467 -0.0214
  937POPC   C1B11373  13.955  15.912  16.101 -0.1378  0.0160 -0.1070
  937POPC   C2B11374  13.949  16.155  16.538  0.1383 -0.0996  0.0201
  937POPC   C3B11375  13.940  16.408  16.894  0.1321  0.1268  0.1265
  937POPC   C4B11376  13.688  16.769  16.904 -0.1408  0.0128  0.4527
  938POPC   NC311377  11.774  31.645  15.534  0.0118  0.0620 -0.0108
  938POPC   PO411378  11.418  31.673  15.422  0.0790  0.2028  0.0628
  938POPC   GL111379  11.373  31.581  15.811  0.1495  0.0278 -0.0366
  938POPC   GL211380  11.337  31.285  15.764 -0.1204 -0.0506  0.0723
  938POPC   C1A11381  10.941  31.659  16.043  0.3110  0.1237 -0.0465
  938POPC   D2A11382  10.677  31.970  16.264  0.0214 -0.3506 -0.0477
  938POPC   C3A11383  10.576  31.956  16.689  0.3981  0.0565 -0.0074
  938POPC   C4A11384  10.230  32.104  16.999  0.4297  0.2866  0.1957
  938POPC   C1B11385  11.008  31.147  16.071  0.1121 -0.3238  0.1846
  938POPC   C2B11386  10.885  31.083  16.503  0.0365  0.1538  0.0047
  938POPC   C3B11387  11.008  31.204  16.945  0.0087 -0.1690  0.0310
  938POPC   C4B11388  11.106  30.896  17.232 -0.0516  0.0927  0.0047
  939POPC   NC311389   3.631  22.562  15.322 -0.1841 -0.1323  0.0434
  939POPC   PO411390   3.794  22.885  15.217 -0.1878  0.0623 -0.0297
  939POPC   GL111391   3.837  23.113  15.465 -0.1249  0.2396  0.0479
  939POPC   GL211392   3.874  23.387  15.545  0.0250 -0.1862  0.1481
  939POPC   C1A11393   4.311  23.220  15.655  0.0223 -0.1299  0.0367
  939POPC   D2A11394   4.523  22.866  15.850  0.1398 -0.2514 -0.0128
  939POPC   C3A11395   4.766  22.909  16.233 -0.1476  0.1631  0.2715
  939POPC   C4A11396   5.008  23.083  16.565 -0.2548 -0.1036 -0.2443
  939POPC   C1B11397   4.039  23.468  15.978 -0.1080 -0.0673 -0.2393
  939POPC   C2B11398   4.025  23.506  16.404  0.1767 -0.1310 -0.1160
  939POPC   C3B11399   4.237  23.642  16.781  0.1005 -0.0962  0.2956
  939POPC   C4B11400   4.437  23.571  17.193 -0.1697 -0.0959 -0.0732
  940POPC   NC311401   1.484   8.486  14.924 -0.1319 -0.1290 -0.0720
  940POPC   PO411402   1.304   8.161  15.122 -0.1897 -0.1220  0.2733
  940POPC   GL111403   1.476   8.499  15.410 -0.0284  0.0124 -0.0404
  940POPC   GL211404   1.348   8.343  15.598  0.4349  0.1806  0.0920
  940POPC   C1A11405   1.830   8.556  15.709  0.0493  0.2530  0.1824
  940POPC   D2A11406   1.751   8.837  16.115 -0.0958 -0.0803 -0.1451
  940POPC   C3A11407   1.683   8.726  16.559  0.0266  0.0007 -0.0507
  940POPC   C4A11408   1.573   8.676  16.968  0.0805 -0.1498 -0.1763
  940POPC   C1B11409   1.337   8.483  15.983 -0.1207 -0.0098 -0.3840
  940POPC   C2B11410   1.260   8.374  16.442 -0.0636 -0.1192  0.1716
  940POPC   C3B11411   1.135   8.502  16.842 -0.1680 -0.1257 -0.1245
  940POPC   C4B11412   1.179   8.514  17.342 -0.0323  0.0856  0.5250
  941POPC   NC311413   7.215  13.113  14.127  0.2431 -0.3349  0.1365
  941POPC   PO411414   7.371  12.981  14.472  0.3354  0.0902 -0.2190
  941POPC   GL111415   7.113  13.002  14.841 -0.1971 -0.0806  0.3586
  941POPC   GL211416   7.017  12.747  15.004 -0.0930  0.0819 -0.3708
  941POPC   C1A11417   7.280  13.096  15.254  0.0546 -0.0101  0.0510
  941POPC   D2A11418   7.329  13.533  15.482 -0.0752 -0.2917 -0.0214
  941POPC   C3A11419   7.752  13.568  15.633  0.0890 -0.0356 -0.0970
  941POPC   C4A11420   7.950  13.561  16.042  0.1374 -0.0409 -0.2299
  941POPC   C1B11421   7.122  12.679  15.476 -0.1645 -0.1617 -0.1042
  941POPC   C2B11422   7.050  12.657  15.945 -0.1029  0.2201  0.1294
  941POPC   C3B11423   7.216  12.540  16.355 -0.0451 -0.0485  0.1258
  941POPC   C4B11424   6.949  12.305  16.659  0.2476  0.0887 -0.1692
  942POPC   NC311425   0.031   5.035  15.704  0.0179 -0.3301  0.0228
  942POPC   PO411426  -0.239   4.983  15.481 -0.0196  0.3161  0.0363
  942POPC   GL111427  -0.508   5.084  15.717 -0.1557  0.1675  0.2903
  942POPC   GL211428  -0.488   4.820  15.949 -0.2363 -0.1433 -0.1224
  942POPC   C1A11429  -0.440   5.318  16.117 -0.0581 -0.1158  0.0174
  942POPC   D2A11430  -0.552   5.505  16.519  0.1356 -0.0434 -0.0100
  942POPC   C3A11431  -0.592   5.498  16.942  0.0485 -0.0938 -0.3259
  942POPC   C4A11432  -0.545   5.310  17.339 -0.1606 -0.3620 -0.3584
  942POPC   C1B11433  -0.631   4.529  16.206 -0.1902  0.0117 -0.2333
  942POPC   C2B11434  -0.975   4.294  16.337  0.1848 -0.3664  0.2330
  942POPC   C3B11435  -1.154   3.946  16.459 -0.3174 -0.0522  0.1235
  942POPC   C4B11436  -1.128   3.613  16.770  0.1696 -0.0535  0.1292
  943POPC   NC311437   8.568   4.871  14.971 -0.2562  0.4383  0.1070
  943POPC   PO411438   8.909   5.053  15.011  0.3003  0.1143 -0.0081
  943POPC   GL111439   9.032   4.895  15.345 -0.0447 -0.1847  0.3167
  943POPC   GL211440   8.884   4.627  15.300 -0.1004  0.0268 -0.0646
  943POPC   C1A11441   9.065   5.067  15.779  0.2509  0.0097 -0.0436
  943POPC   D2A11442   8.926   5.113  16.202  0.1838 -0.0406  0.3003
  943POPC   C3A11443   9.018   5.460  16.435  0.1997 -0.1876 -0.1539
  943POPC   C4A11444   9.100   5.915  16.572  0.2226  0.0812 -0.0398
  943POPC   C1B11445   8.867   4.239  15.608  0.1291  0.0292  0.3165
  943POPC   C2B11446   8.745   4.251  16.070  0.0549  0.0949 -0.0078
  943POPC   C3B11447   8.674   4.107  16.489  0.1078 -0.2411 -0.0981
  943POPC   C4B11448   8.586   3.798  16.808  0.2815 -0.0663 -0.0416
  944POPC   NC311449   3.578  27.494  14.898  0.5400 -0.0618  0.1314
  944POPC   PO411450   3.705  27.605  15.229  0.1129  0.0411  0.1047
  944POPC   GL111451   3.702  27.573  15.610  0.1168  0.0195  0.0612
  944POPC   GL211452   3.584  27.798  15.752 -0.3673  0.0534 -0.0519
  944POPC   C1A11453   3.569  27.284  15.951 -0.0043 -0.1349 -0.1621
  944POPC   D2A11454   3.445  27.447  16.373 -0.1171 -0.3551  0.5416
  944POPC   C3A11455   3.698  27.368  16.726  0.1377  0.2701  0.0715
  944POPC   C4A11456   3.734  27.165  17.192 -0.0979 -0.1197 -0.0010
  944POPC   C1B11457   3.381  28.021  16.170 -0.1437  0.1882 -0.1685
  944POPC   C2B11458   3.287  28.194  16.593  0.0789 -0.1719  0.2316
  944POPC   C3B11459   3.226  28.000  17.026 -0.0521  0.0271  0.0443
  944POPC   C4B11460   3.059  28.150  17.432  0.0667  0.0464 -0.1939
  945POPC   NC311461   5.170  27.001  15.860  0.0207  0.1542 -0.1551
  945POPC   PO411462   4.950  27.287  15.627  0.0700  0.2050 -0.0122
  945POPC   GL111463   5.094  27.485  15.945  0.0778 -0.2169 -0.1626
  945POPC   GL211464   5.257  27.708  15.780  0.0472  0.0429  0.1377
  945POPC   C1A11465   5.472  27.511  16.231  0.2422  0.1034  0.0228
  945POPC   D2A11466   5.623  27.551  16.695  0.3316 -0.0320 -0.1356
  945POPC   C3A11467   5.555  27.742  17.114  0.2315  0.1954 -0.0490
  945POPC   C4A11468   5.445  27.631  17.569 -0.2444 -0.3485  0.1179
  945POPC   C1B11469   5.088  27.885  16.171 -0.3226 -0.1941  0.0206
  945POPC   C2B11470   5.145  27.644  16.564  0.0787 -0.1802 -0.3691
  945POPC   C3B11471   5.201  27.364  16.933  0.2529  0.0500 -0.3645
  945POPC   C4B11472   5.176  27.277  17.414 -0.3473 -0.1063 -0.0562
  946POPC   NC311473   9.212  15.232  15.198  0.1709 -0.0996 -0.0772
  946POPC   PO411474   9.275  14.846  15.281  0.0277 -0.0161 -0.3112
  946POPC   GL111475   9.689  14.774  15.601  0.2135  0.3003  0.0939
  946POPC   GL211476   9.702  14.472  15.505  0.0830 -0.1959  0.0934
  946POPC   C1A11477   9.962  14.794  15.926  0.1352 -0.2435 -0.2571
  946POPC   D2A11478  10.304  15.150  16.061  0.2413  0.0208 -0.0137
  946POPC   C3A11479  10.391  15.306  16.500 -0.2645  0.2050 -0.0582
  946POPC   C4A11480  10.431  15.659  16.786  0.0701 -0.0817 -0.4614
  946POPC   C1B11481   9.554  14.491  15.941 -0.2988 -0.1727 -0.0888
  946POPC   C2B11482   9.571  14.460  16.437 -0.0754 -0.0195  0.1302
  946POPC   C3B11483   9.675  14.515  16.864  0.1926 -0.0915 -0.0930
  946POPC   C4B11484   9.549  14.680  17.240 -0.3461 -0.0219 -0.0730
  947POPC   NC311485   7.968   7.971  14.426  0.1704  0.0242  0.1360
  947POPC   PO411486   7.779   8.301  14.436 -0.0396 -0.1862  0.0167
  947POPC   GL111487   7.529   8.585  14.554  0.1130 -0.1656  0.1260
  947POPC   GL211488   7.499   8.631  14.825  0.0681  0.0216 -0.0200
  947POPC   C1A11489   7.066   8.652  14.498  0.2702  0.2281  0.1513
  947POPC   D2A11490   6.725   8.771  14.824 -0.1575  0.0138 -0.0541
  947POPC   C3A11491   6.291   8.535  14.804 -0.0486 -0.1151  0.1099
  947POPC   C4A11492   5.878   8.476  14.617  0.2021 -0.3317  0.0475
  947POPC   C1B11493   7.121   8.517  15.099  0.1136  0.0955  0.1592
  947POPC   C2B11494   6.840   8.835  15.369 -0.1581 -0.1075 -0.2086
  947POPC   C3B11495   6.466   8.590  15.330 -0.0603  0.2057  0.1542
  947POPC   C4B11496   6.141   8.215  15.229 -0.1324  0.0926 -0.0537
  948POPC   NC311497   7.353   6.092  14.917  0.0317  0.2830 -0.0143
  948POPC   PO411498   6.979   5.943  14.860  0.0618  0.2353 -0.2262
  948POPC   GL111499   7.135   5.866  15.203  0.1155  0.0727  0.2116
  948POPC   GL211500   7.076   5.651  15.329  0.1636 -0.0187  0.2203
  948POPC   C1A11501   7.404   6.201  15.417 -0.2458 -0.1192 -0.3720
  948POPC   D2A11502   7.511   6.330  15.878 -0.0206 -0.0294 -0.2226
  948POPC   C3A11503   7.305   6.545  16.230  0.0295 -0.0324  0.1221
  948POPC   C4A11504   7.142   6.832  16.622  0.2019  0.0749  0.2089
  948POPC   C1B11505   7.056   5.640  15.801 -0.2308  0.0366  0.0535
  948POPC   C2B11506   7.276   5.572  16.258 -0.4599  0.0726  0.0828
  948POPC   C3B11507   7.357   5.601  16.710  0.5943  0.2613  0.0567
  948POPC   C4B11508   7.288   5.701  17.133  0.1211 -0.1539 -0.0128
  949POPC   NC311509   3.230   0.863  15.192 -0.1762  0.1654 -0.1792
  949POPC   PO411510   2.845   0.746  15.264  0.2011 -0.1218  0.0269
  949POPC   GL111511   2.906   0.557  15.526 -0.0677 -0.0646 -0.6500
  949POPC   GL211512   2.787   0.690  15.784  0.3320  0.1777 -0.0007
  949POPC   C1A11513   3.159   0.358  15.936 -0.0770  0.1434 -0.1138
  949POPC   D2A11514   3.265   0.409  16.408 -0.0436  0.0469 -0.0365
  949POPC   C3A11515   3.473   0.261  16.849 -0.1207 -0.0700 -0.2061
  949POPC   C4A11516   3.704   0.436  17.271 -0.1571 -0.2165 -0.0603
  949POPC   C1B11517   2.820   0.659  16.243  0.2235  0.1715 -0.0275
  949POPC   C2B11518   2.969   0.726  16.678  0.2495 -0.2695 -0.2794
  949POPC   C3B11519   3.001   1.093  16.929  0.3144  0.1260 -0.1061
  949POPC   C4B11520   3.090   1.564  16.995 -0.1961 -0.1308  0.0752
  950POPC   NC311521   3.700  10.731  14.904  0.3013  0.0405 -0.2339
  950POPC   PO411522   3.627  10.540  15.211 -0.2237  0.0880  0.2007
  950POPC   GL111523   3.691  10.629  15.597  0.0573 -0.0192  0.1813
  950POPC   GL211524   3.379  10.644  15.656 -0.2199  0.1680  0.3353
  950POPC   C1A11525   3.920  10.536  16.030 -0.0540 -0.0735  0.0882
  950POPC   D2A11526   4.000  10.515  16.493 -0.1929 -0.1558 -0.1872
  950POPC   C3A11527   4.187  10.742  16.827 -0.0523 -0.2668  0.0650
  950POPC   C4A11528   4.050  10.984  17.223  0.0969 -0.1778 -0.1750
  950POPC   C1B11529   3.407  10.447  16.057 -0.1477  0.1377  0.0177
  950POPC   C2B11530   3.514  10.543  16.484  0.0852  0.1469 -0.1080
  950POPC   C3B11531   3.783  10.342  16.874 -0.0778  0.0793 -0.1199
  950POPC   C4B11532   4.052  10.488  17.238  0.0389 -0.1504  0.1515
  951POPC   NC311533  13.025   2.819  15.307  0.1900  0.0199 -0.0141
  951POPC   PO411534  12.770   2.591  15.495 -0.2963 -0.1453  0.1123
  951POPC   GL111535  12.626   2.452  15.826  0.0585  0.1834  0.0873
  951POPC   GL211536  12.800   2.693  16.002  0.0082  0.5551  0.1584
  951POPC   C1A11537  12.804   2.202  16.171  0.0713  0.1430 -0.0751
  951POPC   D2A11538  12.882   2.121  16.588 -0.1994  0.4521  0.1187
  951POPC   C3A11539  13.136   1.979  16.955 -0.0863 -0.2384  0.1425
  951POPC   C4A11540  12.889   1.840  17.396  0.0737  0.3207 -0.1701
  951POPC   C1B11541  12.748   2.683  16.477 -0.3398 -0.0778  0.0765
  951POPC   C2B11542  12.653   2.631  16.898  0.1285  0.2085  0.0283
  951POPC   C3B11543  12.946   2.442  17.210  0.1313  0.1019 -0.1618
  951POPC   C4B11544  13.177   2.309  17.535 -0.1117  0.1478  0.1510
  952POPC   NC311545   9.032   5.369  15.392 -0.0797 -0.3626  0.2028
  952POPC   PO411546   9.292   5.620  15.283 -0.1864 -0.1952  0.1358
  952POPC   GL111547   9.179   5.838  15.543 -0.1120  0.1111 -0.3240
  952POPC   GL211548   9.054   5.815  15.796 -0.0249  0.2955  0.4148
  952POPC   C1A11549   9.368   6.223  15.639  0.1334 -0.0304 -0.2341
  952POPC   D2A11550   9.239   6.639  15.751 -0.2586  0.1809  0.0890
  952POPC   C3A11551   8.831   6.735  15.859  0.0104 -0.1530  0.3089
  952POPC   C4A11552   8.609   7.035  16.122 -0.0426  0.2706  0.1353
  952POPC   C1B11553   9.179   6.140  16.092 -0.2374  0.0015  0.0864
  952POPC   C2B11554   8.990   6.553  16.317  0.2218 -0.2009  0.0818
  952POPC   C3B11555   8.606   6.638  16.470  0.1646 -0.0566 -0.0784
  952POPC   C4B11556   8.389   6.646  16.811 -0.1716 -0.3106  0.0772
  953POPC   NC311557  14.820  26.707  15.132 -0.0187 -0.0495  0.0799
  953POPC   PO411558  14.548  26.922  15.327 -0.1788  0.3338  0.3064
  953POPC   GL111559  14.529  26.853  15.696 -0.3174 -0.0529 -0.0138
  953POPC   GL211560  14.628  26.592  15.704  0.1888  0.1782 -0.3072
  953POPC   C1A11561  14.611  27.090  16.094 -0.0967 -0.1534 -0.4262
  953POPC   D2A11562  14.605  26.974  16.562 -0.0125  0.0700 -0.2848
  953POPC   C3A11563  14.376  27.197  16.886 -0.1370  0.1820  0.2135
  953POPC   C4A11564  14.033  27.239  17.151  0.2536  0.1811 -0.0435
  953POPC   C1B11565  14.467  26.643  16.111 -0.0110 -0.0860  0.2180
  953POPC   C2B11566  14.445  26.519  16.515  0.3672 -0.0837  0.0154
  953POPC   C3B11567  14.701  26.665  16.941  0.1618  0.1042 -0.5612
  953POPC   C4B11568  14.540  26.471  17.344 -0.1408 -0.2346  0.0463
  954POPC   NC311569  15.790  11.509  14.955 -0.1809  0.1037  0.2126
  954POPC   PO411570  16.118  11.519  15.200 -0.4267  0.3754 -0.2298
  954POPC   GL111571  15.877  11.516  15.428 -0.0299 -0.3820 -0.0129
  954POPC   GL211572  15.711  11.287  15.496  0.1440 -0.1480 -0.3342
  954POPC   C1A11573  16.038  11.460  15.853 -0.3360  0.2453  0.0373
  954POPC   D2A11574  16.083  11.597  16.284 -0.0062 -0.1167 -0.1855
  954POPC   C3A11575  16.565  11.523  16.426 -0.0263 -0.1585 -0.1017
  954POPC   C4A11576  16.715  11.386  16.835  0.4461 -0.0100  0.0031
  954POPC   C1B11577  15.535  11.525  15.827  0.2233 -0.3717  0.0124
  954POPC   C2B11578  15.436  11.518  16.257  0.1001  0.0349 -0.0026
  954POPC   C3B11579  15.584  11.417  16.703  0.0201  0.0640 -0.0979
  954POPC   C4B11580  15.792  11.496  17.108  0.1033 -0.3234  0.3328
  955POPC   NC311581   4.661  28.723  15.342  0.0302  0.0660  0.1125
  955POPC   PO411582   4.345  28.482  15.411  0.1503 -0.1346 -0.1851
  955POPC   GL111583   4.255  28.409  15.790  0.0300  0.1373  0.0799
  955POPC   GL211584   4.485  28.514  15.961  0.1066  0.0200  0.0648
  955POPC   C1A11585   4.175  28.176  16.149  0.1104 -0.2883  0.1100
  955POPC   D2A11586   4.289  28.117  16.603  0.0870  0.0061 -0.2677
  955POPC   C3A11587   4.167  27.660  16.674 -0.3797 -0.1590  0.0858
  955POPC   C4A11588   4.168  27.331  16.918  0.4225 -0.1557  0.2982
  955POPC   C1B11589   4.626  28.146  16.148  0.1752  0.1778  0.0543
  955POPC   C2B11590   4.795  28.082  16.592  0.4756  0.0353 -0.1256
  955POPC   C3B11591   5.193  28.106  16.882 -0.0551 -0.3978  0.0741
  955POPC   C4B11592   5.692  28.113  16.872  0.1772 -0.2056  0.0651
  956POPC   NC311593   9.592  30.401  15.490  0.1794 -0.0508  0.1257
  956POPC   PO411594   9.398  30.636  15.220 -0.0707 -0.2410  0.0401
  956POPC   GL111595   9.453  30.789  15.585  0.0076  0.1586 -0.1177
  956POPC   GL211596   9.155  30.971  15.555 -0.0186  0.2305 -0.3618
  956POPC   C1A11597   9.453  31.126  15.896 -0.1962 -0.1459  0.0951
  956POPC   D2A11598   9.261  31.335  16.283 -0.0726 -0.0509 -0.1499
  956POPC   C3A11599   8.862  31.570  16.262 -0.1620 -0.1850 -0.0792
  956POPC   C4A11600   8.567  31.826  16.040  0.3766 -0.0773  0.0777
  956POPC   C1B11601   9.202  31.403  15.594 -0.1699 -0.2497 -0.2916
  956POPC   C2B11602   9.028  31.799  15.853  0.0875 -0.0290 -0.1722
  956POPC   C3B11603   8.878  32.224  15.859 -0.0347 -0.0701  0.0988
  956POPC   C4B11604   9.118  32.528  15.645 -0.2595 -0.1851 -0.1259
  957POPC   NC311605  13.284  23.429  14.876  0.2822 -0.0077 -0.3186
  957POPC   PO411606  13.567  23.562  15.159  0.0245  0.0336  0.2546
  957POPC   GL111607  13.636  23.490  15.444  0.3914 -0.4995  0.1796
  957POPC   GL211608  13.868  23.352  15.590  0.1841 -0.1591 -0.4228
  957POPC   C1A11609  13.547  23.632  15.929  0.0204  0.0700  0.3117
  957POPC   D2A11610  13.244  23.727  16.227 -0.1483  0.1904 -0.0558
  957POPC   C3A11611  13.356  23.550  16.627 -0.2392  0.0063 -0.2727
  957POPC   C4A11612  13.697  23.367  16.894  0.1766  0.2288  0.0306
  957POPC   C1B11613  14.087  23.305  15.968  0.0970  0.5510  0.3133
  957POPC   C2B11614  14.054  23.108  16.415  0.3122  0.2184 -0.1507
  957POPC   C3B11615  14.125  22.892  16.806 -0.1091 -0.0924 -0.4645
  957POPC   C4B11616  14.010  22.666  17.159 -0.2171 -0.3556  0.0046
  958POPC   NC311617  10.211  28.140  15.130  0.0349  0.2427  0.0891
  958POPC   PO411618  10.573  28.318  15.232  0.0306  0.3182 -0.0833
  958POPC   GL111619  10.458  28.502  15.476  0.1602  0.0076 -0.2648
  958POPC   GL211620  10.303  28.354  15.663  0.0376 -0.1157 -0.2236
  958POPC   C1A11621  10.741  28.547  15.874  0.0270  0.0912  0.2437
  958POPC   D2A11622  10.827  28.456  16.298 -0.0793  0.0015  0.0703
  958POPC   C3A11623  10.621  28.644  16.694 -0.0842  0.2064 -0.0977
  958POPC   C4A11624  10.437  28.904  17.033  0.1728 -0.2565 -0.1403
  958POPC   C1B11625  10.301  28.536  16.082 -0.2188  0.0905 -0.0311
  958POPC   C2B11626  10.104  28.460  16.517 -0.0900  0.0121  0.0262
  958POPC   C3B11627  10.164  28.524  16.965 -0.0684 -0.0437  0.0058
  958POPC   C4B11628  10.065  28.766  17.334  0.1585  0.1152 -0.1407
  959POPC   NC311629  14.616  11.960  15.131 -0.0053 -0.3810  0.1876
  959POPC   PO411630  14.939  12.049  15.374 -0.2366 -0.1311 -0.3522
  959POPC   GL111631  14.894  11.892  15.682 -0.2910 -0.4298  0.4401
  959POPC   GL211632  14.564  11.827  15.662 -0.0766 -0.0746  0.0265
  959POPC   C1A11633  15.006  11.927  16.102 -0.3546 -0.1521  0.1983
  959POPC   D2A11634  15.437  12.073  16.297  0.2058  0.0695 -0.0159
  959POPC   C3A11635  15.525  12.249  16.725  0.0453  0.2781  0.4148
  959POPC   C4A11636  15.944  12.324  16.864 -0.0828  0.1938  0.5117
  959POPC   C1B11637  14.425  11.528  16.039  0.0993  0.0691 -0.0412
  959POPC   C2B11638  14.337  11.409  16.437  0.3444  0.0132  0.0234
  959POPC   C3B11639  14.175  11.397  16.896 -0.1361 -0.0227  0.1316
  959POPC   C4B11640  14.458  11.407  17.308 -0.1182 -0.1208  0.0291
  960POPC   NC311641   7.930  14.152  14.635 -0.4029 -0.2101  0.0980
  960POPC   PO411642   8.000  14.192  15.011  0.1156  0.0469  0.0457
  960POPC   GL111643   8.092  14.185  15.409  0.1103  0.1049  0.2647
  960POPC   GL211644   7.911  14.332  15.582 -0.1740 -0.2718 -0.2797
  960POPC   C1A11645   8.238  13.848  15.658  0.1758 -0.0183  0.1653
  960POPC   D2A11646   8.293  13.909  16.122  0.0023  0.0243 -0.0105
  960POPC   C3A11647   8.226  13.704  16.490 -0.0956  0.0006  0.1067
  960POPC   C4A11648   8.265  13.473  16.907 -0.1309 -0.1513  0.0019
  960POPC   C1B11649   7.736  14.069  15.947 -0.0004 -0.0985  0.0405
  960POPC   C2B11650   7.708  13.851  16.383 -0.3980  0.2540  0.2816
  960POPC   C3B11651   7.791  13.403  16.610 -0.0388 -0.1577  0.3098
  960POPC   C4B11652   8.130  13.162  16.523  0.1285 -0.0229 -0.1255
  961POPC   NC311653   8.799   5.820  15.297  0.0063  0.2328  0.0613
  961POPC   PO411654   8.610   5.971  15.013 -0.1066 -0.1047 -0.1692
  961POPC   GL111655   8.402   5.971  15.383 -0.1137 -0.2690  0.1115
  961POPC   GL211656   8.119   5.989  15.509 -0.2295 -0.1147 -0.3576
  961POPC   C1A11657   8.567   5.829  15.761  0.4164  0.0966 -0.0721
  961POPC   D2A11658   8.693   5.769  16.220 -0.1196 -0.0448  0.0316
  961POPC   C3A11659   8.613   5.652  16.637  0.0511 -0.1118 -0.1425
  961POPC   C4A11660   8.324   5.421  16.912  0.0860 -0.1483  0.0572
  961POPC   C1B11661   8.061   6.120  15.887  0.2082 -0.0494 -0.0908
  961POPC   C2B11662   7.834   6.334  16.269  0.2359  0.0008  0.0169
  961POPC   C3B11663   7.547   6.514  16.647 -0.1523  0.2505 -0.3054
  961POPC   C4B11664   7.331   6.686  17.048  0.0656  0.1175 -0.3293
  962POPC   NC311665   8.148   6.603  14.435 -0.1868  0.0085 -0.1009
  962POPC   PO411666   7.899   6.800  14.639 -0.2481 -0.2364  0.0382
  962POPC   GL111667   7.738   6.989  15.012  0.1932  0.0026  0.1005
  962POPC   GL211668   7.875   6.787  15.150 -0.0192 -0.0122 -0.0855
  962POPC   C1A11669   7.425   6.852  15.312  0.3309  0.2405  0.1682
  962POPC   D2A11670   7.352   6.795  15.772 -0.2020  0.0633  0.0374
  962POPC   C3A11671   7.019   6.453  15.817 -0.3539 -0.0384 -0.1440
  962POPC   C4A11672   6.975   6.083  15.639  0.1795  0.2770  0.0182
  962POPC   C1B11673   7.854   6.553  15.519  0.2294 -0.0704  0.2361
  962POPC   C2B11674   7.796   6.741  15.961  0.2237  0.2343  0.0596
  962POPC   C3B11675   7.684   6.930  16.351  0.0690 -0.1638 -0.3174
  962POPC   C4B11676   7.764   7.163  16.712  0.1648 -0.1207  0.2946
  963POPC   NC311677   5.946   6.840  14.827  0.0086  0.0194 -0.3232
  963POPC   PO411678   6.121   6.521  15.021 -0.0367  0.0616 -0.0244
  963POPC   GL111679   6.427   6.843  14.908  0.2760  0.1914 -0.2803
  963POPC   GL211680   6.330   7.020  15.190 -0.3023  0.0182 -0.2393
  963POPC   C1A11681   6.865   6.923  14.955  0.0966  0.1558  0.1185
  963POPC   D2A11682   7.163   7.251  14.936  0.2233  0.0477  0.2650
  963POPC   C3A11683   7.474   7.457  15.201  0.1177  0.3399 -0.0648
  963POPC   C4A11684   7.659   7.791  15.396  0.0288  0.0133 -0.0896
  963POPC   C1B11685   6.512   6.879  15.586 -0.1597 -0.0302  0.0584
  963POPC   C2B11686   6.808   6.863  15.982 -0.2786  0.0693 -0.1327
  963POPC   C3B11687   6.781   7.145  16.287 -0.0364  0.0694  0.3821
  963POPC   C4B11688   6.769   7.247  16.728 -0.3046  0.2152  0.3177
  964POPC   NC311689   7.216  13.705  14.888 -0.0559 -0.2696 -0.2680
  964POPC   PO411690   7.558  13.864  14.774  0.0175  0.0623 -0.2525
  964POPC   GL111691   7.888  13.585  14.991  0.1948 -0.4219  0.0837
  964POPC   GL211692   8.048  13.714  15.201 -0.0606  0.0880  0.0084
  964POPC   C1A11693   7.751  13.264  15.258  0.2512  0.0955 -0.0132
  964POPC   D2A11694   7.916  12.873  15.458  0.1491  0.0883 -0.2241
  964POPC   C3A11695   8.331  12.854  15.684 -0.1188  0.0956 -0.3503
  964POPC   C4A11696   8.476  12.530  15.983  0.2194  0.1525  0.4128
  964POPC   C1B11697   8.235  13.388  15.447  0.0834  0.1676 -0.0277
  964POPC   C2B11698   8.346  13.328  15.887 -0.1588 -0.1384 -0.0511
  964POPC   C3B11699   8.467  12.997  16.184  0.1045  0.0800  0.0228
  964POPC   C4B11700   8.728  12.917  16.500 -0.0455 -0.0093  0.1545
  965POPC   NC311701   4.711   2.342  14.890  0.2257 -0.1817  0.0214
  965POPC   PO411702   4.475   2.565  15.081 -0.0918 -0.0951  0.5263
  965POPC   GL111703   4.396   2.679  15.505  0.1846  0.2000 -0.0682
  965POPC   GL211704   4.564   2.930  15.533 -0.0231 -0.0626 -0.0638
  965POPC   C1A11705   4.029   2.631  15.786 -0.0873  0.0149 -0.1362
  965POPC   D2A11706   3.972   2.680  16.227  0.2620  0.3853 -0.2339
  965POPC   C3A11707   3.963   2.309  16.495 -0.0939  0.1227 -0.0244
  965POPC   C4A11708   4.127   2.071  16.892  0.0271 -0.0091  0.1165
  965POPC   C1B11709   4.309   2.973  15.957 -0.0375 -0.1334 -0.1397
  965POPC   C2B11710   4.330   3.089  16.447  0.2314  0.1387  0.2828
  965POPC   C3B11711   4.409   3.089  16.866  0.1433  0.1635 -0.1379
  965POPC   C4B11712   4.314   3.161  17.327  0.0474 -0.0799 -0.1698
  966POPC   NC311713  15.506  18.741  15.568  0.1191 -0.2964 -0.1269
  966POPC   PO411714  15.865  18.575  15.481 -0.1416  0.0385 -0.1579
  966POPC   GL111715  15.836  18.650  15.942  0.1707  0.3342 -0.2098
  966POPC   GL211716  16.042  18.744  16.103  0.0533 -0.1267 -0.2559
  966POPC   C1A11717  15.569  18.725  16.353 -0.0408  0.0612 -0.3795
  966POPC   D2A11718  15.446  18.382  16.626 -0.0523  0.3798  0.3484
  966POPC   C3A11719  15.418  18.312  17.092  0.1423  0.2034 -0.1753
  966POPC   C4A11720  15.439  18.428  17.554 -0.5655  0.0868  0.0212
  966POPC   C1B11721  16.016  18.561  16.477  0.0707  0.0377  0.0603
  966POPC   C2B11722  15.872  18.546  16.897  0.0048 -0.0458 -0.3807
  966POPC   C3B11723  15.767  18.720  17.321 -0.2882  0.1336  0.2798
  966POPC   C4B11724  15.747  19.167  17.436  0.2781  0.0990 -0.2652
  967POPC   NC311725   9.363  19.022  15.661 -0.1427 -0.3751 -0.1275
  967POPC   PO411726   8.978  19.077  15.648  0.0681  0.0180 -0.0142
  967POPC   GL111727   8.992  19.080  16.068  0.0619 -0.0040 -0.0555
  967POPC   GL211728   9.236  18.929  16.184  0.1423 -0.0810  0.1156
  967POPC   C1A11729   8.742  18.893  16.415  0.0235  0.3569  0.0248
  967POPC   D2A11730   8.508  18.827  16.795  0.0637  0.3045 -0.0584
  967POPC   C3A11731   8.502  18.720  17.259 -0.1589 -0.2127  0.0329
  967POPC   C4A11732   8.358  18.694  17.712  0.3710 -0.2162 -0.0586
  967POPC   C1B11733   9.300  18.862  16.634  0.0656 -0.0564 -0.1604
  967POPC   C2B11734   9.301  19.135  17.010 -0.0724  0.2521  0.2089
  967POPC   C3B11735   9.315  19.130  17.447 -0.1174 -0.2544  0.0685
  967POPC   C4B11736   9.087  19.101  17.848 -0.0013  0.1318  0.0585
  968POPC   NC311737   0.930   0.583  15.093  0.0057 -0.0001 -0.1166
  968POPC   PO411738   0.684   0.854  14.987 -0.0103 -0.2295  0.1131
  968POPC   GL111739   0.524   0.780  15.369  0.0768  0.1748 -0.2162
  968POPC   GL211740   0.527   0.446  15.494  0.0738  0.2605 -0.0203
  968POPC   C1A11741   0.109   0.824  15.694  0.0946  0.1454  0.1285
  968POPC   D2A11742  -0.002   1.012  16.100 -0.0089 -0.2083  0.4942
  968POPC   C3A11743  -0.272   0.834  16.469  0.2418  0.0274 -0.0564
  968POPC   C4A11744  -0.369   0.712  16.875 -0.0393 -0.0556 -0.5012
  968POPC   C1B11745   0.397   0.516  15.930 -0.1046  0.2843 -0.1626
  968POPC   C2B11746   0.254   0.664  16.320 -0.1087  0.1035  0.0622
  968POPC   C3B11747   0.160   0.808  16.720  0.1732  0.0892 -0.2582
  968POPC   C4B11748   0.135   0.800  17.178  0.0090 -0.0753  0.1222
  969POPC   NC311749   4.995  12.475  15.189  0.3170 -0.1609  0.1060
  969POPC   PO411750   5.034  12.257  15.503 -0.0919 -0.0801  0.0651
  969POPC   GL111751   5.091  12.184  15.924 -0.0607 -0.1620 -0.2368
  969POPC   GL211752   5.059  12.492  15.981 -0.0758 -0.0642  0.2176
  969POPC   C1A11753   5.024  12.128  16.382 -0.0136 -0.1434  0.0906
  969POPC   D2A11754   5.159  12.162  16.841 -0.2236 -0.1279 -0.1864
  969POPC   C3A11755   5.189  12.573  17.113 -0.1521  0.1463  0.2811
  969POPC   C4A11756   5.219  12.903  17.399 -0.1333  0.1893 -0.0934
  969POPC   C1B11757   4.639  12.460  16.153 -0.1938  0.2048 -0.3044
  969POPC   C2B11758   4.393  12.727  16.503  0.2808 -0.2072 -0.1314
  969POPC   C3B11759   4.148  12.743  16.869  0.0953  0.1105  0.1487
  969POPC   C4B11760   3.920  12.990  17.252 -0.1810  0.2817  0.3512
  970POPC   NC311761   1.418   6.398  15.489  0.1972 -0.1330 -0.3447
  970POPC   PO411762   1.596   6.015  15.456  0.2293  0.2034 -0.2710
  970POPC   GL111763   1.439   5.994  15.841 -0.1853  0.2282 -0.0240
  970POPC   GL211764   1.117   5.853  15.867  0.0391  0.0815  0.0065
  970POPC   C1A11765   1.537   6.130  16.296 -0.0016 -0.0808 -0.1638
  970POPC   D2A11766   1.910   6.208  16.552 -0.0701 -0.1520  0.1829
  970POPC   C3A11767   1.972   5.928  16.911  0.3706 -0.0514  0.0284
  970POPC   C4A11768   1.876   5.856  17.374  0.1881 -0.1299 -0.1417
  970POPC   C1B11769   1.328   5.677  16.205 -0.1362 -0.3397  0.0971
  970POPC   C2B11770   1.551   5.775  16.633  0.5165  0.1786 -0.2939
  970POPC   C3B11771   1.522   5.616  17.050  0.4102  0.1632  0.0975
  970POPC   C4B11772   1.661   5.228  17.309  0.0108 -0.1236  0.0587
  971POPC   NC311773   0.089  21.745  15.311 -0.0520  0.3162 -0.2015
  971POPC   PO411774   0.315  22.037  15.163 -0.1172 -0.2780 -0.1762
  971POPC   GL111775   0.527  21.926  15.427 -0.2520  0.4508 -0.1293
  971POPC   GL211776   0.442  21.800  15.650 -0.0694  0.0036  0.0976
  971POPC   C1A11777   0.895  21.730  15.660  0.0497 -0.0800  0.0897
  971POPC   D2A11778   1.095  21.687  16.056  0.3910  0.1144  0.0428
  971POPC   C3A11779   1.304  21.905  16.397  0.0925  0.1490  0.1079
  971POPC   C4A11780   1.689  21.798  16.645 -0.2311  0.0730  0.0310
  971POPC   C1B11781   0.448  21.855  16.162  0.2667  0.1334 -0.1146
  971POPC   C2B11782   0.351  22.038  16.521  0.2584  0.0096 -0.0055
  971POPC   C3B11783   0.357  22.327  16.875 -0.1127 -0.1277 -0.0418
  971POPC   C4B11784   0.015  22.472  17.130 -0.2787 -0.2510  0.0049
  972POPC   NC311785  10.602  18.198  15.408  0.1354  0.1045  0.1775
  972POPC   PO411786  10.804  18.460  15.216 -0.0043 -0.0535  0.0342
  972POPC   GL111787  10.706  18.784  15.490 -0.0261  0.1569 -0.1521
  972POPC   GL211788  10.534  18.990  15.412 -0.1957  0.1245 -0.0791
  972POPC   C1A11789  10.783  18.845  15.939  0.0350 -0.1180  0.0428
  972POPC   D2A11790  11.122  19.146  16.179 -0.1294  0.2693  0.2178
  972POPC   C3A11791  11.042  19.385  16.576 -0.2140  0.1713  0.1319
  972POPC   C4A11792  11.042  19.432  17.034  0.2671  0.0009 -0.2517
  972POPC   C1B11793  10.340  19.022  15.815  0.0133 -0.0284  0.2103
  972POPC   C2B11794  10.307  18.901  16.257 -0.2888  0.1171  0.3463
  972POPC   C3B11795  10.259  18.867  16.729 -0.0243  0.2832  0.3963
  972POPC   C4B11796  10.208  19.019  17.135 -0.2502 -0.0932  0.0096
  973POPC   NC311797   0.829   1.303  14.851 -0.0774  0.1163 -0.0977
  973POPC   PO411798   0.488   1.377  15.097 -0.4624 -0.0205  0.1149
  973POPC   GL111799   0.432   1.242  15.472  0.1679  0.0230 -0.0600
  973POPC   GL211800   0.526   1.473  15.587 -0.0090  0.2038  0.0646
  973POPC   C1A11801   0.622   1.017  15.818  0.0694  0.2817  0.1220
  973POPC   D2A11802   0.604   0.961  16.266  0.3629 -0.2028 -0.1001
  973POPC   C3A11803   0.652   0.746  16.681 -0.0680  0.1078 -0.1153
  973POPC   C4A11804   0.658   0.762  17.181  0.3148 -0.2423  0.1368
  973POPC   C1B11805   0.445   1.451  16.069  0.2956 -0.2425 -0.0347
  973POPC   C2B11806   0.247   1.263  16.473 -0.3925 -0.0090 -0.3647
  973POPC   C3B11807   0.439   1.242  16.912 -0.0897  0.0683 -0.2490
  973POPC   C4B11808   0.358   1.223  17.346  0.1583  0.1370  0.1714
  974POPC   NC311809   6.910  16.179  14.627 -0.3353  0.0093  0.0300
  974POPC   PO411810   6.733  16.205  14.931  0.0170  0.1654  0.0402
  974POPC   GL111811   6.910  16.221  15.317  0.1588 -0.1287  0.0832
  974POPC   GL211812   7.144  16.007  15.398  0.3057 -0.1722 -0.0752
  974POPC   C1A11813   6.783  16.083  15.737  0.3814  0.0902 -0.0994
  974POPC   D2A11814   6.592  15.636  15.899  0.0514  0.0745  0.2227
  974POPC   C3A11815   6.700  15.448  16.346 -0.2010  0.3735  0.1191
  974POPC   C4A11816   6.761  15.397  16.775 -0.0329  0.0641 -0.1275
  974POPC   C1B11817   7.273  16.204  15.750  0.3270  0.0425  0.0385
  974POPC   C2B11818   7.498  16.409  16.157 -0.1010  0.1012  0.0870
  974POPC   C3B11819   7.752  16.379  16.493  0.4380 -0.0674  0.0216
  974POPC   C4B11820   7.898  16.244  16.892 -0.0424  0.2866 -0.1529
  975POPC   NC311821   7.986   4.677  15.450 -0.2878 -0.0109  0.1612
  975POPC   PO411822   8.127   5.008  15.312  0.0505 -0.0281  0.2630
  975POPC   GL111823   8.496   4.743  15.419  0.0253 -0.2867  0.5929
  975POPC   GL211824   8.633   5.072  15.481 -0.1800 -0.2735 -0.0923
  975POPC   C1A11825   8.430   4.367  15.659 -0.1629  0.2177 -0.2700
  975POPC   D2A11826   8.485   3.917  15.583 -0.0445 -0.0624 -0.0143
  975POPC   C3A11827   8.678   3.720  15.916 -0.1812  0.0055 -0.0615
  975POPC   C4A11828   8.606   3.552  16.360 -0.1721 -0.0185 -0.2090
  975POPC   C1B11829   8.589   4.832  15.885 -0.3609 -0.2241 -0.3520
  975POPC   C2B11830   8.663   4.744  16.357 -0.5841  0.3305 -0.2275
  975POPC   C3B11831   8.901   5.026  16.667 -0.3875  0.1203  0.2078
  975POPC   C4B11832   9.043   4.931  17.115  0.2914 -0.1753  0.2538
  976POPC   NC311833   2.502  16.223  15.099  0.2233  0.1796  0.1507
  976POPC   PO411834   2.244  16.162  15.362  0.0855 -0.1469  0.2145
  976POPC   GL111835   2.165  16.240  15.730  0.1182 -0.0229 -0.0228
  976POPC   GL211836   2.045  16.477  15.732  0.0186 -0.0270  0.2191
  976POPC   C1A11837   2.220  16.170  16.166  0.0501 -0.3014 -0.4606
  976POPC   D2A11838   2.145  15.839  16.346 -0.2046 -0.0471  0.3762
  976POPC   C3A11839   1.987  16.049  16.731 -0.1542  0.1056 -0.2343
  976POPC   C4A11840   1.839  16.140  17.148  0.1292 -0.2847  0.1278
  976POPC   C1B11841   1.942  16.649  16.166 -0.1892 -0.0694 -0.0329
  976POPC   C2B11842   1.897  16.789  16.609 -0.3919  0.1887  0.2091
  976POPC   C3B11843   2.299  16.883  16.878  0.3282 -0.2524  0.2395
  976POPC   C4B11844   2.585  17.232  16.820  0.2527  0.0555 -0.1684
  977POPC   NC311845   0.511   4.154  15.049  0.1396  0.1137  0.0119
  977POPC   PO411846   0.853   4.296  14.911  0.4641  0.2952 -0.4434
  977POPC   GL111847   1.032   4.357  15.269 -0.2653  0.0126 -0.0370
  977POPC   GL211848   0.712   4.435  15.423  0.0848 -0.0819  0.2804
  977POPC   C1A11849   1.231   4.181  15.646  0.0331 -0.0948 -0.4823
  977POPC   D2A11850   1.228   4.119  16.087 -0.2129 -0.0958 -0.0122
  977POPC   C3A11851   1.014   4.319  16.432  0.2482 -0.0285 -0.1380
  977POPC   C4A11852   0.767   4.671  16.533  0.0980 -0.0342 -0.0997
  977POPC   C1B11853   0.917   4.542  15.766 -0.2308 -0.1389  0.0866
  977POPC   C2B11854   1.287   4.602  16.004  0.2876  0.1744  0.2176
  977POPC   C3B11855   1.420   4.594  16.451 -0.2044 -0.1466 -0.1582
  977POPC   C4B11856   1.210   4.562  16.840  0.1259  0.0438  0.0485
  978POPC   NC311857   3.488  28.956  15.288  0.0188  0.1009  0.2358
  978POPC   PO411858   3.401  29.341  15.325  0.0375  0.1616  0.2127
  978POPC   GL111859   3.341  29.391  15.666  0.0538  0.0746 -0.0884
  978POPC   GL211860   3.358  29.668  15.708  0.2379  0.1201 -0.0850
  978POPC   C1A11861   3.263  29.304  16.117 -0.1051 -0.2634  0.1590
  978POPC   D2A11862   3.099  29.183  16.526 -0.1717  0.1573 -0.1834
  978POPC   C3A11863   2.713  29.298  16.773 -0.1376  0.1677  0.0498
  978POPC   C4A11864   2.337  29.326  17.039 -0.1717 -0.1034  0.0450
  978POPC   C1B11865   3.302  29.827  16.143 -0.2792 -0.2699  0.1276
  978POPC   C2B11866   3.435  29.576  16.500  0.1619 -0.1502 -0.0023
  978POPC   C3B11867   3.377  29.467  16.955  0.1205  0.1519  0.3049
  978POPC   C4B11868   3.231  29.393  17.401 -0.1329  0.0455 -0.1233
  979POPC   NC311869   7.649  28.477  15.050 -0.0201 -0.0229 -0.2315
  979POPC   PO411870   7.931  28.172  15.063 -0.1631  0.1840 -0.0051
  979POPC   GL111871   8.152  28.437  15.376 -0.2395 -0.1070  0.1690
  979POPC   GL211872   7.914  28.323  15.545 -0.1028 -0.0608  0.3521
  979POPC   C1A11873   8.342  28.466  15.819 -0.0241  0.2108  0.3194
  979POPC   D2A11874   8.310  28.486  16.317 -0.0625 -0.0858 -0.0520
  979POPC   C3A11875   8.192  28.520  16.780  0.2339 -0.1100  0.2047
  979POPC   C4A11876   7.884  28.569  17.107 -0.0020  0.0012 -0.0920
  979POPC   C1B11877   7.761  28.489  15.977  0.1439  0.3835  0.1592
  979POPC   C2B11878   7.657  28.318  16.387  0.1028 -0.0553 -0.0149
  979POPC   C3B11879   7.565  28.292  16.877  0.3553  0.1577  0.0673
  979POPC   C4B11880   7.604  28.213  17.347  0.0507 -0.2212 -0.0303
  980POPC   NC311881  10.405  23.089  15.273  0.0359  0.2279  0.1015
  980POPC   PO411882  10.320  22.717  15.417 -0.2363 -0.0491  0.0583
  980POPC   GL111883  10.093  22.844  15.753 -0.0937 -0.1220  0.0993
  980POPC   GL211884  10.213  23.093  15.759  0.1233 -0.1954  0.1588
  980POPC   C1A11885   9.742  22.679  16.043  0.0495  0.0090 -0.0550
  980POPC   D2A11886   9.361  22.672  16.332  0.0021 -0.2269  0.0116
  980POPC   C3A11887   9.183  22.594  16.743  0.2726  0.0687  0.1148
  980POPC   C4A11888   8.923  22.558  17.134 -0.3204  0.0983  0.1373
  980POPC   C1B11889  10.036  23.072  16.192  0.4445 -0.0247  0.1653
  980POPC   C2B11890   9.773  22.876  16.523  0.1566 -0.1174  0.1850
  980POPC   C3B11891   9.723  22.859  16.995 -0.0642  0.2576 -0.0578
  980POPC   C4B11892   9.405  22.737  17.241  0.0050  0.2557  0.1096
  981POPC   NC311893  13.824   7.796  15.267 -0.4146  0.0049 -0.2674
  981POPC   PO411894  14.169   7.666  15.270  0.2475 -0.0497  0.1171
  981POPC   GL111895  14.505   7.875  15.493  0.1593  0.3521  0.3562
  981POPC   GL211896  14.445   8.057  15.742  0.0220 -0.3337 -0.0704
  981POPC   C1A11897  14.953   7.983  15.512  0.0160 -0.1339 -0.2356
  981POPC   D2A11898  15.357   7.783  15.666  0.0244 -0.2646  0.2835
  981POPC   C3A11899  15.298   7.755  16.107 -0.0514  0.1240 -0.2721
  981POPC   C4A11900  15.377   7.894  16.534 -0.0177 -0.0227 -0.2015
  981POPC   C1B11901  14.164   8.146  16.097 -0.3745  0.1562  0.0921
  981POPC   C2B11902  13.848   8.045  16.413 -0.4576 -0.4304  0.0188
  981POPC   C3B11903  13.778   7.904  16.841 -0.0014  0.1415  0.0872
  981POPC   C4B11904  13.653   7.844  17.307 -0.1361  0.0210  0.0394
  982POPC   NC311905   9.911   1.778  15.477  0.1988 -0.2520 -0.1913
  982POPC   PO411906   9.568   1.837  15.268 -0.0869 -0.0864  0.1524
  982POPC   GL111907   9.407   1.943  15.598 -0.0082  0.0549  0.2749
  982POPC   GL211908   9.232   1.628  15.634 -0.2099  0.0599 -0.0274
  982POPC   C1A11909   9.387   2.017  16.042  0.0573 -0.2371  0.0151
  982POPC   D2A11910   9.276   2.069  16.507  0.0405 -0.0454  0.0930
  982POPC   C3A11911   9.459   1.868  16.936  0.2552 -0.1533  0.2417
  982POPC   C4A11912   9.303   1.928  17.384  0.4873 -0.1263 -0.2000
  982POPC   C1B11913   9.115   1.502  16.017  0.2363 -0.0771 -0.0306
  982POPC   C2B11914   9.000   1.594  16.398  0.0170 -0.0413  0.2001
  982POPC   C3B11915   8.972   1.782  16.813  0.2102  0.1773 -0.2858
  982POPC   C4B11916   9.007   2.224  16.893  0.2616  0.1790 -0.2959
  983POPC   NC311917  11.117  18.805  15.172  0.1202 -0.0867 -0.0932
  983POPC   PO411918  11.473  19.008  15.169  0.1927 -0.1130  0.1167
  983POPC   GL111919  11.711  18.777  15.426  0.1860 -0.1372 -0.0934
  983POPC   GL211920  11.539  18.691  15.561  0.0072 -0.1659 -0.0212
  983POPC   C1A11921  12.047  18.704  15.698 -0.0138 -0.0360  0.1425
  983POPC   D2A11922  12.256  18.338  15.756  0.0913  0.1737  0.0767
  983POPC   C3A11923  12.186  18.308  16.209 -0.5143  0.3003  0.0308
  983POPC   C4A11924  12.105  18.103  16.638 -0.3936  0.0971 -0.1700
  983POPC   C1B11925  11.639  18.752  16.007  0.2278 -0.4635  0.0013
  983POPC   C2B11926  11.564  18.878  16.427 -0.2242  0.0974  0.1689
  983POPC   C3B11927  11.285  18.958  16.762 -0.5061  0.1727  0.0665
  983POPC   C4B11928  11.451  19.052  17.164 -0.1094 -0.0745 -0.0027
  984POPC   NC311929   1.192  19.382  14.907 -0.3639 -0.0136 -0.0017
  984POPC   PO411930   0.937  19.685  15.004  0.1132  0.2055  0.1914
  984POPC   GL111931   0.942  19.501  15.424  0.4078 -0.3757  0.0396
  984POPC   GL211932   1.167  19.391  15.454 -0.0747 -0.2457 -0.2391
  984POPC   C1A11933   0.803  19.477  15.898 -0.0224  0.3738 -0.1446
  984POPC   D2A11934   0.770  19.620  16.322  0.2981 -0.1588 -0.1870
  984POPC   C3A11935   0.806  19.313  16.620  0.0791  0.0024  0.1590
  984POPC   C4A11936   0.694  19.415  17.095 -0.1755  0.1997  0.0574
  984POPC   C1B11937   1.313  19.318  15.836 -0.0077 -0.4084 -0.0360
  984POPC   C2B11938   1.605  19.053  16.043  0.2038 -0.2195  0.1494
  984POPC   C3B11939   1.589  18.762  16.420  0.3978  0.2238 -0.0365
  984POPC   C4B11940   1.558  18.880  16.902 -0.2099 -0.0155  0.0928
  985POPC   NC311941   3.899  11.636  15.583  0.0006  0.1937  0.0459
  985POPC   PO411942   4.266  11.751  15.567 -0.0206  0.1104 -0.0140
  985POPC   GL111943   4.257  11.904  15.898  0.4352  0.0607  0.3852
  985POPC   GL211944   4.276  12.162  15.963  0.0422 -0.1269  0.1589
  985POPC   C1A11945   4.139  11.870  16.364  0.2365 -0.2480  0.1361
  985POPC   D2A11946   4.118  11.863  16.857  0.1597  0.1385 -0.0756
  985POPC   C3A11947   3.826  11.546  16.956 -0.1920 -0.0388 -0.1203
  985POPC   C4A11948   3.435  11.266  16.897 -0.2412 -0.1013 -0.1919
  985POPC   C1B11949   4.594  11.966  16.279 -0.1830 -0.0712  0.1228
  985POPC   C2B11950   4.657  11.898  16.729 -0.1627 -0.0436 -0.1128
  985POPC   C3B11951   4.833  11.955  17.180  0.1342  0.2211  0.2756
  985POPC   C4B11952   4.851  12.339  17.344  0.0482  0.3402 -0.0244
  986POPC   NC311953   0.406  11.040  15.173 -0.0575 -0.2859  0.3158
  986POPC   PO411954   0.033  11.008  15.114 -0.1725 -0.3030  0.1650
  986POPC   GL111955   0.024  10.841  15.450 -0.2618 -0.0342  0.0262
  986POPC   GL211956   0.175  10.631  15.483 -0.1395  0.4420 -0.1060
  986POPC   C1A11957   0.110  10.994  15.866  0.1273  0.2790  0.3521
  986POPC   D2A11958  -0.157  11.101  16.208  0.1402 -0.1548  0.1059
  986POPC   C3A11959  -0.043  10.932  16.688 -0.3968 -0.3489  0.0092
  986POPC   C4A11960   0.114  10.976  17.093  0.0969 -0.1155 -0.0612
  986POPC   C1B11961   0.282  10.545  15.931 -0.1329  0.2222  0.4148
  986POPC   C2B11962   0.331  10.695  16.334  0.1520 -0.2015  0.2145
  986POPC   C3B11963   0.544  10.817  16.723  0.0791 -0.0348 -0.3039
  986POPC   C4B11964   0.627  11.056  17.123  0.0633  0.1578 -0.0297
  987POPC   NC311965  10.415   0.334  14.971  0.0781 -0.0497 -0.1121
  987POPC   PO411966  10.606   0.534  15.257 -0.1138  0.0602 -0.3671
  987POPC   GL111967  10.312   0.287  15.542 -0.2441  0.2383 -0.2050
  987POPC   GL211968  10.150   0.486  15.686 -0.3262 -0.0191 -0.0365
  987POPC   C1A11969  10.263   0.153  16.023 -0.0105 -0.0050  0.4047
  987POPC   D2A11970  10.100  -0.240  16.180 -0.0894  0.1413 -0.3911
  987POPC   C3A11971   9.766  -0.164  16.452  0.1354  0.1849 -0.0451
  987POPC   C4A11972   9.390  -0.216  16.723 -0.5215 -0.1098  0.3039
  987POPC   C1B11973  10.122   0.686  16.028  0.0800 -0.0035 -0.0266
  987POPC   C2B11974   9.988   0.807  16.446  0.1905 -0.4366  0.3106
  987POPC   C3B11975   9.846   0.588  16.812  0.2956  0.0985  0.0470
  987POPC   C4B11976   9.644   0.457  17.182  0.1301  0.3285  0.1893
  988POPC   NC311977   0.745  12.916  15.063 -0.1901  0.0544 -0.2458
  988POPC   PO411978   1.112  13.057  15.041  0.2537  0.1094 -0.0466
  988POPC   GL111979   1.065  13.003  15.381  0.1019  0.0310  0.2215
  988POPC   GL211980   0.810  12.878  15.565 -0.0364  0.1452 -0.0425
  988POPC   C1A11981   1.123  13.310  15.723  0.3088 -0.1431 -0.1487
  988POPC   D2A11982   1.068  13.508  16.108  0.0792 -0.0884  0.0587
  988POPC   C3A11983   1.148  13.396  16.527 -0.1504 -0.0165  0.2199
  988POPC   C4A11984   1.296  13.543  16.898 -0.0073 -0.1351 -0.1401
  988POPC   C1B11985   0.851  13.033  16.038  0.1985  0.0758 -0.0896
  988POPC   C2B11986   0.759  13.048  16.511 -0.0178  0.1026  0.1443
  988POPC   C3B11987   0.646  13.140  16.891 -0.0001  0.4445 -0.3201
  988POPC   C4B11988   0.358  13.388  17.093 -0.3022 -0.1171  0.0025
  989POPC   NC311989  14.405  20.786  14.821  0.0373 -0.2621 -0.2070
  989POPC   PO411990  14.726  20.818  15.087  0.2763  0.0586 -0.2956
  989POPC   GL111991  14.510  20.851  15.478 -0.0730  0.0891  0.0911
  989POPC   GL211992  14.607  21.111  15.554 -0.1258  0.1127  0.3142
  989POPC   C1A11993  14.191  20.926  15.748 -0.0354  0.1402 -0.0919
  989POPC   D2A11994  14.185  20.985  16.209  0.1462  0.0927  0.0493
  989POPC   C3A11995  14.342  20.991  16.636  0.3835  0.1078  0.1524
  989POPC   C4A11996  14.492  20.613  16.914 -0.0790 -0.0703 -0.1495
  989POPC   C1B11997  14.644  20.916  16.000  0.2048 -0.0506 -0.0944
  989POPC   C2B11998  14.707  20.649  16.385 -0.0465 -0.0355  0.0993
  989POPC   C3B11999  14.940  20.366  16.672 -0.2053  0.3297  0.0331
  989POPC   C4B12000  15.010  20.293  17.089 -0.0771 -0.3438 -0.1079
  990POPC   NC312001   4.269   7.976  15.246  0.2488 -0.2661  0.1422
  990POPC   PO412002   3.968   8.020  15.495 -0.1037  0.0453  0.0250
  990POPC   GL112003   4.181   7.932  15.788 -0.2714 -0.2612 -0.1298
  990POPC   GL212004   4.317   7.600  15.732  0.1235 -0.2877 -0.2909
  990POPC   C1A12005   4.210   7.947  16.278  0.0927  0.2961  0.0388
  990POPC   D2A12006   4.284   8.229  16.620 -0.3103 -0.0585  0.2847
  990POPC   C3A12007   4.545   8.106  17.002 -0.1811 -0.1250 -0.2988
  990POPC   C4A12008   4.792   8.150  17.367 -0.1186 -0.1267 -0.0134
  990POPC   C1B12009   4.694   7.738  15.993 -0.2514 -0.2560 -0.0037
  990POPC   C2B12010   4.761   8.030  16.425 -0.0739  0.1172  0.0382
  990POPC   C3B12011   5.077   8.058  16.749  0.1261  0.0541 -0.0033
  990POPC   C4B12012   5.190   8.249  17.114 -0.0462  0.2863  0.2200
  991POPC   NC312013   7.934  24.438  15.411 -0.2578  0.2637 -0.0548
  991POPC   PO412014   8.283  24.408  15.183 -0.1579 -0.3717 -0.6325
  991POPC   GL112015   8.341  24.327  15.584 -0.0182  0.1867  0.0752
  991POPC   GL212016   8.220  24.082  15.637 -0.2263 -0.1855  0.2499
  991POPC   C1A12017   8.262  24.537  16.009  0.0309 -0.3562 -0.1054
  991POPC   D2A12018   8.478  24.907  16.109 -0.0670  0.1741 -0.0890
  991POPC   C3A12019   8.287  25.265  16.432  0.0086 -0.0070 -0.0479
  991POPC   C4A12020   8.240  25.673  16.750 -0.1847 -0.0151  0.2247
  991POPC   C1B12021   8.126  24.061  16.075 -0.0281 -0.0252  0.3756
  991POPC   C2B12022   8.219  24.263  16.479 -0.0974 -0.0280  0.1901
  991POPC   C3B12023   8.470  24.172  16.848  0.0220  0.0913 -0.2477
  991POPC   C4B12024   8.311  23.997  17.262  0.1785  0.0175  0.1987
  992POPC   NC312025   5.464  22.544  15.213 -0.0841 -0.2040  0.3244
  992POPC   PO412026   5.616  22.833  15.434 -0.2732 -0.0420  0.1353
  992POPC   GL112027   5.631  22.507  15.687 -0.0269 -0.1295 -0.1601
  992POPC   GL212028   5.812  22.717  15.878 -0.0189 -0.0153 -0.2685
  992POPC   C1A12029   5.534  22.252  16.070  0.1060  0.2221  0.1948
  992POPC   D2A12030   5.767  22.014  16.385 -0.1348 -0.1884  0.0189
  992POPC   C3A12031   5.639  21.640  16.641 -0.1810 -0.0598  0.3501
  992POPC   C4A12032   5.459  21.484  17.004  0.0313  0.2173  0.1664
  992POPC   C1B12033   5.869  22.698  16.352 -0.0987 -0.0161 -0.1052
  992POPC   C2B12034   5.609  22.439  16.718  0.0960  0.0056  0.0402
  992POPC   C3B12035   5.331  22.142  16.837  0.0313 -0.1067  0.0301
  992POPC   C4B12036   5.102  21.875  17.092  0.0473 -0.1765  0.2140
  993POPC   NC312037   5.719  20.038  14.570 -0.4371 -0.3447 -0.0899
  993POPC   PO412038   6.137  20.079  14.529 -0.0522  0.0516  0.0847
  993POPC   GL112039   6.048  20.224  14.936  0.0343  0.2862  0.0835
  993POPC   GL212040   6.034  20.457  15.127 -0.0736  0.0244  0.3665
  993POPC   C1A12041   5.629  20.157  15.103 -0.1562 -0.1093 -0.1472
  993POPC   D2A12042   5.290  19.934  15.194 -0.0743 -0.3513  0.0937
  993POPC   C3A12043   4.938  19.938  15.512 -0.4312 -0.3125  0.0028
  993POPC   C4A12044   4.690  20.037  15.913 -0.1468 -0.2024  0.0096
  993POPC   C1B12045   5.700  20.599  15.404 -0.2014 -0.0014  0.1976
  993POPC   C2B12046   5.502  20.690  15.818 -0.1580  0.2630 -0.3018
  993POPC   C3B12047   5.405  20.705  16.293  0.3611  0.4574  0.0861
  993POPC   C4B12048   5.250  21.126  16.432 -0.2382 -0.0217 -0.1254
  994POPC   NC312049   0.411  19.729  15.134  0.2183 -0.2378  0.3547
  994POPC   PO412050   0.220  20.049  15.279  0.0255 -0.1369  0.0512
  994POPC   GL112051   0.110  20.028  15.655 -0.3619 -0.0634  0.1586
  994POPC   GL212052  -0.159  19.958  15.749  0.0604 -0.1582  0.1984
  994POPC   C1A12053   0.292  20.377  15.945  0.1509 -0.1791  0.2537
  994POPC   D2A12054   0.318  20.395  16.447  0.1336  0.1779 -0.0154
  994POPC   C3A12055   0.481  20.358  16.871  0.0599  0.0931  0.1352
  994POPC   C4A12056   0.592  20.760  17.085  0.1900 -0.0014  0.1210
  994POPC   C1B12057  -0.044  20.070  16.196  0.0167 -0.3496  0.0451
  994POPC   C2B12058   0.009  20.079  16.664 -0.0818 -0.1772  0.1751
  994POPC   C3B12059   0.136  20.134  17.102 -0.2807 -0.1412  0.1665
  994POPC   C4B12060   0.382  20.039  17.525  0.2910  0.3961 -0.1310
  995POPC   NC312061   5.613  11.883  14.669 -0.1812 -0.2116 -0.1346
  995POPC   PO412062   5.607  11.618  14.982  0.1951  0.0052 -0.1655
  995POPC   GL112063   5.698  11.668  15.432  0.2394  0.2177 -0.2764
  995POPC   GL212064   5.522  11.502  15.577  0.1025  0.1572 -0.0980
  995POPC   C1A12065   5.941  11.331  15.714 -0.1788 -0.0833  0.2325
  995POPC   D2A12066   6.038  10.866  15.817 -0.1010  0.4178  0.1508
  995POPC   C3A12067   6.087  10.890  16.244 -0.1925  0.1556  0.1991
  995POPC   C4A12068   6.444  11.001  16.483  0.1008 -0.0241  0.0298
  995POPC   C1B12069   5.255  11.345  15.911 -0.1602  0.2856 -0.0230
  995POPC   C2B12070   5.278  11.205  16.334  0.3175 -0.2340 -0.0200
  995POPC   C3B12071   5.379  11.258  16.754  0.0002 -0.0295 -0.0070
  995POPC   C4B12072   5.372  11.156  17.234 -0.1320  0.0604 -0.3008
  996POPC   NC312073  15.440  15.762  15.517  0.1261  0.1913 -0.0183
  996POPC   PO412074  15.728  15.488  15.497 -0.0820 -0.0937  0.1682
  996POPC   GL112075  15.549  15.307  15.720 -0.0349 -0.0120 -0.0908
  996POPC   GL212076  15.195  15.228  15.596 -0.1592  0.2535 -0.0974
  996POPC   C1A12077  15.762  15.028  16.095 -0.1097  0.1150  0.0853
  996POPC   D2A12078  16.111  14.945  16.379 -0.2137 -0.3148  0.3974
  996POPC   C3A12079  16.127  14.986  16.832  0.2113  0.0277  0.4440
  996POPC   C4A12080  16.286  14.678  17.122 -0.0704 -0.0818  0.2379
  996POPC   C1B12081  15.294  15.292  16.058 -0.2099 -0.2291 -0.2457
  996POPC   C2B12082  15.520  15.250  16.462 -0.1373 -0.0551 -0.0286
  996POPC   C3B12083  15.354  14.929  16.760 -0.1959  0.0394 -0.1292
  996POPC   C4B12084  15.349  15.002  17.263  0.3604  0.0738 -0.2607
  997POPC   NC312085  15.716  30.418  15.176 -0.2415 -0.0459 -0.0028
  997POPC   PO412086  15.747  30.802  15.241 -0.2199 -0.1390  0.0943
  997POPC   GL112087  15.818  30.635  15.540 -0.3230 -0.0993  0.3772
  997POPC   GL212088  15.692  30.880  15.793  0.3122 -0.2232 -0.2064
  997POPC   C1A12089  16.091  30.540  15.899  0.4050  0.0595  0.0487
  997POPC   D2A12090  16.179  30.462  16.313  0.0412 -0.0762 -0.1371
  997POPC   C3A12091  15.920  30.643  16.666 -0.2741  0.2495 -0.0711
  997POPC   C4A12092  16.020  31.049  16.885 -0.0261 -0.1302 -0.2107
  997POPC   C1B12093  15.785  30.867  16.263  0.0740  0.5158  0.2108
  997POPC   C2B12094  15.577  31.031  16.667 -0.1042 -0.2093  0.0232
  997POPC   C3B12095  15.108  30.960  16.759  0.1155  0.1996 -0.1660
  997POPC   C4B12096  14.682  30.819  16.801  0.2201  0.1676  0.0873
  998POPC   NC312097  10.774  21.878  15.645  0.1595  0.0410 -0.1641
  998POPC   PO412098  11.144  21.939  15.588 -0.2453 -0.1300 -0.4679
  998POPC   GL112099  11.066  22.196  15.961  0.0752  0.2650  0.2731
  998POPC   GL212100  10.877  22.501  16.028 -0.3965  0.2149  0.4834
  998POPC   C1A12101  10.971  22.129  16.395 -0.0636  0.2673 -0.1131
  998POPC   D2A12102  10.843  22.198  16.873 -0.1526 -0.0036 -0.4117
  998POPC   C3A12103  10.431  22.372  16.949 -0.1782  0.3384  0.1762
  998POPC   C4A12104  10.252  22.736  17.130  0.0166  0.1363 -0.1958
  998POPC   C1B12105  10.791  22.521  16.484 -0.1811 -0.2673 -0.0458
  998POPC   C2B12106  10.851  22.660  16.952  0.0731 -0.0376  0.0326
  998POPC   C3B12107  10.759  22.472  17.341 -0.0282  0.0113 -0.3020
  998POPC   C4B12108  10.578  22.103  17.565  0.1454 -0.0658  0.1117
  999POPC   NC312109  12.287   5.075  15.119 -0.1024  0.3228  0.0339
  999POPC   PO412110  11.918   4.971  15.227 -0.1977  0.0262 -0.0516
  999POPC   GL112111  12.135   5.013  15.561  0.1002 -0.0360 -0.1532
  999POPC   GL212112  11.988   4.844  15.724  0.1836  0.1437 -0.2999
  999POPC   C1A12113  12.506   5.316  15.609  0.3370  0.0838  0.0520
  999POPC   D2A12114  12.706   5.348  16.017  0.2564 -0.1229  0.0483
  999POPC   C3A12115  12.555   5.240  16.442  0.0670  0.0549 -0.4350
  999POPC   C4A12116  12.600   5.169  16.925 -0.1361  0.2722  0.0735
  999POPC   C1B12117  11.859   4.969  16.151 -0.0924 -0.0101 -0.0097
  999POPC   C2B12118  11.780   4.895  16.604  0.1955  0.1349  0.0910
  999POPC   C3B12119  11.371   5.095  16.746  0.1976  0.0140 -0.4085
  999POPC   C4B12120  10.984   5.294  16.983 -0.1543  0.0180  0.0223
 1000POPC   NC312121  14.490   5.864  15.846  0.0018  0.1001  0.1274
 1000POPC   PO412122  14.773   6.076  15.630 -0.1111 -0.1461  0.2313
 1000POPC   GL112123  14.855   6.109  15.990 -0.0034  0.5124 -0.1803
 1000POPC   GL212124  14.857   5.914  16.146 -0.0946  0.1171 -0.2248
 1000POPC   C1A12125  14.717   6.308  16.383 -0.1238  0.0548  0.4500
 1000POPC   D2A12126  14.661   6.145  16.796 -0.1649  0.1364  0.1302
 1000POPC   C3A12127  14.846   6.458  17.112 -0.0859  0.1292  0.2411
 1000POPC   C4A12128  15.097   6.646  17.426 -0.0826  0.0456 -0.0593
 1000POPC   C1B12129  14.856   5.746  16.614 -0.1129 -0.0845  0.2691
 1000POPC   C2B12130  14.892   5.756  17.087  0.0185 -0.0809  0.1772
 1000POPC   C3B12131  14.581   5.740  17.433  0.1634 -0.0956  0.1000
 1000POPC   C4B12132  14.327   5.988  17.693 -0.0173  0.0802  0.1621
 1001POPC   NC312133   1.120  29.270  15.369 -0.3681 -0.0082 -0.1373
 1001POPC   PO412134   1.087  28.877  15.314 -0.0850 -0.1559 -0.1224
 1001POPC   GL112135   0.866  28.917  15.583  0.0519 -0.2116 -0.3652
 1001POPC   GL212136   0.568  29.019  15.612 -0.3217 -0.2933  0.1291
 1001POPC   C1A12137   0.914  29.078  16.038  0.0464  0.0931 -0.3017
 1001POPC   D2A12138   1.098  29.331  16.384 -0.2034 -0.1144 -0.2786
 1001POPC   C3A12139   1.023  29.344  16.871 -0.0130 -0.1079 -0.0193
 1001POPC   C4A12140   0.873  29.454  17.307 -0.0416 -0.0368 -0.1358
 1001POPC   C1B12141   0.338  29.248  15.925  0.0558  0.1897 -0.2901
 1001POPC   C2B12142   0.152  29.160  16.373  0.0205 -0.1420  0.0513
 1001POPC   C3B12143   0.200  28.905  16.716  0.3553  0.0948  0.3346
 1001POPC   C4B12144   0.235  28.859  17.157 -0.2004 -0.1549 -0.0000
 1002POPC   NC312145   9.114   3.034  15.118  0.1215  0.0778 -0.0964
 1002POPC   PO412146   9.453   2.827  15.219  0.0053  0.4342  0.1678
 1002POPC   GL112147   9.669   2.653  15.477  0.3276  0.2398  0.0973
 1002POPC   GL212148   9.832   2.948  15.532  0.2227 -0.0604 -0.2003
 1002POPC   C1A12149   9.547   2.458  15.838  0.2088  0.4535 -0.0131
 1002POPC   D2A12150   9.520   2.435  16.309  0.2832  0.1487  0.1521
 1002POPC   C3A12151   9.547   2.672  16.732 -0.0115 -0.0288  0.0568
 1002POPC   C4A12152   9.464   3.013  16.986 -0.0233 -0.2327 -0.3504
 1002POPC   C1B12153   9.706   2.982  15.966  0.1491 -0.0658 -0.1753
 1002POPC   C2B12154   9.813   3.110  16.430  0.1298 -0.2930  0.2069
 1002POPC   C3B12155  10.271   3.224  16.502  0.3855  0.0616  0.1137
 1002POPC   C4B12156  10.433   3.605  16.710 -0.0059 -0.0744  0.0149
 1003POPC   NC312157   3.532  26.250  15.085  0.0385 -0.3256 -0.1429
 1003POPC   PO412158   3.744  25.986  15.028  0.4000  0.2045  0.2170
 1003POPC   GL112159   3.614  25.916  15.401 -0.1549 -0.2246 -0.4934
 1003POPC   GL212160   3.458  25.749  15.409 -0.2940 -0.2438  0.0775
 1003POPC   C1A12161   3.621  25.969  15.868 -0.0580 -0.2687  0.2726
 1003POPC   D2A12162   3.736  26.002  16.326  0.2464  0.1200  0.0909
 1003POPC   C3A12163   3.664  26.164  16.733  0.3911  0.0629 -0.1159
 1003POPC   C4A12164   3.381  26.435  16.999  0.1372  0.1811 -0.1373
 1003POPC   C1B12165   3.193  26.107  15.577  0.0289 -0.1398 -0.0292
 1003POPC   C2B12166   2.765  26.071  15.663  0.0797  0.4364  0.2320
 1003POPC   C3B12167   2.444  26.012  16.022 -0.1507  0.1827 -0.2751
 1003POPC   C4B12168   2.493  25.687  16.358 -0.2257  0.0294  0.0101
 1004POPC   NC312169   7.323   2.701  15.644 -0.1909  0.2530 -0.0092
 1004POPC   PO412170   7.084   2.367  15.543  0.3864  0.1436  0.0736
 1004POPC   GL112171   6.906   2.562  15.797 -0.0514  0.2156  0.3074
 1004POPC   GL212172   6.795   2.341  15.971 -0.1183  0.0310 -0.3100
 1004POPC   C1A12173   7.095   2.853  16.059 -0.0598  0.1516 -0.0994
 1004POPC   D2A12174   7.273   2.889  16.452 -0.2996 -0.1777 -0.2702
 1004POPC   C3A12175   7.372   3.038  16.867  0.1791  0.0881 -0.3154
 1004POPC   C4A12176   7.265   2.818  17.284 -0.0793 -0.0065 -0.0523
 1004POPC   C1B12177   7.109   2.423  16.328 -0.0485 -0.0901  0.1227
 1004POPC   C2B12178   7.073   2.557  16.734 -0.0564  0.6703 -0.1662
 1004POPC   C3B12179   7.256   2.321  17.114  0.1101 -0.3332 -0.1333
 1004POPC   C4B12180   7.342   2.380  17.555  0.0279 -0.0926  0.1562
 1005POPC   NC312181   6.000  24.186  15.318  0.0101 -0.0267 -0.0507
 1005POPC   PO412182   6.363  24.347  15.350 -0.0532 -0.0414 -0.2199
 1005POPC   GL112183   6.369  24.385  15.715  0.0514 -0.0688  0.1723
 1005POPC   GL212184   6.334  24.618  15.853  0.2378 -0.0393 -0.3428
 1005POPC   C1A12185   6.528  24.177  16.069 -0.2161  0.3000  0.2851
 1005POPC   D2A12186   6.796  24.039  16.375  0.1093  0.3055  0.0086
 1005POPC   C3A12187   6.786  23.792  16.779 -0.0743 -0.1585  0.1884
 1005POPC   C4A12188   6.779  23.674  17.264 -0.2635 -0.0851 -0.2951
 1005POPC   C1B12189   6.652  24.591  16.241  0.0209  0.0826  0.0828
 1005POPC   C2B12190   6.993  24.630  16.551  0.2821 -0.2501  0.1501
 1005POPC   C3B12191   7.302  24.596  16.866  0.3257 -0.2439 -0.2015
 1005POPC   C4B12192   7.465  24.505  17.253  0.1956 -0.0219 -0.0544
 1006POPC   NC312193  11.949  26.290  15.935 -0.2067 -0.0849  0.3201
 1006POPC   PO412194  11.687  26.481  15.775  0.4608 -0.0900 -0.2033
 1006POPC   GL112195  11.414  26.567  16.105 -0.0917 -0.1267 -0.2511
 1006POPC   GL212196  11.370  26.878  16.042 -0.0105 -0.1695  0.0420
 1006POPC   C1A12197  11.375  26.498  16.587  0.0076  0.1367 -0.0605
 1006POPC   D2A12198  11.280  26.463  17.042  0.4230 -0.4025 -0.1207
 1006POPC   C3A12199  11.606  26.709  17.281  0.1401 -0.0850 -0.0062
 1006POPC   C4A12200  11.753  26.505  17.670  0.0908  0.2250  0.0831
 1006POPC   C1B12201  11.630  26.946  16.408  0.1121 -0.1363 -0.0220
 1006POPC   C2B12202  11.666  26.899  16.857 -0.2040 -0.1442  0.2915
 1006POPC   C3B12203  12.062  26.796  17.119  0.1255 -0.1232 -0.0038
 1006POPC   C4B12204  12.458  26.876  17.327 -0.0588 -0.1554  0.2360
 1007POPC   NC312205   1.854  29.615  14.828  0.0340  0.0618  0.1384
 1007POPC   PO412206   1.980  29.593  15.210  0.0866  0.1654 -0.0167
 1007POPC   GL112207   2.057  29.452  15.562  0.1005  0.2242 -0.2636
 1007POPC   GL212208   2.329  29.326  15.504  0.2312  0.2503 -0.2023
 1007POPC   C1A12209   1.920  29.351  16.050 -0.2981 -0.2302 -0.1944
 1007POPC   D2A12210   1.656  29.362  16.386 -0.0032 -0.3274  0.0872
 1007POPC   C3A12211   1.526  29.517  16.845 -0.4308 -0.2189  0.2219
 1007POPC   C4A12212   1.484  29.701  17.262  0.0511 -0.1281 -0.1305
 1007POPC   C1B12213   2.419  29.572  15.904 -0.2820  0.1887  0.0899
 1007POPC   C2B12214   2.457  29.877  16.265 -0.5027 -0.0133 -0.2218
 1007POPC   C3B12215   2.474  29.754  16.770  0.4319  0.0413 -0.1095
 1007POPC   C4B12216   2.500  29.810  17.242  0.5566 -0.2575  0.2534
 1008POPC   NC312217   8.754  28.893  14.971 -0.3292  0.0274  0.1734
 1008POPC   PO412218   8.422  28.686  15.072 -0.0858 -0.0731  0.1775
 1008POPC   GL112219   8.249  28.950  15.381 -0.0176  0.1478  0.0990
 1008POPC   GL212220   8.550  28.929  15.517  0.0073  0.4160  0.0378
 1008POPC   C1A12221   7.962  28.829  15.662 -0.0807 -0.0594 -0.0116
 1008POPC   D2A12222   7.842  29.012  16.070 -0.3386 -0.0793 -0.1071
 1008POPC   C3A12223   7.879  28.818  16.471  0.1631 -0.1307 -0.1994
 1008POPC   C4A12224   7.654  28.952  16.863  0.0165  0.0059 -0.0513
 1008POPC   C1B12225   8.352  29.138  15.885 -0.1305  0.1771 -0.0005
 1008POPC   C2B12226   8.298  29.111  16.346 -0.2475  0.3816  0.0981
 1008POPC   C3B12227   8.258  29.017  16.812  0.1785  0.1023 -0.1265
 1008POPC   C4B12228   8.062  29.058  17.195  0.1835  0.0951 -0.0970
 1009POPC   NC312229   7.656  20.474  15.118  0.0599  0.0972  0.0783
 1009POPC   PO412230   7.420  20.762  15.080 -0.2804 -0.0485  0.1200
 1009POPC   GL112231   7.444  20.978  15.450 -0.3554  0.1252 -0.1132
 1009POPC   GL212232   7.589  20.758  15.572  0.1832  0.0132  0.1513
 1009POPC   C1A12233   7.118  20.979  15.797  0.1125 -0.0400 -0.0305
 1009POPC   D2A12234   7.023  21.222  16.168  0.0539  0.2581 -0.1656
 1009POPC   C3A12235   6.763  21.163  16.527 -0.2092  0.0865  0.0499
 1009POPC   C4A12236   6.685  20.997  16.992 -0.0074 -0.2712 -0.5120
 1009POPC   C1B12237   7.436  20.606  15.958 -0.0442 -0.3018 -0.3936
 1009POPC   C2B12238   7.598  20.505  16.378  0.1932  0.3071  0.4114
 1009POPC   C3B12239   7.869  20.526  16.749  0.0445 -0.0469 -0.0361
 1009POPC   C4B12240   8.112  20.557  17.136 -0.0777 -0.1097 -0.2524
 1010POPC   NC312241   9.106  10.476  15.568 -0.0445  0.2164 -0.0131
 1010POPC   PO412242   8.765  10.504  15.275 -0.1296  0.0071 -0.2350
 1010POPC   GL112243   8.755  10.688  15.639 -0.2566  0.2021  0.2055
 1010POPC   GL212244   8.557  10.787  15.622  0.0301  0.0713  0.0068
 1010POPC   C1A12245   8.813  10.819  16.082  0.0193 -0.2000 -0.1268
 1010POPC   D2A12246   9.214  10.932  16.326  0.1182 -0.1242 -0.1140
 1010POPC   C3A12247   9.354  10.821  16.753 -0.0455 -0.1168  0.1842
 1010POPC   C4A12248   9.573  10.980  17.150  0.3401 -0.1123  0.1343
 1010POPC   C1B12249   8.289  10.781  16.026  0.0544  0.2573  0.1723
 1010POPC   C2B12250   8.117  10.836  16.457 -0.2099 -0.0488 -0.1929
 1010POPC   C3B12251   7.997  11.048  16.881  0.0676 -0.2569  0.1638
 1010POPC   C4B12252   7.718  11.008  17.241 -0.1765 -0.1545 -0.1022
 1011POPC   NC312253   3.220  28.295  14.862 -0.0874  0.1842  0.1609
 1011POPC   PO412254   3.201  28.647  15.028 -0.2039  0.0521  0.2814
 1011POPC   GL112255   3.145  28.473  15.388 -0.2150  0.1639 -0.0422
 1011POPC   GL212256   3.061  28.252  15.288 -0.1824  0.1824  0.1227
 1011POPC   C1A12257   3.234  28.439  15.852  0.1408 -0.0030  0.0253
 1011POPC   D2A12258   3.151  28.685  16.208 -0.0728 -0.0657  0.1205
 1011POPC   C3A12259   3.151  28.685  16.674 -0.0243  0.2526 -0.3938
 1011POPC   C4A12260   3.064  28.522  17.088 -0.0072 -0.0204  0.0732
 1011POPC   C1B12261   2.682  28.104  15.465 -0.1803  0.2954  0.0234
 1011POPC   C2B12262   2.510  28.080  15.908  0.1661  0.0826 -0.2043
 1011POPC   C3B12263   2.531  27.931  16.332  0.0768  0.0233 -0.2663
 1011POPC   C4B12264   2.604  27.653  16.683 -0.3553  0.0198  0.0159
 1012POPC   NC312265  15.764  17.316  15.276 -0.0369  0.1772 -0.1284
 1012POPC   PO412266  15.503  17.325  15.568  0.4043  0.1255  0.1009
 1012POPC   GL112267  15.394  17.272  15.921 -0.0092  0.2281  0.0096
 1012POPC   GL212268  15.474  17.548  16.060  0.1842  0.0187 -0.1764
 1012POPC   C1A12269  15.646  17.153  16.279  0.2930  0.1897 -0.0779
 1012POPC   D2A12270  15.779  17.000  16.695  0.0573 -0.1103 -0.1172
 1012POPC   C3A12271  15.431  17.241  16.936 -0.3401 -0.1033 -0.1704
 1012POPC   C4A12272  15.165  17.202  17.296  0.0016 -0.4301  0.0249
 1012POPC   C1B12273  15.305  17.470  16.508  0.4385 -0.0875  0.1216
 1012POPC   C2B12274  15.011  17.516  16.830  0.3920  0.0901  0.0015
 1012POPC   C3B12275  14.788  17.529  17.202 -0.1816  0.0423 -0.1202
 1012POPC   C4B12276  14.830  17.540  17.671  0.2779 -0.3827 -0.1322
 1013POPC   NC312277  12.422   9.718  15.084 -0.3296 -0.1047 -0.0526
 1013POPC   PO412278  12.217   9.366  15.008  0.0116 -0.0117 -0.1755
 1013POPC   GL112279  12.192   9.450  15.403  0.0183 -0.2725 -0.1166
 1013POPC   GL212280  12.046   9.698  15.417  0.0035 -0.3536 -0.0249
 1013POPC   C1A12281  12.527   9.669  15.705 -0.0102 -0.1236  0.1198
 1013POPC   D2A12282  12.745   9.665  16.095  0.0643 -0.0466 -0.1907
 1013POPC   C3A12283  12.498   9.593  16.471 -0.2842 -0.1380 -0.0183
 1013POPC   C4A12284  12.138   9.344  16.608  0.0253  0.1004  0.0542
 1013POPC   C1B12285  12.099   9.685  15.890  0.0905 -0.1412  0.4669
 1013POPC   C2B12286  11.920   9.349  16.144 -0.0855 -0.0279 -0.1374
 1013POPC   C3B12287  11.696   9.237  16.509  0.3476 -0.1496  0.0040
 1013POPC   C4B12288  11.805   9.275  16.965  0.2768 -0.1722 -0.2149
 1014POPC   NC312289  13.047  26.289  15.531  0.0717 -0.2002 -0.0736
 1014POPC   PO412290  13.310  26.003  15.423 -0.2664 -0.1624  0.0350
 1014POPC   GL112291  13.431  26.179  15.751  0.0700 -0.0474  0.3307
 1014POPC   GL212292  13.674  26.113  15.846  0.0242  0.1251  0.1236
 1014POPC   C1A12293  13.148  26.108  16.091 -0.2697  0.1034 -0.2509
 1014POPC   D2A12294  13.230  26.062  16.549 -0.2334  0.2590 -0.1415
 1014POPC   C3A12295  13.365  26.421  16.782 -0.1551  0.1595  0.3090
 1014POPC   C4A12296  13.428  26.396  17.232 -0.0332 -0.3259  0.0395
 1014POPC   C1B12297  13.664  25.832  16.252  0.2745  0.1953 -0.0688
 1014POPC   C2B12298  13.912  25.836  16.650  0.1181  0.0994  0.1373
 1014POPC   C3B12299  14.048  25.825  17.048  0.0207 -0.0120 -0.3367
 1014POPC   C4B12300  14.324  25.976  17.394  0.0257 -0.0952  0.0591
 1015POPC   NC312301  13.745  14.736  15.488 -0.0593  0.0815 -0.0660
 1015POPC   PO412302  13.580  14.708  15.141  0.0579  0.0729 -0.1540
 1015POPC   GL112303  13.370  14.951  15.450 -0.2895 -0.2451 -0.1624
 1015POPC   GL212304  13.111  14.997  15.369 -0.0327 -0.0461  0.1495
 1015POPC   C1A12305  13.552  14.964  15.884 -0.1104  0.1184  0.2110
 1015POPC   D2A12306  13.349  14.838  16.241 -0.2381 -0.0355  0.0260
 1015POPC   C3A12307  13.462  15.150  16.556 -0.0131  0.1568 -0.1588
 1015POPC   C4A12308  13.574  15.374  16.921 -0.0322 -0.1851 -0.1067
 1015POPC   C1B12309  13.085  14.850  15.821  0.0563 -0.0892  0.3500
 1015POPC   C2B12310  12.830  14.896  16.224 -0.0215  0.1567 -0.2115
 1015POPC   C3B12311  12.995  15.000  16.645  0.0948  0.1270 -0.2169
 1015POPC   C4B12312  13.382  14.854  16.912 -0.2034  0.0729 -0.2877
 1016POPC   NC312313   2.076  14.827  15.597  0.1370  0.0959 -0.3675
 1016POPC   PO412314   1.860  15.132  15.523 -0.0934 -0.1833  0.0077
 1016POPC   GL112315   1.617  15.243  15.814 -0.1239 -0.3371  0.0415
 1016POPC   GL212316   1.683  15.490  15.878 -0.0292 -0.0011  0.3317
 1016POPC   C1A12317   1.424  15.124  16.218  0.1629 -0.2291 -0.0520
 1016POPC   D2A12318   1.238  14.853  16.596 -0.3458 -0.1337 -0.5840
 1016POPC   C3A12319   1.583  14.608  16.821 -0.1705  0.2589  0.0595
 1016POPC   C4A12320   1.758  14.565  17.245  0.1520  0.1715  0.1145
 1016POPC   C1B12321   1.777  15.458  16.297 -0.1615 -0.0190  0.1670
 1016POPC   C2B12322   1.901  15.539  16.727 -0.1568 -0.1610 -0.1016
 1016POPC   C3B12323   2.094  15.696  17.148 -0.3985 -0.0398 -0.0083
 1016POPC   C4B12324   2.198  15.745  17.633  0.2536  0.0175 -0.1961
 1017POPC   NC312325   4.230   0.886  14.814 -0.0735  0.0260  0.0453
 1017POPC   PO412326   4.171   1.229  14.992  0.0244  0.0577 -0.1974
 1017POPC   GL112327   4.234   1.071  15.416  0.0611  0.0055 -0.0486
 1017POPC   GL212328   4.489   1.053  15.366  0.1296  0.0419  0.4739
 1017POPC   C1A12329   3.966   0.772  15.570  0.2891  0.0874  0.4849
 1017POPC   D2A12330   3.965   0.313  15.533  0.2501 -0.1588 -0.0517
 1017POPC   C3A12331   4.230  -0.013  15.314  0.4086 -0.5406 -0.1891
 1017POPC   C4A12332   4.643  -0.187  15.139  0.0877 -0.0440 -0.1681
 1017POPC   C1B12333   4.414   1.192  15.770 -0.0283  0.0962 -0.2489
 1017POPC   C2B12334   4.376   1.155  16.228  0.0222 -0.2416  0.0247
 1017POPC   C3B12335   4.375   0.836  16.559  0.0188 -0.2185 -0.0503
 1017POPC   C4B12336   4.401   0.491  16.919  0.0545  0.1794 -0.0449
 1018POPC   NC312337   6.679  15.805  15.324 -0.0939 -0.1042  0.3034
 1018POPC   PO412338   6.956  15.504  15.398  0.0160 -0.3383  0.1265
 1018POPC   GL112339   7.054  15.257  15.690 -0.2310  0.1187  0.0626
 1018POPC   GL212340   6.792  15.156  15.843  0.1370 -0.0519  0.0364
 1018POPC   C1A12341   7.224  15.375  16.091 -0.0201  0.3476 -0.3115
 1018POPC   D2A12342   7.210  15.512  16.522  0.2183 -0.0782  0.3251
 1018POPC   C3A12343   7.472  15.708  16.911  0.2316 -0.2191 -0.2014
 1018POPC   C4A12344   7.743  15.649  17.288  0.4657 -0.0044 -0.2248
 1018POPC   C1B12345   6.989  14.879  16.178  0.1206 -0.2057 -0.2357
 1018POPC   C2B12346   6.926  14.948  16.638  0.1504 -0.0965 -0.3169
 1018POPC   C3B12347   6.901  15.022  17.094  0.2312 -0.0604 -0.2071
 1018POPC   C4B12348   6.812  14.703  17.448  0.1299 -0.0978 -0.0728
 1019POPC   NC312349   7.059  24.692  14.896  0.2239 -0.1719 -0.4109
 1019POPC   PO412350   6.723  24.810  15.045  0.1385  0.2167  0.1798
 1019POPC   GL112351   6.653  24.700  15.498  0.0746  0.2236 -0.1024
 1019POPC   GL212352   6.824  24.565  15.547  0.0132 -0.0791 -0.2361
 1019POPC   C1A12353   6.766  24.916  15.903  0.0687 -0.1591  0.1663
 1019POPC   D2A12354   6.906  25.102  16.329 -0.1492  0.0526  0.1663
 1019POPC   C3A12355   6.879  25.062  16.778 -0.1418  0.0634 -0.0982
 1019POPC   C4A12356   7.182  25.038  17.098 -0.3965 -0.2756 -0.0380
 1019POPC   C1B12357   7.038  24.289  15.881 -0.0150 -0.2415 -0.0725
 1019POPC   C2B12358   7.240  24.324  16.297  0.3777  0.2212  0.0558
 1019POPC   C3B12359   7.561  24.193  16.583  0.1130  0.1021  0.1324
 1019POPC   C4B12360   7.864  24.047  16.935  0.1454  0.1535 -0.3067
 1020POPC   NC312361   1.841  17.472  15.369 -0.1254 -0.1211  0.1489
 1020POPC   PO412362   2.171  17.337  15.225  0.1214 -0.0492  0.4638
 1020POPC   GL112363   2.111  17.179  15.594 -0.3454  0.0146  0.1518
 1020POPC   GL212364   1.944  17.001  15.743 -0.3454  0.0485  0.2242
 1020POPC   C1A12365   2.312  17.236  16.014 -0.2558 -0.1422  0.1049
 1020POPC   D2A12366   2.666  17.338  16.251  0.0510  0.0738  0.0887
 1020POPC   C3A12367   3.085  17.245  16.557  0.3574  0.0104 -0.0822
 1020POPC   C4A12368   3.192  16.942  16.857  0.2635 -0.0879  0.0793
 1020POPC   C1B12369   1.832  17.154  16.146 -0.0947  0.1008  0.0154
 1020POPC   C2B12370   1.655  17.239  16.562  0.3831  0.0470 -0.1991
 1020POPC   C3B12371   1.594  17.420  17.039 -0.1562 -0.0087  0.0817
 1020POPC   C4B12372   1.372  17.638  17.392 -0.2038  0.0934  0.2162
 1021POPC   NC312373  13.971  29.996  15.394 -0.0006  0.0673  0.1197
 1021POPC   PO412374  13.763  30.275  15.221 -0.0348 -0.0844 -0.0319
 1021POPC   GL112375  13.710  30.485  15.491 -0.1008 -0.0915 -0.4941
 1021POPC   GL212376  13.961  30.529  15.613 -0.1400  0.1461  0.0368
 1021POPC   C1A12377  13.487  30.681  15.839  0.0444  0.1235  0.0748
 1021POPC   D2A12378  13.208  30.974  16.020  0.2510 -0.0628 -0.0141
 1021POPC   C3A12379  13.356  31.126  16.430  0.2488 -0.0294  0.0995
 1021POPC   C4A12380  13.625  31.353  16.774 -0.0349 -0.0523  0.0553
 1021POPC   C1B12381  13.871  30.590  16.079 -0.0844  0.2691  0.1975
 1021POPC   C2B12382  13.952  30.487  16.513 -0.0334  0.2467 -0.0779
 1021POPC   C3B12383  13.844  30.184  16.843  0.1076  0.0971 -0.3907
 1021POPC   C4B12384  13.695  29.804  16.742 -0.3012 -0.0927 -0.0820
 1022POPC   NC312385   2.318  31.344  15.046 -0.1093 -0.0685  0.0763
 1022POPC   PO412386   1.948  31.201  15.068 -0.1050 -0.2912 -0.2022
 1022POPC   GL112387   1.780  31.131  15.457  0.5275 -0.0176 -0.0907
 1022POPC   GL212388   1.614  31.335  15.426  0.1334  0.0605  0.1524
 1022POPC   C1A12389   1.676  30.826  15.846 -0.0770 -0.0373 -0.1356
 1022POPC   D2A12390   1.743  30.450  16.100 -0.0220  0.1381 -0.2542
 1022POPC   C3A12391   1.583  30.458  16.519  0.0063  0.3520  0.1051
 1022POPC   C4A12392   1.664  30.685  16.909  0.2638  0.1069 -0.2332
 1022POPC   C1B12393   1.388  31.178  15.755 -0.1908  0.1101  0.1434
 1022POPC   C2B12394   1.439  31.152  16.255 -0.1094 -0.3386  0.1311
 1022POPC   C3B12395   1.510  31.133  16.691  0.2777  0.1964  0.1852
 1022POPC   C4B12396   1.804  31.145  17.027  0.2286 -0.0132 -0.1686
 1023POPC   NC312397  12.611  31.676  15.001  0.3127 -0.0061  0.2962
 1023POPC   PO412398  12.471  32.045  14.871 -0.0960  0.3079 -0.1038
 1023POPC   GL112399  12.726  32.091  15.224 -0.0356 -0.1904 -0.2188
 1023POPC   GL212400  12.625  32.306  15.375 -0.3582  0.2299 -0.0165
 1023POPC   C1A12401  12.808  31.683  15.472 -0.0193  0.0576 -0.0090
 1023POPC   D2A12402  12.946  31.265  15.646 -0.0849  0.3608  0.0438
 1023POPC   C3A12403  13.204  31.453  16.020  0.0276  0.2058 -0.1925
 1023POPC   C4A12404  13.524  31.602  16.284 -0.0356 -0.2176  0.2306
 1023POPC   C1B12405  12.886  32.437  15.741 -0.0121  0.1783  0.1151
 1023POPC   C2B12406  12.904  32.361  16.173  0.2233  0.1987 -0.0070
 1023POPC   C3B12407  13.002  32.230  16.572  0.2982  0.1349  0.2442
 1023POPC   C4B12408  12.985  32.297  17.023 -0.0832 -0.0264  0.0408
 1024POPC   NC312409  12.994  24.887  15.607 -0.2585 -0.0556  0.1484
 1024POPC   PO412410  13.059  25.272  15.628  0.6055 -0.4759 -0.6052
 1024POPC   GL112411  13.040  25.535  16.029 -0.1716 -0.0200  0.2502
 1024POPC   GL212412  13.280  25.586  16.207  0.4742 -0.0727 -0.0619
 1024POPC   C1A12413  12.850  25.290  16.362 -0.2903  0.2512 -0.2005
 1024POPC   D2A12414  12.500  25.075  16.497  0.3571 -0.0856 -0.2659
 1024POPC   C3A12415  12.292  24.858  16.852 -0.1077 -0.2002  0.1717
 1024POPC   C4A12416  11.972  24.767  17.146  0.1535  0.1894 -0.0334
 1024POPC   C1B12417  13.435  25.625  16.691 -0.2610  0.0668  0.1013
 1024POPC   C2B12418  13.571  25.530  17.157 -0.3028  0.0557 -0.1937
 1024POPC   C3B12419  13.588  25.536  17.597  0.0329  0.2046 -0.0509
 1024POPC   C4B12420  13.639  25.383  18.017  0.1905 -0.2124  0.0540
 1025POPC   NC312421   5.579   5.345  15.092 -0.1576 -0.1501 -0.0664
 1025POPC   PO412422   5.653   5.766  15.054 -0.0948  0.1720  0.0511
 1025POPC   GL112423   5.534   5.655  15.402  0.8279 -0.0387  0.2150
 1025POPC   GL212424   5.781   5.874  15.506  0.4171 -0.1138  0.3652
 1025POPC   C1A12425   5.273   5.917  15.707 -0.1549 -0.0250 -0.0267
 1025POPC   D2A12426   5.237   6.097  16.121  0.0854 -0.0715  0.0636
 1025POPC   C3A12427   5.197   5.943  16.538 -0.0637  0.2640  0.0293
 1025POPC   C4A12428   5.039   5.774  16.936 -0.1078 -0.3333  0.1055
 1025POPC   C1B12429   5.684   5.987  15.949 -0.1935 -0.2489  0.1822
 1025POPC   C2B12430   5.640   6.092  16.449 -0.0846  0.0632 -0.0344
 1025POPC   C3B12431   5.572   5.946  16.885 -0.0079  0.0646  0.2588
 1025POPC   C4B12432   5.377   5.889  17.323 -0.0376  0.2213  0.2044
 1026POPC   NC312433  15.599  19.419  15.781 -0.0722 -0.2082  0.2046
 1026POPC   PO412434  15.723  19.106  15.816 -0.0643  0.1443 -0.1051
 1026POPC   GL112435  15.582  19.136  16.194 -0.0173 -0.0146 -0.1551
 1026POPC   GL212436  15.849  19.262  16.268 -0.2066  0.2280  0.1465
 1026POPC   C1A12437  15.286  19.100  16.543  0.0114 -0.0238 -0.1696
 1026POPC   D2A12438  15.141  19.318  16.924  0.3224  0.0842  0.1477
 1026POPC   C3A12439  15.456  19.468  17.177 -0.0373 -0.1016  0.1300
 1026POPC   C4A12440  15.707  19.676  17.449  0.1018  0.0117 -0.3688
 1026POPC   C1B12441  16.103  19.608  16.444  0.0880  0.0057  0.1944
 1026POPC   C2B12442  16.331  19.836  16.716  0.1008  0.0375  0.0013
 1026POPC   C3B12443  16.700  19.911  16.979  0.1857  0.3597 -0.1264
 1026POPC   C4B12444  16.770  20.201  17.335 -0.1387 -0.1856 -0.1733
 1027POPC   NC312445   1.449  12.704  14.932 -0.1962 -0.1354  0.0015
 1027POPC   PO412446   1.223  12.360  14.948  0.1655 -0.3006  0.0552
 1027POPC   GL112447   1.124  12.553  15.281 -0.0866 -0.3634  0.4300
 1027POPC   GL212448   0.807  12.465  15.288 -0.0980  0.2052  0.1199
 1027POPC   C1A12449   1.158  12.500  15.732 -0.1161  0.0782  0.0198
 1027POPC   D2A12450   1.344  12.845  15.912 -0.2644 -0.0095 -0.1819
 1027POPC   C3A12451   1.170  12.900  16.329 -0.0597  0.3108 -0.0034
 1027POPC   C4A12452   1.176  12.999  16.788  0.0252 -0.1525 -0.0111
 1027POPC   C1B12453   0.970  12.067  15.488 -0.0526 -0.0715  0.0637
 1027POPC   C2B12454   1.234  11.841  15.790  0.2772  0.0016 -0.2524
 1027POPC   C3B12455   1.259  11.823  16.221  0.2154 -0.2139 -0.2368
 1027POPC   C4B12456   1.206  11.577  16.575 -0.0865 -0.0904  0.1748
 1028POPC   NC312457   4.899  16.823  15.251  0.0195  0.5391  0.0510
 1028POPC   PO412458   4.796  17.102  15.504  0.2058  0.0484 -0.0987
 1028POPC   GL112459   5.060  17.248  15.770  0.0535  0.0779  0.0395
 1028POPC   GL212460   5.338  17.272  15.571 -0.1157 -0.0828 -0.1328
 1028POPC   C1A12461   5.150  17.205  16.244 -0.0376  0.0792 -0.0826
 1028POPC   D2A12462   5.022  17.186  16.721 -0.0824 -0.0087 -0.0146
 1028POPC   C3A12463   4.657  17.047  16.874  0.0765 -0.1480 -0.2330
 1028POPC   C4A12464   4.598  16.937  17.287  0.2395 -0.1710  0.0684
 1028POPC   C1B12465   5.280  17.706  15.803 -0.0588  0.2501 -0.0330
 1028POPC   C2B12466   4.930  17.973  15.978  0.2456 -0.2918  0.3973
 1028POPC   C3B12467   4.644  18.125  16.310  0.1662 -0.1534 -0.0759
 1028POPC   C4B12468   4.241  18.070  16.641 -0.0829  0.2913  0.1960
 1029POPC   NC312469   2.197   7.062  15.376 -0.0445  0.0496 -0.3734
 1029POPC   PO412470   1.843   7.041  15.267 -0.2389  0.1207 -0.1494
 1029POPC   GL112471   1.768   6.784  15.589  0.2455  0.1971 -0.2491
 1029POPC   GL212472   1.993   6.664  15.700 -0.2859  0.1814 -0.0386
 1029POPC   C1A12473   1.536   6.594  15.937  0.0689 -0.0361  0.1550
 1029POPC   D2A12474   1.197   6.321  16.022  0.0737 -0.1829  0.1846
 1029POPC   C3A12475   1.150   6.412  16.446 -0.1266  0.1784 -0.0972
 1029POPC   C4A12476   1.245   6.128  16.804  0.1809  0.2300 -0.2820
 1029POPC   C1B12477   2.100   6.578  16.157 -0.1447 -0.1929 -0.1229
 1029POPC   C2B12478   2.378   6.308  16.508 -0.0882 -0.2192  0.1287
 1029POPC   C3B12479   2.411   6.205  16.948  0.2398 -0.1242 -0.1111
 1029POPC   C4B12480   2.216   6.232  17.380 -0.3493 -0.0249 -0.0626
 1030POPC   NC312481  14.320  15.226  15.440 -0.1839  0.0056  0.0758
 1030POPC   PO412482  14.474  14.950  15.218  0.0460 -0.0594  0.0441
 1030POPC   GL112483  14.292  14.744  15.554  0.2047  0.0871 -0.1876
 1030POPC   GL212484  14.543  14.642  15.664  0.2855  0.0849  0.2128
 1030POPC   C1A12485  14.065  14.912  15.907  0.1380  0.0849 -0.1112
 1030POPC   D2A12486  13.821  14.755  16.207  0.3352 -0.4480  0.0843
 1030POPC   C3A12487  13.661  14.542  16.613 -0.3687 -0.3464 -0.1173
 1030POPC   C4A12488  13.430  14.206  16.640  0.0173  0.2929  0.3562
 1030POPC   C1B12489  14.956  14.868  15.802 -0.0433  0.0007  0.1424
 1030POPC   C2B12490  15.035  14.915  16.296 -0.2828  0.3294  0.0764
 1030POPC   C3B12491  15.034  15.306  16.550  0.0063  0.2384  0.1796
 1030POPC   C4B12492  15.320  15.548  16.881 -0.3800 -0.0220  0.0927
 1031POPC   NC312493   5.883   4.554  14.948 -0.2161  0.1559  0.0412
 1031POPC   PO412494   6.112   4.824  15.111 -0.0061  0.0581 -0.0610
 1031POPC   GL112495   6.024   4.886  15.523  0.1577 -0.1844 -0.0212
 1031POPC   GL212496   5.930   5.231  15.451 -0.1371 -0.2048 -0.0002
 1031POPC   C1A12497   6.040   4.977  15.951 -0.1191  0.3084 -0.1252
 1031POPC   D2A12498   6.164   5.114  16.399 -0.1973 -0.0226  0.2261
 1031POPC   C3A12499   5.925   5.249  16.690  0.1554 -0.3726 -0.1656
 1031POPC   C4A12500   5.948   4.951  17.036  0.3324  0.0304  0.0360
 1031POPC   C1B12501   5.829   5.476  15.805  0.1201 -0.2788  0.1098
 1031POPC   C2B12502   5.801   5.445  16.255 -0.0307  0.0264  0.0926
 1031POPC   C3B12503   5.949   5.703  16.605  0.1730  0.0739 -0.1733
 1031POPC   C4B12504   6.014   6.139  16.807  0.3625 -0.1047  0.0355
 1032POPC   NC312505   6.137   3.067  15.516  0.0158 -0.1067  0.0246
 1032POPC   PO412506   6.228   3.462  15.587  0.1002 -0.0538  0.0520
 1032POPC   GL112507   6.536   3.489  15.912  0.1569 -0.1745  0.1558
 1032POPC   GL212508   6.686   3.713  15.928 -0.1686 -0.0310  0.1761
 1032POPC   C1A12509   6.734   3.261  16.286 -0.1301 -0.0581  0.0003
 1032POPC   D2A12510   7.044   3.362  16.692 -0.0484  0.2689  0.0865
 1032POPC   C3A12511   6.826   3.592  17.100 -0.1568  0.1062  0.4412
 1032POPC   C4A12512   6.469   3.702  17.286  0.1025  0.1656 -0.1517
 1032POPC   C1B12513   6.919   3.759  16.289 -0.0464 -0.0534 -0.0574
 1032POPC   C2B12514   6.937   3.859  16.690 -0.3971  0.1052  0.0941
 1032POPC   C3B12515   7.176   4.036  17.040 -0.1435  0.0598  0.1333
 1032POPC   C4B12516   7.402   4.289  17.354 -0.2808  0.2537  0.2584
 1033POPC   NC312517  11.488   4.202  15.172  0.1433  0.0637 -0.0046
 1033POPC   PO412518  11.194   4.468  15.167  0.1129  0.2215  0.1515
 1033POPC   GL112519  11.205   4.466  15.598 -0.1056  0.1902  0.1518
 1033POPC   GL212520  10.903   4.474  15.671  0.0704  0.1067 -0.1860
 1033POPC   C1A12521  11.318   4.153  15.915  0.0703  0.3954 -0.0737
 1033POPC   D2A12522  11.182   4.078  16.383 -0.2929 -0.0246  0.1342
 1033POPC   C3A12523  11.545   4.059  16.655 -0.3269 -0.1624  0.1441
 1033POPC   C4A12524  11.982   3.914  16.787 -0.0901  0.3086  0.0007
 1033POPC   C1B12525  11.113   4.576  16.124 -0.3246 -0.0958 -0.0517
 1033POPC   C2B12526  11.371   4.918  16.279 -0.2268 -0.2026 -0.1334
 1033POPC   C3B12527  11.647   5.318  16.403  0.0483 -0.2001  0.3598
 1033POPC   C4B12528  11.900   5.666  16.579  0.0770 -0.0262  0.0067
 1034POPC   NC312529   2.650  12.265  14.925  0.3539  0.2782  0.0698
 1034POPC   PO412530   2.396  12.438  15.153 -0.1139  0.0647 -0.0218
 1034POPC   GL112531   2.566  12.352  15.492 -0.1787 -0.3080  0.1603
 1034POPC   GL212532   2.761  12.175  15.457  0.3667 -0.2202 -0.2787
 1034POPC   C1A12533   2.327  12.107  15.812 -0.0807 -0.0549  0.0188
 1034POPC   D2A12534   2.271  11.739  16.162  0.0122  0.0776  0.1534
 1034POPC   C3A12535   2.092  11.542  16.521 -0.0728 -0.1744 -0.2909
 1034POPC   C4A12536   1.711  11.440  16.793 -0.0292  0.0683 -0.2369
 1034POPC   C1B12537   2.757  12.360  15.895  0.1036  0.0630  0.1093
 1034POPC   C2B12538   2.881  12.446  16.366 -0.1174  0.1708  0.2611
 1034POPC   C3B12539   2.933  12.659  16.774 -0.0203 -0.0345  0.2618
 1034POPC   C4B12540   2.810  12.887  17.098 -0.1242 -0.0990  0.0808
 1035POPC   NC312541  11.776  25.441  15.556 -0.2099 -0.1043 -0.1774
 1035POPC   PO412542  11.819  25.803  15.749 -0.1177 -0.2063  0.0391
 1035POPC   GL112543  12.136  25.890  16.074 -0.3413  0.0969  0.0324
 1035POPC   GL212544  11.899  25.826  16.259  0.5120 -0.1536 -0.1140
 1035POPC   C1A12545  12.255  26.148  16.458  0.1659  0.5263 -0.1306
 1035POPC   D2A12546  12.344  26.512  16.818 -0.1369  0.2305  0.0832
 1035POPC   C3A12547  12.341  26.430  17.326 -0.1032  0.2783  0.1620
 1035POPC   C4A12548  12.671  26.486  17.717 -0.0594 -0.0849  0.1116
 1035POPC   C1B12549  11.922  25.823  16.742  0.1691  0.3392 -0.2449
 1035POPC   C2B12550  12.002  25.574  17.128 -0.0411  0.1529 -0.2712
 1035POPC   C3B12551  12.256  25.203  17.337  0.1380 -0.0605 -0.1377
 1035POPC   C4B12552  12.251  24.832  17.613 -0.0270  0.0251 -0.2559
 1036POPC   NC312553   3.075   2.826  15.288  0.2114 -0.2909 -0.1058
 1036POPC   PO412554   2.790   3.070  15.094 -0.3496 -0.0156 -0.0084
 1036POPC   GL112555   2.821   3.158  15.493  0.1101  0.1449 -0.2123
 1036POPC   GL212556   3.065   3.310  15.484  0.0981  0.1049 -0.1750
 1036POPC   C1A12557   2.477   3.142  15.824  0.1355  0.0840 -0.0410
 1036POPC   D2A12558   2.247   3.406  16.096  0.0746 -0.2516 -0.0376
 1036POPC   C3A12559   2.004   3.203  16.436 -0.2597  0.3968 -0.1903
 1036POPC   C4A12560   2.181   2.954  16.729 -0.4300  0.0569 -0.2268
 1036POPC   C1B12561   2.944   3.316  15.931 -0.1493 -0.0999  0.1407
 1036POPC   C2B12562   2.684   3.259  16.279  0.0066  0.0036 -0.2768
 1036POPC   C3B12563   2.657   3.128  16.776  0.4293  0.0596 -0.0071
 1036POPC   C4B12564   2.788   3.094  17.230  0.1665 -0.1023  0.0314
 1037POPC   NC312565  14.845  13.124  15.582 -0.2647 -0.4627  0.1278
 1037POPC   PO412566  14.565  13.418  15.503 -0.0785 -0.1727 -0.1254
 1037POPC   GL112567  14.375  13.208  15.779 -0.4085  0.0870  0.3582
 1037POPC   GL212568  14.028  13.112  15.761  0.0553  0.0224 -0.3915
 1037POPC   C1A12569  14.400  13.002  16.224 -0.0301 -0.2665 -0.1040
 1037POPC   D2A12570  14.462  13.137  16.656 -0.0483  0.3198  0.0685
 1037POPC   C3A12571  14.469  12.975  17.094 -0.2700 -0.0774  0.3886
 1037POPC   C4A12572  14.458  12.661  17.485  0.1356 -0.3812 -0.1278
 1037POPC   C1B12573  14.091  13.459  16.057 -0.3624 -0.0386 -0.0980
 1037POPC   C2B12574  14.022  13.702  16.411  0.1648  0.2736  0.1425
 1037POPC   C3B12575  13.919  13.875  16.820  0.1591  0.0262 -0.2557
 1037POPC   C4B12576  13.874  13.842  17.298 -0.2498 -0.0739 -0.1754
 1038POPC   NC312577   4.031  17.992  15.062 -0.1134 -0.7031  0.0837
 1038POPC   PO412578   3.958  18.241  14.776 -0.1757  0.1676  0.1186
 1038POPC   GL112579   4.056  18.551  15.091  0.2075 -0.1106  0.1155
 1038POPC   GL212580   3.764  18.513  15.157  0.0249 -0.1215  0.0748
 1038POPC   C1A12581   4.215  18.985  15.012  0.2374 -0.0616 -0.2837
 1038POPC   D2A12582   4.136  19.457  15.039 -0.1744 -0.1744 -0.0868
 1038POPC   C3A12583   4.272  19.858  14.861 -0.0387  0.1145  0.2443
 1038POPC   C4A12584   4.364  19.880  14.439  0.0541  0.0558 -0.0222
 1038POPC   C1B12585   3.552  18.490  15.556 -0.2458  0.1592  0.0595
 1038POPC   C2B12586   3.586  18.613  15.950  0.0748 -0.0045  0.2311
 1038POPC   C3B12587   3.855  18.568  16.338  0.0022 -0.1453 -0.1526
 1038POPC   C4B12588   3.922  18.728  16.735  0.0729 -0.0561 -0.0308
 1039POPC   NC312589   8.563  14.679  15.080  0.4653  0.3126  0.0999
 1039POPC   PO412590   8.742  14.991  15.189 -0.0836 -0.2235 -0.2878
 1039POPC   GL112591   8.690  15.005  15.573  0.0142 -0.0838  0.0671
 1039POPC   GL212592   8.955  15.122  15.638  0.0018  0.2138  0.3298
 1039POPC   C1A12593   8.848  14.799  15.927  0.0378  0.1007  0.1759
 1039POPC   D2A12594   9.160  14.668  16.182  0.1219  0.1693 -0.1421
 1039POPC   C3A12595   9.190  14.828  16.611  0.2083  0.3070 -0.1672
 1039POPC   C4A12596   9.043  14.893  17.047  0.2876  0.0235  0.3722
 1039POPC   C1B12597   9.360  15.040  15.854 -0.2941 -0.0189  0.0255
 1039POPC   C2B12598   9.589  14.955  16.251 -0.0724  0.0293 -0.0011
 1039POPC   C3B12599  10.024  14.716  16.424 -0.1663  0.0663  0.0406
 1039POPC   C4B12600  10.306  14.805  16.791  0.0517 -0.2329  0.0672
 1040POPC   NC312601   6.421   0.601  14.733  0.2318 -0.3151  0.2363
 1040POPC   PO412602   6.218   0.683  15.061  0.0199 -0.1788  0.1916
 1040POPC   GL112603   6.294   0.500  15.396 -0.2235  0.1190  0.0519
 1040POPC   GL212604   6.396   0.732  15.537 -0.3632 -0.2520  0.1543
 1040POPC   C1A12605   6.012   0.257  15.660 -0.1223  0.2500 -0.1784
 1040POPC   D2A12606   5.721  -0.050  15.490 -0.2390 -0.1300  0.3611
 1040POPC   C3A12607   5.494  -0.403  15.607  0.0124 -0.0012  0.1101
 1040POPC   C4A12608   5.246  -0.798  15.551 -0.2564  0.0353  0.0630
 1040POPC   C1B12609   6.183   0.633  15.936  0.1001  0.2121  0.6403
 1040POPC   C2B12610   6.246   0.413  16.349  0.1805 -0.1137 -0.2887
 1040POPC   C3B12611   6.180   0.228  16.760  0.1248 -0.1570 -0.1315
 1040POPC   C4B12612   5.862  -0.101  16.981 -0.3865 -0.2674 -0.0545
 1041POPC   NC312613   2.874   9.910  15.293  0.0661 -0.2009  0.4764
 1041POPC   PO412614   2.616  10.196  15.187  0.0332  0.1053 -0.0085
 1041POPC   GL112615   2.406  10.098  15.675  0.2090 -0.2328  0.0670
 1041POPC   GL212616   2.565   9.945  15.728  0.0360 -0.1610  0.1725
 1041POPC   C1A12617   2.301  10.237  16.153  0.2476  0.1657  0.1529
 1041POPC   D2A12618   2.327  10.384  16.605  0.1042 -0.0018  0.1156
 1041POPC   C3A12619   2.276  10.605  16.963  0.0456 -0.0835 -0.1396
 1041POPC   C4A12620   2.245  10.773  17.397 -0.1410 -0.1767  0.1129
 1041POPC   C1B12621   2.306   9.786  16.062 -0.0568 -0.2725  0.0689
 1041POPC   C2B12622   2.122   9.869  16.480 -0.2147 -0.1728  0.0053
 1041POPC   C3B12623   2.246  10.017  16.892 -0.1898 -0.1550 -0.3127
 1041POPC   C4B12624   2.493  10.037  17.281 -0.1295  0.2719  0.3400
 1042POPC   NC312625  15.602   7.116  15.501  0.1574 -0.2890 -0.0152
 1042POPC   PO412626  15.749   7.045  15.865 -0.0846 -0.0205  0.2110
 1042POPC   GL112627  15.557   7.266  16.085 -0.2492 -0.1538 -0.3269
 1042POPC   GL212628  15.713   7.509  16.025 -0.2373  0.1591  0.2777
 1042POPC   C1A12629  15.436   7.382  16.491  0.3148  0.0550 -0.0347
 1042POPC   D2A12630  15.414   7.559  16.976  0.0040 -0.4095 -0.1102
 1042POPC   C3A12631  15.104   7.525  17.372 -0.1518  0.0423  0.0639
 1042POPC   C4A12632  15.205   7.551  17.834 -0.2083  0.1562 -0.1348
 1042POPC   C1B12633  15.825   7.681  16.431  0.2583 -0.3748 -0.2039
 1042POPC   C2B12634  15.842   7.596  16.838 -0.4587 -0.1072  0.0984
 1042POPC   C3B12635  16.090   7.637  17.154  0.0777  0.1753 -0.0983
 1042POPC   C4B12636  16.234   7.452  17.544  0.1893  0.1230  0.0007
 1043POPC   NC312637  11.551  21.620  15.340 -0.2137 -0.0019  0.2393
 1043POPC   PO412638  11.856  21.859  15.467 -0.1133 -0.2190 -0.0549
 1043POPC   GL112639  11.578  21.846  15.708 -0.2174 -0.2648 -0.0844
 1043POPC   GL212640  11.581  22.137  15.845 -0.2144  0.2341  0.1165
 1043POPC   C1A12641  11.732  21.753  16.130 -0.1232  0.1925 -0.1477
 1043POPC   D2A12642  11.976  22.057  16.446 -0.1291 -0.0581 -0.0357
 1043POPC   C3A12643  11.800  21.886  16.815  0.2676  0.0253  0.2665
 1043POPC   C4A12644  11.581  21.785  17.228 -0.1087 -0.1179  0.0432
 1043POPC   C1B12645  11.473  22.100  16.345  0.1901  0.0755 -0.1239
 1043POPC   C2B12646  11.365  22.116  16.827  0.0102 -0.1481 -0.1644
 1043POPC   C3B12647  11.202  22.107  17.280  0.2548 -0.2229  0.2905
 1043POPC   C4B12648  11.409  21.898  17.662 -0.2365 -0.0404 -0.1658
 1044POPC   NC312649   4.342  26.271  15.759 -0.1195  0.0547  0.1058
 1044POPC   PO412650   4.525  26.494  15.482 -0.1757  0.2835  0.0391
 1044POPC   GL112651   4.768  26.310  15.840 -0.1942  0.1710 -0.2507
 1044POPC   GL212652   4.722  26.373  16.204 -0.1738  0.3379 -0.1782
 1044POPC   C1A12653   5.151  26.169  16.107  0.2256 -0.1228 -0.1375
 1044POPC   D2A12654   5.460  26.335  16.385 -0.1932 -0.2348 -0.2243
 1044POPC   C3A12655   5.326  26.462  16.801 -0.3656  0.1823 -0.3445
 1044POPC   C4A12656   5.071  26.387  17.170  0.0768 -0.0145 -0.0805
 1044POPC   C1B12657   4.947  26.302  16.587 -0.0773  0.0676 -0.1071
 1044POPC   C2B12658   5.345  25.981  16.749  0.0199 -0.0180  0.0348
 1044POPC   C3B12659   5.241  25.564  16.904 -0.1647 -0.0300  0.0865
 1044POPC   C4B12660   5.405  25.239  17.168 -0.0011  0.1904  0.2932
 1045POPC   NC312661  14.017  20.245  15.195  0.4441  0.0229 -0.0235
 1045POPC   PO412662  14.249  20.573  15.214  0.0547 -0.1586 -0.2200
 1045POPC   GL112663  14.219  20.401  15.636  0.0183 -0.4357 -0.1550
 1045POPC   GL212664  13.969  20.383  15.696  0.2920 -0.0285  0.1778
 1045POPC   C1A12665  14.247  20.487  16.094 -0.0364 -0.1076  0.1431
 1045POPC   D2A12666  14.131  20.487  16.479  0.1205 -0.0354 -0.2639
 1045POPC   C3A12667  14.055  20.129  16.733  0.0654  0.1590  0.1566
 1045POPC   C4A12668  13.784  19.873  16.966  0.1637 -0.1915  0.1569
 1045POPC   C1B12669  13.718  20.452  16.100  0.2093 -0.3557  0.2532
 1045POPC   C2B12670  13.665  20.393  16.579  0.2258 -0.1059  0.0276
 1045POPC   C3B12671  13.818  20.529  17.012  0.1323  0.0757 -0.3938
 1045POPC   C4B12672  14.104  20.694  17.293 -0.0203  0.0791 -0.0456
 1046POPC   NC312673   9.943  26.788  15.245 -0.0459  0.1875 -0.0765
 1046POPC   PO412674  10.183  26.472  15.383  0.1205 -0.3762  0.2577
 1046POPC   GL112675  10.156  26.512  15.753  0.0109  0.1531 -0.0754
 1046POPC   GL212676   9.888  26.628  15.769  0.1218  0.1766 -0.1371
 1046POPC   C1A12677  10.404  26.294  16.123  0.0715 -0.4653 -0.4357
 1046POPC   D2A12678  10.531  26.226  16.583  0.0580  0.3861 -0.1186
 1046POPC   C3A12679  10.219  26.431  16.834 -0.0777 -0.1079 -0.1967
 1046POPC   C4A12680   9.946  26.438  17.177 -0.0151 -0.0564 -0.3169
 1046POPC   C1B12681   9.579  26.637  16.141 -0.1425 -0.0015  0.0078
 1046POPC   C2B12682   9.147  26.420  16.327 -0.0820 -0.1051 -0.2070
 1046POPC   C3B12683   8.798  26.493  16.580 -0.1940  0.0707 -0.0683
 1046POPC   C4B12684   8.562  26.679  16.954  0.0787 -0.2590  0.0815
 1047POPC   NC312685   8.636  10.012  15.089  0.1097 -0.1116 -0.0693
 1047POPC   PO412686   8.783   9.901  15.434  0.2242 -0.0620 -0.0706
 1047POPC   GL112687   8.844   9.821  15.849 -0.2724 -0.0623 -0.0903
 1047POPC   GL212688   9.131  10.037  15.975 -0.1724  0.5020 -0.1489
 1047POPC   C1A12689   8.627   9.936  16.279 -0.1607 -0.0795  0.2816
 1047POPC   D2A12690   8.668  10.135  16.648  0.1772 -0.3085  0.0628
 1047POPC   C3A12691   8.709   9.948  17.060  0.0492  0.0347 -0.1233
 1047POPC   C4A12692   8.847   9.569  17.346 -0.0530  0.1977  0.1389
 1047POPC   C1B12693   9.213   9.934  16.447  0.2621  0.0012  0.2364
 1047POPC   C2B12694   9.114   9.766  16.870 -0.0424 -0.1105 -0.3028
 1047POPC   C3B12695   9.347   9.470  17.168 -0.1653 -0.0639 -0.0121
 1047POPC   C4B12696   9.526   9.043  17.366 -0.1422 -0.1967 -0.0972
 1048POPC   NC312697  11.789  29.568  15.626  0.0126 -0.0244 -0.1372
 1048POPC   PO412698  11.670  29.194  15.495  0.3098 -0.1201 -0.1266
 1048POPC   GL112699  11.467  29.239  15.830 -0.3765  0.2338 -0.0607
 1048POPC   GL212700  11.639  29.070  16.024  0.1570  0.3454  0.2109
 1048POPC   C1A12701  11.736  29.511  16.124  0.0445 -0.0386 -0.0832
 1048POPC   D2A12702  11.708  29.536  16.606  0.0685  0.1501 -0.1735
 1048POPC   C3A12703  11.848  29.929  16.647  0.0564 -0.0035 -0.1797
 1048POPC   C4A12704  12.060  30.267  16.911 -0.2836  0.1271 -0.3769
 1048POPC   C1B12705  11.471  29.153  16.521 -0.2124  0.0360  0.0950
 1048POPC   C2B12706  11.397  29.232  16.990  0.0175  0.3258  0.0995
 1048POPC   C3B12707  11.360  29.066  17.379  0.1377 -0.2367  0.0879
 1048POPC   C4B12708  11.388  28.766  17.714 -0.0520 -0.0047 -0.1083
 1049POPC   NC312709  15.167  22.741  14.722  0.0144 -0.0625 -0.1295
 1049POPC   PO412710  15.183  22.763  15.123  0.2878  0.2405  0.1913
 1049POPC   GL112711  15.193  22.894  15.557 -0.0066  0.0709  0.2123
 1049POPC   GL212712  15.125  23.127  15.572 -0.0898  0.0281  0.5367
 1049POPC   C1A12713  15.174  22.807  16.003 -0.1520  0.1833  0.2054
 1049POPC   D2A12714  15.488  22.964  16.331  0.0280  0.0933  0.1165
 1049POPC   C3A12715  15.382  23.224  16.709  0.2741 -0.3611  0.3046
 1049POPC   C4A12716  15.178  23.171  17.130  0.1861  0.2847 -0.1234
 1049POPC   C1B12717  15.061  23.346  15.942  0.3225 -0.1692  0.0788
 1049POPC   C2B12718  15.051  23.402  16.379  0.1828 -0.1994  0.1878
 1049POPC   C3B12719  14.929  23.494  16.775 -0.1446  0.1102 -0.1233
 1049POPC   C4B12720  14.613  23.574  17.101  0.0351 -0.0732 -0.3421
 1050POPC   NC312721   2.810  16.947  15.002  0.0785  0.3282  0.1477
 1050POPC   PO412722   2.839  16.596  15.251  0.1042 -0.0549  0.0376
 1050POPC   GL112723   2.533  16.494  15.558 -0.0391 -0.0666  0.1363
 1050POPC   GL212724   2.652  16.210  15.681 -0.2982 -0.1255 -0.0206
 1050POPC   C1A12725   2.440  16.661  15.972 -0.2151  0.0279 -0.0362
 1050POPC   D2A12726   2.432  16.834  16.375  0.1414  0.2091 -0.2395
 1050POPC   C3A12727   2.170  17.183  16.514 -0.1160 -0.0214  0.0376
 1050POPC   C4A12728   2.115  17.392  16.918  0.1976 -0.0306 -0.0856
 1050POPC   C1B12729   2.733  16.300  16.173 -0.1377  0.0599  0.1601
 1050POPC   C2B12730   2.499  16.268  16.546  0.1308 -0.0929  0.0835
 1050POPC   C3B12731   2.332  16.334  16.960  0.0286  0.0910  0.0436
 1050POPC   C4B12732   2.037  16.597  17.185 -0.0437 -0.0434  0.2939
 1051POPC   NC312733  13.868   7.311  15.448 -0.3476  0.0790  0.0176
 1051POPC   PO412734  14.234   7.159  15.471  0.0058 -0.1063 -0.1123
 1051POPC   GL112735  14.256   7.303  15.861  0.2563  0.2409  0.0740
 1051POPC   GL212736  14.430   7.550  15.814 -0.4344  0.3508 -0.2095
 1051POPC   C1A12737  14.526   7.282  16.220 -0.1682  0.0751  0.1744
 1051POPC   D2A12738  14.700   7.081  16.601  0.0039  0.3070 -0.0469
 1051POPC   C3A12739  14.699   7.089  17.036  0.0420 -0.0890  0.0352
 1051POPC   C4A12740  14.478   7.284  17.449  0.2631 -0.3308  0.0235
 1051POPC   C1B12741  14.503   7.796  16.256  0.1865 -0.3483  0.0114
 1051POPC   C2B12742  14.325   8.034  16.600  0.0190 -0.0929  0.2995
 1051POPC   C3B12743  14.540   8.313  16.883 -0.1153  0.2397  0.1998
 1051POPC   C4B12744  14.813   8.398  17.230 -0.1260  0.0285 -0.2655
 1052POPC   NC312745   4.934   9.037  14.926 -0.1103 -0.1116 -0.1571
 1052POPC   PO412746   5.131   9.345  14.829 -0.0621  0.0739 -0.0072
 1052POPC   GL112747   5.147   9.677  15.085  0.0596 -0.0326  0.4267
 1052POPC   GL212748   5.471   9.762  15.162 -0.1140 -0.2166  0.1141
 1052POPC   C1A12749   5.239   9.766  15.547  0.2469 -0.2138 -0.0150
 1052POPC   D2A12750   5.468  10.051  15.790  0.0008  0.1710  0.1832
 1052POPC   C3A12751   5.518   9.878  16.183 -0.0738  0.1521 -0.2807
 1052POPC   C4A12752   5.541   9.819  16.617 -0.0470 -0.1210  0.2031
 1052POPC   C1B12753   5.756   9.585  15.489 -0.0152  0.2158  0.0414
 1052POPC   C2B12754   5.978   9.274  15.741 -0.1704  0.0289  0.0642
 1052POPC   C3B12755   6.164   9.199  16.191  0.0501  0.1870  0.0578
 1052POPC   C4B12756   6.464   9.012  16.508  0.1337 -0.2871 -0.1126
 1053POPC   NC312757   1.723  18.759  14.997  0.0836 -0.1475  0.1518
 1053POPC   PO412758   1.336  18.909  14.998  0.2083  0.2549 -0.0183
 1053POPC   GL112759   1.235  18.891  15.421  0.0359 -0.0780  0.3168
 1053POPC   GL212760   1.513  19.028  15.514  0.0780 -0.0029 -0.1293
 1053POPC   C1A12761   1.185  18.736  15.863  0.1360 -0.2732 -0.0561
 1053POPC   D2A12762   1.133  18.566  16.238  0.0074 -0.0044 -0.3091
 1053POPC   C3A12763   1.112  18.854  16.609 -0.0028  0.2422  0.2946
 1053POPC   C4A12764   0.882  18.971  16.977 -0.1493  0.2833 -0.0690
 1053POPC   C1B12765   1.857  18.728  15.591  0.0014 -0.2175  0.1583
 1053POPC   C2B12766   2.142  18.413  15.700  0.0858 -0.0912 -0.2493
 1053POPC   C3B12767   2.569  18.265  15.766 -0.0020  0.1578 -0.0016
 1053POPC   C4B12768   2.950  18.340  15.507 -0.0214 -0.1238 -0.0800
 1054POPC   NC312769  10.955   4.923  15.446  0.0358 -0.3901  0.0326
 1054POPC   PO412770  10.624   4.973  15.241 -0.2215  0.1013  0.3282
 1054POPC   GL112771  10.531   4.847  15.648  0.1695 -0.2337 -0.4523
 1054POPC   GL212772  10.429   4.577  15.739 -0.2404  0.1359  0.0782
 1054POPC   C1A12773  10.425   5.038  16.096  0.1653  0.2264 -0.0602
 1054POPC   D2A12774  10.549   5.317  16.467 -0.0823 -0.1670 -0.2527
 1054POPC   C3A12775  10.423   5.464  16.892  0.1006  0.0110 -0.4174
 1054POPC   C4A12776  10.573   5.432  17.324  0.1021  0.0777  0.1352
 1054POPC   C1B12777  10.491   4.547  16.199 -0.0260 -0.2268 -0.1237
 1054POPC   C2B12778  10.355   4.880  16.552 -0.1750  0.0255  0.3468
 1054POPC   C3B12779  10.595   4.945  16.995  0.3720 -0.1970  0.0306
 1054POPC   C4B12780  10.803   4.978  17.412 -0.0103  0.1390  0.0038
 1055POPC   NC312781   5.078  10.175  15.275 -0.1090  0.1284  0.2531
 1055POPC   PO412782   5.110  10.547  15.166 -0.4513  0.1628  0.1976
 1055POPC   GL112783   5.077  10.615  15.522 -0.2493  0.2203  0.0785
 1055POPC   GL212784   5.249  10.482  15.630  0.1404 -0.2368 -0.1841
 1055POPC   C1A12785   5.117  10.847  15.922  0.2921 -0.0100 -0.0797
 1055POPC   D2A12786   5.089  10.761  16.381 -0.0874 -0.2260 -0.0794
 1055POPC   C3A12787   4.862  11.133  16.633 -0.0982 -0.0506  0.3353
 1055POPC   C4A12788   4.894  11.376  17.047 -0.1752 -0.0857  0.0963
 1055POPC   C1B12789   5.315  10.380  16.121 -0.1042  0.0903  0.0659
 1055POPC   C2B12790   5.434  10.367  16.548 -0.1859  0.0494 -0.2284
 1055POPC   C3B12791   5.542  10.356  16.938 -0.0661  0.5123 -0.3432
 1055POPC   C4B12792   5.785  10.367  17.348  0.1005 -0.1115 -0.1247
 1056POPC   NC312793  11.354   7.777  14.921  0.2658 -0.1198 -0.2137
 1056POPC   PO412794  11.458   7.796  14.557 -0.1324 -0.1725 -0.0962
 1056POPC   GL112795  11.587   7.454  14.716 -0.0327  0.0934  0.3467
 1056POPC   GL212796  11.801   7.488  14.941  0.0918  0.1457 -0.0610
 1056POPC   C1A12797  11.309   7.068  14.798  0.0102 -0.0056  0.0573
 1056POPC   D2A12798  11.361   6.817  15.194 -0.0309  0.1580  0.0381
 1056POPC   C3A12799  11.737   6.782  15.444 -0.2630  0.0508  0.0906
 1056POPC   C4A12800  12.124   7.022  15.252  0.1017 -0.2376  0.2494
 1056POPC   C1B12801  11.814   7.330  15.393 -0.0517 -0.0385  0.0633
 1056POPC   C2B12802  11.613   7.214  15.809  0.0208 -0.0743  0.1142
 1056POPC   C3B12803  11.601   7.397  16.252  0.0347 -0.2305 -0.1016
 1056POPC   C4B12804  11.664   7.291  16.648  0.4667  0.0743 -0.0777
 1057POPC   NC312805  15.192  17.061  15.327 -0.2154  0.0450 -0.0456
 1057POPC   PO412806  15.049  16.841  15.665 -0.0996 -0.1607  0.2640
 1057POPC   GL112807  15.038  16.742  16.113 -0.1332  0.1730 -0.4246
 1057POPC   GL212808  15.161  16.991  16.183  0.1526 -0.0979 -0.2699
 1057POPC   C1A12809  15.113  16.411  16.386  0.1755  0.2470 -0.1664
 1057POPC   D2A12810  14.952  16.445  16.833 -0.1211 -0.0139  0.0753
 1057POPC   C3A12811  14.785  16.354  17.317 -0.1567  0.2285  0.1125
 1057POPC   C4A12812  14.989  16.038  17.568 -0.0872 -0.0541  0.1635
 1057POPC   C1B12813  15.224  16.839  16.609 -0.0357 -0.2580  0.0883
 1057POPC   C2B12814  15.203  16.785  17.060 -0.1332 -0.0424 -0.3004
 1057POPC   C3B12815  15.212  16.630  17.513  0.0575  0.2310  0.4257
 1057POPC   C4B12816  15.397  16.790  17.889  0.1960  0.0052 -0.0833
 1058POPC   NC312817  10.391  15.725  14.779 -0.0090  0.0421  0.2564
 1058POPC   PO412818  10.087  15.566  14.935 -0.1852  0.0051 -0.0123
 1058POPC   GL112819  10.199  15.890  15.175 -0.1003  0.2565 -0.3160
 1058POPC   GL212820  10.261  16.123  15.352  0.1278 -0.1251 -0.0606
 1058POPC   C1A12821  10.495  15.730  15.493  0.0941 -0.1907  0.3979
 1058POPC   D2A12822  10.529  15.560  15.893  0.0955  0.2278  0.0185
 1058POPC   C3A12823  10.227  15.693  16.218  0.0505  0.0662 -0.0149
 1058POPC   C4A12824   9.919  15.796  16.533 -0.0631 -0.1179 -0.0116
 1058POPC   C1B12825  10.111  16.190  15.823  0.0597  0.3091  0.0042
 1058POPC   C2B12826  10.022  16.195  16.293 -0.1067  0.0662  0.0176
 1058POPC   C3B12827  10.104  16.537  16.578 -0.0636  0.2749  0.0862
 1058POPC   C4B12828  10.232  16.676  17.020  0.2322  0.0079 -0.1202
 1059POPC   NC312829   2.582  19.987  14.997 -0.1480 -0.0479 -0.2032
 1059POPC   PO412830   2.309  20.250  15.094 -0.0045  0.1632 -0.0345
 1059POPC   GL112831   2.252  20.369  15.534  0.3134 -0.1778 -0.3303
 1059POPC   GL212832   2.361  20.195  15.685  0.0960  0.2381  0.2074
 1059POPC   C1A12833   1.959  20.439  15.894 -0.2293  0.1489  0.2301
 1059POPC   D2A12834   1.919  20.468  16.337  0.0250  0.3098  0.3023
 1059POPC   C3A12835   1.737  20.067  16.413  0.0646 -0.1286 -0.0121
 1059POPC   C4A12836   1.846  19.730  16.769  0.0523  0.2415 -0.0253
 1059POPC   C1B12837   2.286  20.095  16.107 -0.0815 -0.2369 -0.1923
 1059POPC   C2B12838   2.291  19.870  16.516 -0.0307  0.0883  0.1530
 1059POPC   C3B12839   2.496  19.549  16.773  0.0109  0.0004  0.1212
 1059POPC   C4B12840   2.590  19.229  17.110 -0.1409 -0.1853 -0.3247
 1060POPC   NC312841   7.851  15.288  15.694 -0.0752  0.2248  0.0626
 1060POPC   PO412842   7.740  14.914  15.570  0.2855 -0.0656 -0.0784
 1060POPC   GL112843   7.857  14.757  15.943 -0.0500 -0.0603  0.2034
 1060POPC   GL212844   7.578  14.994  16.031 -0.1505  0.0095 -0.0718
 1060POPC   C1A12845   8.007  15.020  16.309  0.3596 -0.0552 -0.1230
 1060POPC   D2A12846   8.121  15.060  16.735 -0.1380 -0.3337 -0.0678
 1060POPC   C3A12847   7.789  14.788  16.941  0.0338 -0.0259  0.1462
 1060POPC   C4A12848   7.285  14.669  17.018  0.1798  0.3458  0.1257
 1060POPC   C1B12849   7.374  15.031  16.474 -0.3350 -0.3475 -0.0304
 1060POPC   C2B12850   7.334  15.157  16.921 -0.1277  0.2425 -0.0213
 1060POPC   C3B12851   7.141  15.521  17.225 -0.2653  0.1318 -0.2596
 1060POPC   C4B12852   7.009  15.945  17.298  0.1534  0.0693  0.0010
 1061POPC   NC312853  11.267  17.979  15.005 -0.0745  0.0548  0.0976
 1061POPC   PO412854  10.967  17.897  15.169 -0.0555 -0.3055 -0.1989
 1061POPC   GL112855  11.200  17.730  15.489  0.1470 -0.2982  0.1236
 1061POPC   GL212856  11.502  17.809  15.481  0.0424  0.3133  0.0116
 1061POPC   C1A12857  11.087  17.516  15.866 -0.2374 -0.2922 -0.1902
 1061POPC   D2A12858  11.164  17.078  16.159 -0.0391 -0.0289 -0.1507
 1061POPC   C3A12859  11.190  16.989  16.643  0.1580 -0.0415  0.1882
 1061POPC   C4A12860  10.951  16.889  16.995 -0.4398 -0.1343  0.1476
 1061POPC   C1B12861  11.553  17.723  15.924 -0.1540  0.1118 -0.1068
 1061POPC   C2B12862  11.276  17.710  16.298 -0.0800 -0.3122 -0.1722
 1061POPC   C3B12863  11.352  17.828  16.721  0.0346 -0.0623 -0.0817
 1061POPC   C4B12864  11.730  18.033  16.936  0.1134  0.2955 -0.1517
 1062POPC   NC312865   6.768  14.067  15.550  0.0412  0.0056  0.2104
 1062POPC   PO412866   6.555  14.324  15.314 -0.1510 -0.0430 -0.2141
 1062POPC   GL112867   6.348  14.224  15.735 -0.2195 -0.0130  0.1602
 1062POPC   GL212868   6.062  14.074  15.794 -0.4563 -0.1743 -0.1054
 1062POPC   C1A12869   6.457  14.286  16.178 -0.2689  0.2051  0.1663
 1062POPC   D2A12870   6.739  14.547  16.488 -0.1055  0.2081 -0.1329
 1062POPC   C3A12871   6.774  14.524  16.939  0.1946 -0.2233 -0.2550
 1062POPC   C4A12872   6.537  14.342  17.256  0.2402  0.1796 -0.2106
 1062POPC   C1B12873   6.035  13.955  16.234 -0.1777  0.1714 -0.1898
 1062POPC   C2B12874   6.071  13.925  16.701  0.1848  0.2838 -0.0001
 1062POPC   C3B12875   5.951  13.910  17.150 -0.2204  0.0062 -0.2115
 1062POPC   C4B12876   5.542  13.772  17.335  0.2815 -0.1733  0.3105
 1063POPC   NC312877  12.811   3.123  15.787  0.1289 -0.0380 -0.1770
 1063POPC   PO412878  13.158   3.195  15.639 -0.1422 -0.0479  0.1725
 1063POPC   GL112879  13.351   3.113  15.988 -0.2244  0.0695  0.0545
 1063POPC   GL212880  13.578   3.298  15.976 -0.0046 -0.3474 -0.1208
 1063POPC   C1A12881  13.127   2.967  16.377  0.0252 -0.0191  0.0162
 1063POPC   D2A12882  13.148   2.868  16.850  0.3204 -0.1128 -0.1945
 1063POPC   C3A12883  13.319   3.165  17.176 -0.1992 -0.1131 -0.0503
 1063POPC   C4A12884  13.607   3.460  17.428  0.0672 -0.1918 -0.2180
 1063POPC   C1B12885  13.398   3.426  16.355  0.0323  0.1842  0.3009
 1063POPC   C2B12886  13.151   3.331  16.705 -0.0187 -0.0019 -0.0866
 1063POPC   C3B12887  12.878   3.280  17.038 -0.0347 -0.1268 -0.0316
 1063POPC   C4B12888  12.902   2.923  17.364  0.0239 -0.2159 -0.1723
 1064POPC   NC312889   4.064  14.146  15.412  0.1532 -0.1780 -0.1544
 1064POPC   PO412890   3.966  14.518  15.448 -0.0153  0.1677  0.3520
 1064POPC   GL112891   3.941  14.414  15.820  0.0189  0.5097  0.3114
 1064POPC   GL212892   4.202  14.335  15.910  0.1455 -0.1024  0.1149
 1064POPC   C1A12893   3.960  14.674  16.146 -0.1217  0.0515 -0.0618
 1064POPC   D2A12894   4.069  14.631  16.596 -0.1067 -0.2547  0.3037
 1064POPC   C3A12895   4.124  14.319  16.865  0.4015  0.0325 -0.1046
 1064POPC   C4A12896   4.096  14.281  17.307 -0.3184  0.2970  0.0515
 1064POPC   C1B12897   4.326  14.241  16.366  0.1839  0.1684  0.0513
 1064POPC   C2B12898   4.606  14.269  16.730  0.0335 -0.2327  0.0128
 1064POPC   C3B12899   4.482  14.528  17.077 -0.3121 -0.1310  0.0133
 1064POPC   C4B12900   4.272  14.862  17.378 -0.2651 -0.1318 -0.0538
 1065POPC   NC312901  13.703   2.010  15.417  0.0853 -0.1659 -0.0397
 1065POPC   PO412902  13.328   1.834  15.319 -0.2379 -0.1300 -0.2812
 1065POPC   GL112903  13.269   1.655  15.701  0.2622  0.1555 -0.2563
 1065POPC   GL212904  13.092   1.356  15.782  0.1168 -0.3579 -0.0483
 1065POPC   C1A12905  13.475   1.537  16.133  0.0016  0.0220 -0.2134
 1065POPC   D2A12906  13.564   1.169  16.404 -0.2448  0.2786 -0.1171
 1065POPC   C3A12907  13.873   1.355  16.605 -0.1586  0.0480 -0.3219
 1065POPC   C4A12908  14.178   1.412  16.989 -0.0490  0.0025  0.1371
 1065POPC   C1B12909  13.240   1.024  16.013  0.0049  0.0280 -0.2317
 1065POPC   C2B12910  13.387   0.746  16.351 -0.1673  0.0335 -0.4596
 1065POPC   C3B12911  13.515   0.639  16.672 -0.1502 -0.0592  0.0980
 1065POPC   C4B12912  13.560   0.493  17.158  0.0455 -0.0858  0.1186
 1066POPC   NC312913   6.684  14.730  15.087 -0.1588 -0.0611  0.1700
 1066POPC   PO412914   6.853  15.008  15.339  0.3225  0.1147  0.0222
 1066POPC   GL112915   6.810  14.781  15.557  0.0588  0.5218  0.1614
 1066POPC   GL212916   6.465  14.790  15.566 -0.3166  0.0034  0.0405
 1066POPC   C1A12917   6.860  14.427  15.888  0.3068 -0.0900  0.0489
 1066POPC   D2A12918   6.899  14.017  16.133  0.0222 -0.1102 -0.0234
 1066POPC   C3A12919   7.240  13.959  16.421  0.0041  0.2427  0.1184
 1066POPC   C4A12920   7.465  13.796  16.811 -0.1811 -0.1470  0.5366
 1066POPC   C1B12921   6.514  14.754  16.060 -0.1006  0.1003 -0.0213
 1066POPC   C2B12922   6.462  14.980  16.473 -0.2899  0.0115  0.3117
 1066POPC   C3B12923   6.440  14.967  16.927 -0.4465 -0.1091  0.2284
 1066POPC   C4B12924   6.377  14.849  17.335  0.3941  0.4094 -0.1583
 1067POPC   NC312925   6.096  10.805  15.352  0.1754 -0.0921  0.0076
 1067POPC   PO412926   6.025  10.462  15.148 -0.4908  0.0972  0.2372
 1067POPC   GL112927   6.356  10.195  15.252  0.1239 -0.0404  0.1422
 1067POPC   GL212928   6.093  10.057  15.430  0.0273  0.2325 -0.0056
 1067POPC   C1A12929   6.608   9.976  15.558  0.0858  0.2728 -0.2293
 1067POPC   D2A12930   6.417   9.772  15.914  0.0148  0.3567 -0.2043
 1067POPC   C3A12931   6.576   9.346  16.057 -0.0297 -0.0976 -0.0676
 1067POPC   C4A12932   6.774   8.964  16.084 -0.0414  0.2126  0.2535
 1067POPC   C1B12933   5.957   9.843  15.814  0.1682  0.1762 -0.0300
 1067POPC   C2B12934   6.042   9.678  16.236  0.0191  0.0879  0.0609
 1067POPC   C3B12935   5.844   9.476  16.578 -0.0709  0.0073 -0.2143
 1067POPC   C4B12936   5.665   9.369  17.002 -0.0176 -0.0488 -0.1384
 1068POPC   NC312937  10.749  10.013  15.412  0.1194 -0.3746  0.3559
 1068POPC   PO412938  10.770  10.405  15.432  0.2061  0.1080 -0.3623
 1068POPC   GL112939  11.075  10.543  15.734 -0.2033  0.2095 -0.2499
 1068POPC   GL212940  11.243  10.776  15.782  0.0956  0.0064  0.0249
 1068POPC   C1A12941  11.006  10.509  16.209  0.0579 -0.0300  0.0529
 1068POPC   D2A12942  10.956  10.586  16.618 -0.0443 -0.0748 -0.0421
 1068POPC   C3A12943  11.320  10.830  16.778  0.0228  0.2473 -0.1541
 1068POPC   C4A12944  11.200  11.260  16.994  0.0132 -0.0127 -0.2039
 1068POPC   C1B12945  11.219  10.916  16.194  0.0332  0.1336 -0.0698
 1068POPC   C2B12946  11.395  11.242  16.523  0.0114  0.0324  0.0485
 1068POPC   C3B12947  11.464  11.653  16.733  0.1981 -0.0388 -0.3007
 1068POPC   C4B12948  11.755  11.821  17.079 -0.0253  0.0187  0.0259
 1069POPC   NC312949   6.563   6.037  14.650 -0.0741  0.0996  0.0718
 1069POPC   PO412950   6.558   6.295  14.942 -0.0567 -0.0146  0.1870
 1069POPC   GL112951   6.570   6.511  15.284 -0.0559 -0.1744 -0.2883
 1069POPC   GL212952   6.454   6.306  15.483 -0.2496 -0.1009  0.1393
 1069POPC   C1A12953   6.929   6.764  15.434 -0.3111 -0.4428  0.0237
 1069POPC   D2A12954   7.129   7.205  15.516 -0.2403 -0.1271  0.0267
 1069POPC   C3A12955   6.987   7.452  15.865 -0.1413 -0.0058  0.0985
 1069POPC   C4A12956   6.828   7.654  16.240  0.0357  0.0065 -0.0239
 1069POPC   C1B12957   6.526   6.497  15.892  0.1611  0.1366  0.0586
 1069POPC   C2B12958   6.744   6.497  16.324 -0.2509 -0.0624  0.1792
 1069POPC   C3B12959   6.980   6.316  16.678  0.2439 -0.2474 -0.1516
 1069POPC   C4B12960   6.954   6.387  17.138 -0.0599  0.1814 -0.1286
 1070POPC   NC312961   3.012  17.671  14.626  0.0878 -0.0392  0.0896
 1070POPC   PO412962   3.091  17.284  14.735 -0.0085 -0.3167 -0.0886
 1070POPC   GL112963   2.937  17.526  15.061  0.0886 -0.2711 -0.1459
 1070POPC   GL212964   2.808  17.354  15.294 -0.0827 -0.0851 -0.2699
 1070POPC   C1A12965   3.169  17.627  15.461  0.1950  0.4081 -0.0636
 1070POPC   D2A12966   3.240  18.015  15.706  0.1331 -0.2582 -0.0574
 1070POPC   C3A12967   3.641  18.129  15.927 -0.0369  0.0015  0.0004
 1070POPC   C4A12968   4.009  18.169  16.182  0.0975  0.3674 -0.1821
 1070POPC   C1B12969   2.970  17.162  15.738 -0.1917 -0.0684 -0.0104
 1070POPC   C2B12970   2.970  16.961  16.127  0.0685  0.0628 -0.0816
 1070POPC   C3B12971   2.879  16.682  16.466 -0.0330 -0.1143  0.1909
 1070POPC   C4B12972   2.732  16.605  16.875 -0.2040  0.1077  0.2014
 1071POPC   NC312973   5.667   6.976  15.616  0.2140 -0.0416  0.1120
 1071POPC   PO412974   5.837   7.105  15.317  0.1053 -0.1113  0.0434
 1071POPC   GL112975   6.079   7.437  15.297  0.2781  0.1032  0.2437
 1071POPC   GL212976   6.131   7.461  15.622  0.1078  0.2680 -0.0637
 1071POPC   C1A12977   6.424   7.728  15.086 -0.1034 -0.0776  0.1753
 1071POPC   D2A12978   6.619   8.151  15.082  0.3138  0.0444  0.0320
 1071POPC   C3A12979   6.941   8.094  15.414  0.0341  0.0417 -0.2570
 1071POPC   C4A12980   6.858   7.991  15.886  0.0423  0.0449 -0.1835
 1071POPC   C1B12981   6.252   7.646  16.028 -0.2084 -0.2482 -0.1883
 1071POPC   C2B12982   6.330   8.034  16.264 -0.3786 -0.0064  0.2227
 1071POPC   C3B12983   6.255   8.421  16.565  0.1086 -0.0668  0.1243
 1071POPC   C4B12984   6.068   8.779  16.404 -0.0362  0.1707  0.0665
 1072POPC   NC312985  13.718  24.696  15.240  0.2916  0.1255 -0.0137
 1072POPC   PO412986  13.380  24.890  15.316  0.0034  0.0689  0.1092
 1072POPC   GL112987  13.446  24.934  15.727 -0.4315  0.0093  0.1683
 1072POPC   GL212988  13.716  24.767  15.745 -0.1398 -0.0828  0.1992
 1072POPC   C1A12989  13.293  25.086  16.128  0.0473 -0.1805  0.2060
 1072POPC   D2A12990  13.340  25.065  16.597  0.2359  0.0533 -0.0911
 1072POPC   C3A12991  13.335  24.666  16.927  0.1801  0.1205  0.0286
 1072POPC   C4A12992  13.119  24.373  17.226 -0.1795  0.0611  0.2262
 1072POPC   C1B12993  13.841  24.530  16.118 -0.4924 -0.0367  0.0026
 1072POPC   C2B12994  14.020  24.544  16.514  0.1026  0.1311  0.0752
 1072POPC   C3B12995  13.848  24.367  16.940  0.2886  0.0198 -0.2869
 1072POPC   C4B12996  13.708  24.190  17.304  0.3170 -0.2046  0.1668
 1073POPC   NC312997  11.560  23.303  15.014  0.0932  0.1698 -0.1160
 1073POPC   PO412998  11.906  23.411  15.144 -0.1479 -0.1195 -0.3465
 1073POPC   GL112999  11.991  23.218  15.433 -0.0948 -0.4845 -0.0561
 1073POPC   GL213000  12.275  23.276  15.586  0.1000  0.0376 -0.0241
 1073POPC   C1A13001  11.785  23.400  15.830 -0.0294  0.2322  0.2097
 1073POPC   D2A13002  11.410  23.350  16.116 -0.0753 -0.0680  0.1150
 1073POPC   C3A13003  11.140  23.018  16.278 -0.2879  0.3238  0.2110
 1073POPC   C4A13004  10.876  23.049  16.632 -0.1258 -0.0647  0.1410
 1073POPC   C1B13005  12.260  23.016  15.981 -0.1180  0.0986 -0.0030
 1073POPC   C2B13006  12.110  22.918  16.366  0.1123  0.0029 -0.0096
 1073POPC   C3B13007  12.040  22.988  16.820  0.3549 -0.0626 -0.0246
 1073POPC   C4B13008  11.848  22.794  17.184 -0.2747  0.1022  0.0038
 1074POPC   NC313009   6.925  16.663  15.075 -0.0036  0.0030  0.0059
 1074POPC   PO413010   6.545  16.661  15.161  0.0601 -0.0468 -0.0333
 1074POPC   GL113011   6.771  16.563  15.556  0.0829 -0.1482  0.0792
 1074POPC   GL213012   6.664  16.723  15.720  0.0259  0.1874 -0.0288
 1074POPC   C1A13013   7.159  16.679  15.796  0.1359  0.1001  0.1178
 1074POPC   D2A13014   7.178  16.803  16.267  0.3802 -0.0079 -0.0586
 1074POPC   C3A13015   7.455  16.836  16.557  0.1625 -0.2796  0.0608
 1074POPC   C4A13016   7.630  16.640  16.967  0.0343 -0.3604 -0.2973
 1074POPC   C1B13017   6.641  16.439  16.099 -0.1181 -0.0539  0.2351
 1074POPC   C2B13018   6.925  16.366  16.464  0.2805  0.0654 -0.0777
 1074POPC   C3B13019   7.270  16.334  16.837  0.0351  0.3084 -0.1635
 1074POPC   C4B13020   7.492  16.179  17.189 -0.0305  0.1034  0.0084
 1075POPC   NC313021   3.322  12.786  15.563  0.0924  0.0332  0.1346
 1075POPC   PO413022   3.301  12.495  15.299 -0.0009  0.0029  0.1446
 1075POPC   GL113023   3.163  12.314  15.678 -0.5259 -0.0233 -0.0088
 1075POPC   GL213024   3.186  12.033  15.640 -0.0688 -0.1452 -0.1397
 1075POPC   C1A13025   3.223  12.639  16.043 -0.0397  0.0865 -0.0705
 1075POPC   D2A13026   3.237  13.118  15.969 -0.0709 -0.2928  0.2499
 1075POPC   C3A13027   3.456  13.356  16.269  0.1660  0.2185  0.0562
 1075POPC   C4A13028   3.576  13.755  16.503  0.2694 -0.4882  0.0867
 1075POPC   C1B13029   3.174  12.115  16.099  0.0628  0.2833  0.0468
 1075POPC   C2B13030   3.252  12.041  16.526 -0.0312 -0.0420  0.1396
 1075POPC   C3B13031   2.962  12.176  16.851 -0.0901 -0.0700  0.1268
 1075POPC   C4B13032   2.986  12.427  17.282 -0.0402 -0.0150  0.0029
 1076POPC   NC313033   6.230  25.825  14.616 -0.2179 -0.0641 -0.1713
 1076POPC   PO413034   6.287  25.601  14.908  0.2817  0.0378 -0.1476
 1076POPC   GL113035   6.554  25.602  15.171  0.1831 -0.1263  0.0053
 1076POPC   GL213036   6.492  25.322  15.274  0.0561 -0.0192 -0.1906
 1076POPC   C1A13037   6.540  25.655  15.640 -0.3747  0.1177  0.2939
 1076POPC   D2A13038   6.797  25.447  15.975  0.1657  0.1475 -0.0553
 1076POPC   C3A13039   7.177  25.262  15.998 -0.0739  0.2878 -0.1534
 1076POPC   C4A13040   7.627  25.145  15.959  0.4192 -0.0726  0.1683
 1076POPC   C1B13041   6.857  25.258  15.538  0.1439 -0.0808  0.2081
 1076POPC   C2B13042   7.335  25.361  15.514  0.1149 -0.1099 -0.0445
 1076POPC   C3B13043   7.504  25.628  15.908  0.1665  0.1535  0.0025
 1076POPC   C4B13044   7.522  25.573  16.354  0.0153 -0.1645 -0.0111
 1077POPC   NC313045   0.610  30.150  15.071  0.0368 -0.1985  0.0923
 1077POPC   PO413046   0.760  30.494  15.075 -0.0753 -0.2495  0.0448
 1077POPC   GL113047   0.730  30.562  15.514 -0.3831  0.0323 -0.0723
 1077POPC   GL213048   0.598  30.837  15.715 -0.0993  0.0018  0.0623
 1077POPC   C1A13049   0.652  30.333  15.958  0.0942  0.0566 -0.0678
 1077POPC   D2A13050   0.809  30.332  16.351  0.0897  0.0691 -0.1669
 1077POPC   C3A13051   0.724  30.302  16.826 -0.0098  0.1804 -0.3591
 1077POPC   C4A13052   0.580  30.090  17.227 -0.1097 -0.2832 -0.0195
 1077POPC   C1B13053   0.683  30.845  16.177  0.0764 -0.1044 -0.1567
 1077POPC   C2B13054   0.619  30.813  16.568  0.0362 -0.2601 -0.0099
 1077POPC   C3B13055   0.661  31.029  16.947 -0.1510  0.0960 -0.4173
 1077POPC   C4B13056   0.834  31.097  17.376 -0.0107  0.4037  0.0560
 1078POPC   NC313057  14.299  22.009  15.559 -0.3803  0.3382  0.2790
 1078POPC   PO413058  14.620  22.163  15.408 -0.1243 -0.1095 -0.0487
 1078POPC   GL113059  14.580  22.528  15.661 -0.2912  0.2238 -0.0064
 1078POPC   GL213060  14.755  22.712  15.785  0.4514 -0.1888  0.0831
 1078POPC   C1A13061  14.527  22.345  16.097  0.0791 -0.0249  0.0824
 1078POPC   D2A13062  14.702  22.329  16.533 -0.2452  0.1782 -0.1564
 1078POPC   C3A13063  15.024  22.503  16.799  0.2394 -0.1754 -0.2815
 1078POPC   C4A13064  15.452  22.576  16.988  0.1665  0.0709  0.0796
 1078POPC   C1B13065  14.796  22.727  16.280 -0.0134  0.0207 -0.0614
 1078POPC   C2B13066  14.781  22.961  16.690  0.0957 -0.0565  0.0549
 1078POPC   C3B13067  14.462  23.115  17.046  0.2196 -0.0501  0.0502
 1078POPC   C4B13068  14.049  23.219  17.165 -0.1520 -0.2522  0.0090
 1079POPC   NC313069   5.298  18.802  14.113 -0.5654 -0.0326  0.1043
 1079POPC   PO413070   5.278  18.713  14.476 -0.1228 -0.1619 -0.2781
 1079POPC   GL113071   5.428  18.602  14.906  0.0104  0.0351 -0.1983
 1079POPC   GL213072   5.460  18.926  14.930 -0.1437  0.3716  0.1597
 1079POPC   C1A13073   5.239  18.644  15.343  0.3503 -0.3438 -0.0782
 1079POPC   D2A13074   5.243  18.700  15.780  0.2875  0.1370  0.1775
 1079POPC   C3A13075   5.091  19.053  16.053 -0.0013  0.0887  0.3265
 1079POPC   C4A13076   5.038  19.365  16.383 -0.0390  0.1775  0.0202
 1079POPC   C1B13077   5.051  19.047  15.074  0.1524 -0.1687  0.0089
 1079POPC   C2B13078   4.635  19.204  15.119 -0.1621 -0.1614  0.1895
 1079POPC   C3B13079   4.398  19.267  15.517 -0.2319  0.0168 -0.2160
 1079POPC   C4B13080   4.296  19.705  15.710 -0.1083  0.1033  0.0470
 1080POPC   NC313081   2.449  22.882  15.429 -0.0421 -0.1324  0.2585
 1080POPC   PO413082   2.208  23.078  15.165 -0.3636 -0.0350  0.1627
 1080POPC   GL113083   2.218  23.350  15.470  0.5945 -0.5234  0.0574
 1080POPC   GL213084   1.992  23.321  15.542 -0.0296 -0.2245  0.0005
 1080POPC   C1A13085   2.496  23.392  15.856  0.1958 -0.1694  0.0166
 1080POPC   D2A13086   2.671  23.142  16.124 -0.1104 -0.0749 -0.1793
 1080POPC   C3A13087   2.613  23.091  16.576 -0.0341 -0.0018  0.0426
 1080POPC   C4A13088   2.301  23.274  16.883  0.0832  0.2072  0.1048
 1080POPC   C1B13089   1.800  23.451  15.931  0.0599 -0.1439  0.1899
 1080POPC   C2B13090   1.401  23.502  16.058 -0.2655  0.0901  0.0612
 1080POPC   C3B13091   1.098  23.509  16.371 -0.2067  0.0407 -0.0175
 1080POPC   C4B13092   0.884  23.528  16.842  0.0641 -0.2938 -0.0037
 1081POPC   NC313093   4.863  13.490  15.399  0.4249  0.2386  0.1301
 1081POPC   PO413094   5.246  13.327  15.390  0.1722  0.4461  0.0964
 1081POPC   GL113095   5.401  13.199  15.690  0.0808  0.1327 -0.0089
 1081POPC   GL213096   5.204  13.321  15.915 -0.0934  0.0889 -0.0826
 1081POPC   C1A13097   5.684  13.212  16.054 -0.0631 -0.0972 -0.0719
 1081POPC   D2A13098   5.655  13.625  16.299  0.1378  0.2243 -0.2349
 1081POPC   C3A13099   5.654  13.622  16.775  0.2305  0.0214 -0.6246
 1081POPC   C4A13100   5.937  13.417  17.050 -0.1083 -0.1978 -0.1137
 1081POPC   C1B13101   5.287  12.971  16.263  0.0131 -0.0207  0.0942
 1081POPC   C2B13102   5.073  12.589  16.482  0.0407 -0.0326  0.1038
 1081POPC   C3B13103   4.756  12.444  16.766  0.1660  0.1292 -0.0045
 1081POPC   C4B13104   4.386  12.257  16.970  0.0931  0.0084 -0.0028
 1082POPC   NC313105   0.480   2.384  14.660 -0.0640 -0.0393 -0.1150
 1082POPC   PO413106   0.327   2.187  14.958 -0.3147 -0.1814 -0.0335
 1082POPC   GL113107   0.399   2.214  15.411 -0.0802 -0.1060 -0.1388
 1082POPC   GL213108   0.145   2.194  15.491  0.0974 -0.0944 -0.2251
 1082POPC   C1A13109   0.552   2.385  15.827 -0.0889 -0.0985  0.0933
 1082POPC   D2A13110   0.576   2.300  16.315  0.0309  0.0982  0.1097
 1082POPC   C3A13111   0.447   2.425  16.741  0.0102 -0.0161 -0.2233
 1082POPC   C4A13112   0.674   2.737  17.054  0.1216 -0.0577 -0.0365
 1082POPC   C1B13113   0.062   2.288  15.922 -0.4029  0.0219  0.1465
 1082POPC   C2B13114   0.160   2.005  16.332 -0.0469 -0.1762  0.0894
 1082POPC   C3B13115   0.248   1.831  16.738 -0.1883  0.0732  0.0693
 1082POPC   C4B13116   0.116   1.654  17.132 -0.1750 -0.3965 -0.1661
 1083POPC   NC313117   9.864  29.180  15.201  0.0853 -0.0364 -0.0231
 1083POPC   PO413118   9.950  28.932  14.963 -0.1296 -0.1241  0.2975
 1083POPC   GL113119   9.682  28.711  15.358 -0.1791 -0.0077 -0.3317
 1083POPC   GL213120   9.839  28.897  15.596 -0.2493  0.1573 -0.2377
 1083POPC   C1A13121   9.406  28.669  15.772 -0.0360  0.1259 -0.3495
 1083POPC   D2A13122   9.412  28.758  16.214 -0.0522  0.2494 -0.2251
 1083POPC   C3A13123   9.069  28.666  16.465  0.1215  0.0277  0.2060
 1083POPC   C4A13124   9.127  28.623  16.894  0.0873 -0.0668 -0.3511
 1083POPC   C1B13125   9.850  28.486  15.871 -0.3991  0.1850  0.1999
 1083POPC   C2B13126   9.734  28.264  16.256  0.1075  0.2327  0.0954
 1083POPC   C3B13127   9.754  27.974  16.632  0.0545  0.0756  0.5629
 1083POPC   C4B13128   9.844  27.995  17.053 -0.1111 -0.2167 -0.1363
 1084POPC   NC313129  15.140   3.761  15.250 -0.0247  0.0083  0.2002
 1084POPC   PO413130  15.093   4.036  15.573 -0.4468 -0.0470 -0.2977
 1084POPC   GL113131  15.332   4.293  15.803 -0.2291  0.0060 -0.0265
 1084POPC   GL213132  15.552   4.133  15.811 -0.1159  0.2050 -0.0112
 1084POPC   C1A13133  15.747   4.507  16.020 -0.0338 -0.5283 -0.2129
 1084POPC   D2A13134  15.852   4.906  16.258 -0.0505  0.2058  0.1827
 1084POPC   C3A13135  15.566   4.785  16.642  0.0368 -0.4358  0.0399
 1084POPC   C4A13136  15.256   4.440  16.765  0.1847  0.0715  0.2676
 1084POPC   C1B13137  15.412   4.006  16.272 -0.3819  0.0813 -0.0877
 1084POPC   C2B13138  15.174   3.964  16.648 -0.0445 -0.4748  0.1093
 1084POPC   C3B13139  15.358   3.858  17.109 -0.0205 -0.1313 -0.0493
 1084POPC   C4B13140  15.417   4.009  17.509  0.2810  0.2587  0.0034
 1085POPC   NC313141  12.897  12.272  14.679  0.1815  0.0705 -0.1155
 1085POPC   PO413142  12.800  12.247  15.078  0.1958 -0.0256 -0.4312
 1085POPC   GL113143  12.688  12.375  15.418  0.3070  0.1005 -0.0862
 1085POPC   GL213144  12.627  12.143  15.563 -0.1372 -0.1308 -0.0483
 1085POPC   C1A13145  12.866  12.562  15.771  0.3185  0.0614  0.1843
 1085POPC   D2A13146  13.158  12.681  16.113 -0.0269 -0.2027  0.0654
 1085POPC   C3A13147  13.147  13.128  16.253  0.2003 -0.1489  0.0202
 1085POPC   C4A13148  13.055  13.481  16.657  0.2504  0.2396  0.1496
 1085POPC   C1B13149  12.582  12.008  16.005 -0.1465 -0.2434  0.0817
 1085POPC   C2B13150  12.314  11.906  16.396 -0.3243 -0.0733  0.0364
 1085POPC   C3B13151  12.137  11.978  16.834  0.2606  0.1884  0.0663
 1085POPC   C4B13152  12.206  12.238  17.222  0.2325  0.0724 -0.0219
 1086POPC   NC313153  15.767   4.493  15.493 -0.1370  0.0806 -0.4593
 1086POPC   PO413154  16.026   4.260  15.355  0.2152  0.0270  0.0161
 1086POPC   GL113155  16.251   4.244  15.690 -0.1880 -0.3497  0.0132
 1086POPC   GL213156  16.219   4.553  15.759 -0.0216  0.1977  0.1300
 1086POPC   C1A13157  16.555   4.182  15.998 -0.3098  0.1221  0.3251
 1086POPC   D2A13158  16.414   4.087  16.422  0.0955 -0.0182 -0.2095
 1086POPC   C3A13159  16.682   3.980  16.787  0.1632 -0.0223  0.0597
 1086POPC   C4A13160  16.778   4.272  17.147  0.1257 -0.1017  0.3519
 1086POPC   C1B13161  16.216   4.601  16.210 -0.0186  0.4520  0.1242
 1086POPC   C2B13162  16.045   4.702  16.629 -0.0509 -0.0531 -0.2507
 1086POPC   C3B13163  15.841   4.623  17.040  0.1884 -0.3411 -0.1936
 1086POPC   C4B13164  15.883   4.635  17.470  0.0762 -0.0172 -0.1659
 1087POPC   NC313165  11.159  30.842  15.617  0.0959 -0.0887  0.2881
 1087POPC   PO413166  10.827  30.954  15.468  0.1082 -0.0277 -0.1121
 1087POPC   GL113167  10.638  30.973  15.785  0.1002  0.0022 -0.0011
 1087POPC   GL213168  10.359  30.840  15.822  0.1208  0.3944 -0.2662
 1087POPC   C1A13169  10.669  30.786  16.208 -0.1394 -0.1684 -0.1645
 1087POPC   D2A13170  10.653  30.602  16.639 -0.1200  0.1241  0.0596
 1087POPC   C3A13171  10.623  30.843  17.044  0.2193  0.1174  0.0588
 1087POPC   C4A13172  10.677  31.228  17.383 -0.3388  0.0669 -0.1719
 1087POPC   C1B13173  10.292  30.495  16.111 -0.0726 -0.1848  0.1538
 1087POPC   C2B13174  10.077  30.538  16.477  0.3257 -0.1673  0.0968
 1087POPC   C3B13175   9.765  30.604  16.800 -0.2258  0.2313 -0.2080
 1087POPC   C4B13176   9.551  30.810  17.182 -0.1071  0.3216 -0.1945
 1088POPC   NC313177   8.871   6.855  14.862  0.2448  0.0396  0.0595
 1088POPC   PO413178   8.761   6.501  14.923  0.0543  0.2302  0.3172
 1088POPC   GL113179   8.588   6.443  15.282 -0.1006  0.3329  0.2415
 1088POPC   GL213180   8.295   6.460  15.254  0.0741 -0.1247  0.3531
 1088POPC   C1A13181   8.767   6.284  15.672 -0.3193 -0.5171 -0.0763
 1088POPC   D2A13182   8.546   6.218  16.072 -0.3081 -0.1428 -0.0725
 1088POPC   C3A13183   8.588   6.161  16.543 -0.0716 -0.0645  0.1768
 1088POPC   C4A13184   8.844   6.393  16.876  0.2985 -0.1094  0.0317
 1088POPC   C1B13185   8.372   6.558  15.695  0.0947 -0.0522 -0.0164
 1088POPC   C2B13186   8.217   6.658  16.156 -0.3182  0.0387 -0.1646
 1088POPC   C3B13187   8.196   7.008  16.487 -0.0397 -0.0599  0.1086
 1088POPC   C4B13188   8.197   7.124  16.925 -0.0346  0.0728 -0.2467
 1089POPC   NC313189  15.195  16.393  15.835 -0.1511  0.0213 -0.0420
 1089POPC   PO413190  15.098  16.137  15.586 -0.0187 -0.3861 -0.1531
 1089POPC   GL113191  15.239  15.793  15.931  0.0003  0.3338  0.0348
 1089POPC   GL213192  15.032  15.916  16.080 -0.0636  0.2754  0.0729
 1089POPC   C1A13193  15.303  15.707  16.374  0.1867  0.1318  0.1297
 1089POPC   D2A13194  15.291  16.010  16.708 -0.0399 -0.2149 -0.0496
 1089POPC   C3A13195  15.333  15.964  17.167 -0.1679  0.0660 -0.4073
 1089POPC   C4A13196  15.520  16.099  17.554  0.0475  0.0894  0.0756
 1089POPC   C1B13197  14.798  15.843  16.505 -0.2045 -0.2141  0.2525
 1089POPC   C2B13198  14.877  15.918  16.993 -0.2063  0.0432 -0.2923
 1089POPC   C3B13199  14.603  15.749  17.282 -0.0411  0.0538  0.2675
 1089POPC   C4B13200  14.233  15.428  17.230 -0.2581  0.0776  0.4344
 1090POPC   NC313201   6.355  29.232  15.103 -0.1153 -0.3686  0.5705
 1090POPC   PO413202   6.356  28.955  14.836 -0.0413  0.0397  0.2226
 1090POPC   GL113203   6.551  28.744  15.203 -0.0843 -0.2920  0.0475
 1090POPC   GL213204   6.674  28.957  15.414  0.2867 -0.1340  0.0189
 1090POPC   C1A13205   6.465  28.557  15.601  0.1429  0.0298  0.2353
 1090POPC   D2A13206   6.821  28.228  15.771  0.2624  0.1105 -0.0473
 1090POPC   C3A13207   6.826  27.865  16.032 -0.1549 -0.0087 -0.1859
 1090POPC   C4A13208   7.071  27.712  16.385  0.1547 -0.0467  0.4104
 1090POPC   C1B13209   6.941  28.705  15.689  0.2544 -0.0206  0.2782
 1090POPC   C2B13210   6.906  28.593  16.161  0.1683 -0.0984 -0.0704
 1090POPC   C3B13211   6.790  28.562  16.601  0.0362  0.1739 -0.0105
 1090POPC   C4B13212   6.727  28.481  17.098 -0.1478  0.2277  0.0027
 1091POPC   NC313213   7.555  27.332  15.061 -0.0160 -0.1038 -0.0986
 1091POPC   PO413214   7.147  27.243  15.081  0.0781  0.0226 -0.1196
 1091POPC   GL113215   7.225  26.919  15.184  0.0955 -0.1175 -0.0297
 1091POPC   GL213216   7.008  26.882  15.417  0.1124  0.0711  0.1452
 1091POPC   C1A13217   7.576  26.948  15.492 -0.0763  0.0959 -0.1604
 1091POPC   D2A13218   7.705  27.050  15.921 -0.0515 -0.2033 -0.1256
 1091POPC   C3A13219   7.842  26.921  16.322  0.2205 -0.3014 -0.3245
 1091POPC   C4A13220   7.738  27.026  16.767 -0.0560 -0.3558  0.0289
 1091POPC   C1B13221   7.164  26.906  15.805  0.0005 -0.0364 -0.3524
 1091POPC   C2B13222   7.284  26.845  16.202 -0.0688 -0.3091 -0.0161
 1091POPC   C3B13223   7.370  26.733  16.614  0.1086  0.1573 -0.1384
 1091POPC   C4B13224   7.265  26.331  16.814 -0.0892  0.3028  0.2470
 1092POPC   NC313225  12.370  10.481  14.761  0.0123 -0.2739 -0.1409
 1092POPC   PO413226  12.729  10.520  14.917 -0.2001 -0.1047  0.3552
 1092POPC   GL113227  12.654  10.732  15.316  0.1795 -0.1394 -0.1680
 1092POPC   GL213228  12.795  10.528  15.488 -0.2755 -0.3766 -0.0663
 1092POPC   C1A13229  12.920  10.961  15.625 -0.2306  0.0717  0.0422
 1092POPC   D2A13230  13.059  10.959  16.066 -0.1338  0.0803 -0.2056
 1092POPC   C3A13231  12.881  10.656  16.351 -0.1603  0.0243 -0.4706
 1092POPC   C4A13232  12.523  10.645  16.626  0.1666 -0.0869 -0.0971
 1092POPC   C1B13233  12.808  10.140  15.801 -0.0517  0.0257 -0.1426
 1092POPC   C2B13234  12.929  10.117  16.253  0.3042  0.0536  0.0594
 1092POPC   C3B13235  12.951  10.308  16.678  0.3079 -0.0988 -0.2720
 1092POPC   C4B13236  12.676  10.180  17.059 -0.2382 -0.1355 -0.0082
 1093POPC   NC313237   9.526   6.896  15.267 -0.0118  0.3393  0.1236
 1093POPC   PO413238   9.868   6.715  15.334 -0.0747 -0.0320 -0.0281
 1093POPC   GL113239   9.745   6.721  15.664  0.1653 -0.0428 -0.1980
 1093POPC   GL213240   9.980   6.921  15.842  0.0605  0.1464  0.1445
 1093POPC   C1A13241   9.753   6.480  16.065 -0.4557  0.0069  0.0495
 1093POPC   D2A13242   9.530   6.301  16.391 -0.0267  0.1635  0.2051
 1093POPC   C3A13243   9.346   6.265  16.837  0.2612  0.2313  0.1642
 1093POPC   C4A13244   9.030   6.051  17.105  0.0508 -0.0053  0.0744
 1093POPC   C1B13245  10.065   6.790  16.292 -0.2041 -0.0528 -0.2267
 1093POPC   C2B13246  10.226   6.763  16.714 -0.0847 -0.1115 -0.3108
 1093POPC   C3B13247  10.249   6.669  17.195 -0.3877  0.4685 -0.0204
 1093POPC   C4B13248  10.541   6.542  17.516 -0.0305 -0.0596  0.1401
 1094POPC   NC313249   3.803  27.076  15.138 -0.1639 -0.2938 -0.1039
 1094POPC   PO413250   3.711  26.683  15.205  0.2332 -0.0146  0.1248
 1094POPC   GL113251   3.486  26.588  15.486  0.3011 -0.1447  0.0932
 1094POPC   GL213252   3.454  26.831  15.650  0.1690  0.0103 -0.4328
 1094POPC   C1A13253   3.358  26.432  15.928  0.0010 -0.0320  0.1161
 1094POPC   D2A13254   3.282  26.499  16.370  0.0842  0.0371  0.0742
 1094POPC   C3A13255   2.951  26.642  16.659 -0.1312 -0.2816  0.1113
 1094POPC   C4A13256   2.640  26.445  16.950 -0.3052 -0.1526  0.0253
 1094POPC   C1B13257   3.190  26.960  15.969  0.0484 -0.1954 -0.0297
 1094POPC   C2B13258   3.005  27.169  16.348 -0.0454  0.2798  0.3239
 1094POPC   C3B13259   2.795  27.231  16.743  0.1043  0.2555  0.1646
 1094POPC   C4B13260   2.861  27.408  17.117 -0.1801 -0.0799 -0.1307
 1095POPC   NC313261   3.785   3.537  14.979  0.2303 -0.0872  0.3662
 1095POPC   PO413262   3.947   3.914  14.998  0.2301 -0.0120 -0.1077
 1095POPC   GL113263   3.768   3.936  15.368 -0.0654  0.1315  0.1437
 1095POPC   GL213264   3.785   3.630  15.500 -0.2323 -0.0422 -0.3572
 1095POPC   C1A13265   3.905   4.171  15.776 -0.3065  0.0306  0.0401
 1095POPC   D2A13266   3.738   4.240  16.185 -0.1710  0.0724 -0.0542
 1095POPC   C3A13267   3.730   4.521  16.543  0.0037  0.1289 -0.1346
 1095POPC   C4A13268   3.467   4.890  16.678 -0.1736 -0.2486  0.2808
 1095POPC   C1B13269   3.454   3.450  15.796  0.0357 -0.1063  0.1373
 1095POPC   C2B13270   3.371   3.278  16.223 -0.1551 -0.0851 -0.0701
 1095POPC   C3B13271   3.088   3.429  16.587  0.4494 -0.1657  0.1914
 1095POPC   C4B13272   2.804   3.553  16.910 -0.0233 -0.0936  0.0249
 1096POPC   NC313273  13.342   7.064  14.941  0.3456 -0.0110  0.2254
 1096POPC   PO413274  13.410   7.401  15.174  0.1325  0.0508  0.1365
 1096POPC   GL113275  13.416   7.701  15.450  0.1278 -0.2035 -0.1684
 1096POPC   GL213276  13.304   7.799  15.655  0.1083  0.3505 -0.0376
 1096POPC   C1A13277  13.571   7.494  15.832  0.2566  0.1392  0.0340
 1096POPC   D2A13278  13.551   7.346  16.261 -0.1329 -0.1869 -0.3171
 1096POPC   C3A13279  13.550   7.525  16.615 -0.3317  0.1921  0.0476
 1096POPC   C4A13280  13.664   7.364  17.051  0.0991 -0.2536 -0.1159
 1096POPC   C1B13281  13.224   8.219  15.887 -0.2375 -0.3371 -0.0903
 1096POPC   C2B13282  12.999   8.254  16.361 -0.2287 -0.1114  0.0477
 1096POPC   C3B13283  12.807   8.309  16.770  0.1132  0.2233 -0.4727
 1096POPC   C4B13284  12.507   8.035  16.978  0.0101 -0.0124 -0.2500
 1097POPC   NC313285   4.989  31.701  14.557 -0.3100 -0.0306  0.2231
 1097POPC   PO413286   4.981  32.088  14.623  0.0775 -0.0719 -0.0010
 1097POPC   GL113287   5.275  32.007  14.887  0.2476  0.0605 -0.1121
 1097POPC   GL213288   5.226  32.302  15.017 -0.1558 -0.0270 -0.0478
 1097POPC   C1A13289   5.173  31.667  15.175 -0.3204 -0.2588 -0.0602
 1097POPC   D2A13290   4.999  31.421  15.504 -0.1735 -0.0908 -0.3017
 1097POPC   C3A13291   5.026  31.326  15.936 -0.3413 -0.3286  0.2623
 1097POPC   C4A13292   5.210  31.257  16.379 -0.0550 -0.2588  0.1031
 1097POPC   C1B13293   5.326  32.099  15.388  0.1928 -0.0183  0.2534
 1097POPC   C2B13294   5.281  31.864  15.768  0.0079 -0.0071  0.2455
 1097POPC   C3B13295   5.175  31.942  16.240  0.1549  0.1237  0.4201
 1097POPC   C4B13296   4.881  31.853  16.621 -0.1245 -0.1519  0.0564
 1098POPC   NC313297   7.885  19.687  15.584 -0.0269  0.0053 -0.1463
 1098POPC   PO413298   7.577  19.685  15.339 -0.2699  0.1807 -0.0261
 1098POPC   GL113299   7.469  19.898  15.683 -0.1815 -0.3672  0.2205
 1098POPC   GL213300   7.621  20.142  15.487 -0.1753 -0.1972 -0.1051
 1098POPC   C1A13301   7.446  20.152  16.063 -0.2342 -0.0077  0.1239
 1098POPC   D2A13302   7.226  20.218  16.509 -0.5905 -0.0285 -0.1774
 1098POPC   C3A13303   7.405  20.435  16.895 -0.1701 -0.0885 -0.0908
 1098POPC   C4A13304   7.563  20.757  17.175  0.1986  0.6067  0.0948
 1098POPC   C1B13305   7.868  20.087  15.927 -0.3502  0.1134 -0.1376
 1098POPC   C2B13306   8.068  20.269  16.291 -0.0000  0.5675 -0.2000
 1098POPC   C3B13307   8.271  20.093  16.721 -0.1501  0.0090  0.1125
 1098POPC   C4B13308   8.261  20.085  17.190  0.1771 -0.1229 -0.2671
 1099POPC   NC313309   3.802   8.552  15.041  0.0938  0.3438  0.0274
 1099POPC   PO413310   4.110   8.453  15.216 -0.3124 -0.1758 -0.1624
 1099POPC   GL113311   4.232   8.398  15.611  0.1181  0.3967 -0.2798
 1099POPC   GL213312   3.950   8.474  15.724 -0.1052 -0.0538  0.1243
 1099POPC   C1A13313   4.341   8.450  16.134 -0.2223  0.2919  0.0957
 1099POPC   D2A13314   4.195   8.725  16.496 -0.0300  0.1220  0.2858
 1099POPC   C3A13315   4.153   8.590  16.940 -0.0821 -0.1212 -0.2479
 1099POPC   C4A13316   3.778   8.722  17.295  0.0843 -0.0226  0.0922
 1099POPC   C1B13317   4.239   8.803  15.810 -0.2397  0.0179 -0.0289
 1099POPC   C2B13318   4.571   8.899  16.209  0.2901 -0.0662  0.2859
 1099POPC   C3B13319   4.959   9.133  16.427  0.3283  0.0417  0.0153
 1099POPC   C4B13320   5.320   9.441  16.423 -0.1828  0.0159  0.0161
 1100POPC   NC313321  11.177  20.237  15.381 -0.2135 -0.2655  0.0764
 1100POPC   PO413322  11.422  20.585  15.401 -0.0418 -0.0681 -0.0183
 1100POPC   GL113323  11.533  20.391  15.772 -0.1403  0.0141  0.0316
 1100POPC   GL213324  11.223  20.259  15.842  0.0151 -0.0648  0.1721
 1100POPC   C1A13325  11.810  20.197  16.091  0.0210 -0.0308  0.0682
 1100POPC   D2A13326  12.089  20.279  16.473  0.0605 -0.3918  0.0498
 1100POPC   C3A13327  12.516  20.093  16.623 -0.2935 -0.4020  0.1107
 1100POPC   C4A13328  12.867  20.077  16.927 -0.1699 -0.2295 -0.0193
 1100POPC   C1B13329  11.363  19.910  15.999  0.5619 -0.1418 -0.0785
 1100POPC   C2B13330  11.426  19.640  16.335  0.1870 -0.0147  0.3590
 1100POPC   C3B13331  11.614  19.362  16.676 -0.1041  0.0614 -0.2529
 1100POPC   C4B13332  11.805  18.969  16.808 -0.1856  0.2911 -0.3757
 1101POPC   NC313333  13.293  30.089  14.972  0.0168  0.3754 -0.3113
 1101POPC   PO413334  13.178  30.074  15.351  0.0175  0.1346  0.0362
 1101POPC   GL113335  13.510  30.007  15.554 -0.3330  0.1720  0.2323
 1101POPC   GL213336  13.447  30.215  15.781 -0.1653  0.2659 -0.1652
 1101POPC   C1A13337  13.790  29.681  15.733 -0.1841 -0.2771 -0.1959
 1101POPC   D2A13338  14.165  29.497  15.961  0.0116 -0.1825  0.0646
 1101POPC   C3A13339  14.071  29.460  16.405 -0.1744 -0.0046 -0.2883
 1101POPC   C4A13340  14.199  29.629  16.844 -0.1339  0.1554  0.3573
 1101POPC   C1B13341  13.486  30.150  16.241 -0.1831  0.0695  0.2866
 1101POPC   C2B13342  13.379  30.277  16.728  0.1659 -0.0589  0.0377
 1101POPC   C3B13343  13.550  30.546  17.057  0.0782 -0.0851  0.0846
 1101POPC   C4B13344  13.826  30.808  17.329  0.1084 -0.0474  0.0735
 1102POPC   NC313345   4.453  28.033  15.681  0.3849 -0.1363 -0.3175
 1102POPC   PO413346   4.809  27.875  15.569 -0.1512  0.0498 -0.1591
 1102POPC   GL113347   4.684  27.666  15.992  0.1156 -0.0270  0.3708
 1102POPC   GL213348   4.669  27.352  16.029 -0.1004 -0.0695  0.0051
 1102POPC   C1A13349   4.608  27.629  16.426  0.2013 -0.0927  0.0966
 1102POPC   D2A13350   4.686  27.720  16.918 -0.2545  0.0433 -0.2677
 1102POPC   C3A13351   4.215  27.910  17.075  0.1643  0.2099  0.0284
 1102POPC   C4A13352   3.855  27.633  17.162  0.1991  0.4781 -0.2660
 1102POPC   C1B13353   4.955  27.251  16.339 -0.4540  0.0857 -0.0307
 1102POPC   C2B13354   5.359  27.045  16.532 -0.1933 -0.0570  0.0087
 1102POPC   C3B13355   5.595  27.033  16.965 -0.3068  0.1459 -0.1029
 1102POPC   C4B13356   5.720  27.313  17.305 -0.0629  0.0518  0.2028
 1103POPC   NC313357   6.429  19.900  14.941 -0.2724  0.0432 -0.1268
 1103POPC   PO413358   6.735  20.162  15.021 -0.3486  0.0775  0.3825
 1103POPC   GL113359   6.568  20.349  15.343  0.0433  0.1943  0.2912
 1103POPC   GL213360   6.708  20.164  15.545  0.3524  0.0302 -0.0980
 1103POPC   C1A13361   6.176  20.102  15.435  0.0067  0.1634  0.2084
 1103POPC   D2A13362   5.784  20.129  15.607 -0.0938 -0.1705 -0.2344
 1103POPC   C3A13363   5.648  20.273  16.051 -0.1497  0.1915  0.0344
 1103POPC   C4A13364   5.457  20.281  16.507 -0.0283 -0.1097 -0.0109
 1103POPC   C1B13365   6.996  19.962  15.872 -0.3932 -0.0359 -0.1698
 1103POPC   C2B13366   6.972  19.803  16.331  0.3285  0.0417  0.0406
 1103POPC   C3B13367   6.796  19.743  16.730  0.1540  0.4789 -0.1268
 1103POPC   C4B13368   6.747  19.465  17.078  0.0894 -0.4269  0.1147
 1104POPC   NC313369  12.416  13.358  15.023  0.2821 -0.0771 -0.2296
 1104POPC   PO413370  12.659  13.073  15.034  0.0186 -0.1427  0.0749
 1104POPC   GL113371  12.779  13.237  15.361  0.0328 -0.4461 -0.2508
 1104POPC   GL213372  12.845  13.140  15.701 -0.2285  0.2347  0.0850
 1104POPC   C1A13373  12.728  13.691  15.552 -0.1997 -0.1867 -0.0981
 1104POPC   D2A13374  12.615  13.996  15.873  0.0675  0.1063 -0.5368
 1104POPC   C3A13375  12.507  14.079  16.356  0.0670 -0.3720 -0.1346
 1104POPC   C4A13376  12.088  14.110  16.576  0.0335  0.1405  0.0837
 1104POPC   C1B13377  12.706  12.920  16.061  0.2050  0.1651 -0.1116
 1104POPC   C2B13378  12.706  13.149  16.478 -0.1911  0.1815 -0.1455
 1104POPC   C3B13379  12.540  13.549  16.695 -0.2333  0.0981 -0.0311
 1104POPC   C4B13380  12.391  13.921  17.010  0.0249  0.0803  0.3064
 1105POPC   NC313381  13.496  22.941  15.559  0.0082 -0.0431 -0.1124
 1105POPC   PO413382  13.316  23.099  15.300 -0.0259 -0.0833  0.2002
 1105POPC   GL113383  13.032  22.958  15.554  0.4805  0.1192 -0.1907
 1105POPC   GL213384  12.753  23.070  15.546  0.2722  0.0568  0.0433
 1105POPC   C1A13385  12.769  22.818  15.906 -0.0051  0.1757 -0.3221
 1105POPC   D2A13386  12.697  22.633  16.271  0.1890  0.2874 -0.1154
 1105POPC   C3A13387  12.654  22.879  16.692  0.1118  0.0166  0.1021
 1105POPC   C4A13388  12.593  23.055  17.080  0.0862 -0.2311  0.2172
 1105POPC   C1B13389  12.653  23.335  15.891 -0.1850  0.0359  0.2353
 1105POPC   C2B13390  12.537  23.232  16.350 -0.0610 -0.0285  0.1639
 1105POPC   C3B13391  12.387  23.361  16.749  0.2379  0.0845  0.0758
 1105POPC   C4B13392  12.239  23.351  17.169 -0.1115 -0.4372 -0.2518
 1106POPC   NC313393   4.387  17.308  15.359  0.0459 -0.2972 -0.0265
 1106POPC   PO413394   4.411  16.919  15.226 -0.3239  0.3805 -0.0664
 1106POPC   GL113395   4.318  16.854  15.682 -0.1159 -0.0160 -0.2900
 1106POPC   GL213396   4.386  17.053  15.785 -0.2840 -0.1961 -0.0071
 1106POPC   C1A13397   4.429  16.596  16.094  0.3919 -0.5409  0.1073
 1106POPC   D2A13398   4.475  16.758  16.485 -0.0209 -0.0921  0.3095
 1106POPC   C3A13399   4.207  16.846  16.830  0.2657  0.1890 -0.3247
 1106POPC   C4A13400   4.006  17.160  17.113  0.0904  0.0414 -0.3885
 1106POPC   C1B13401   4.333  17.210  16.194  0.0446  0.0630 -0.2754
 1106POPC   C2B13402   4.154  17.266  16.620 -0.2073 -0.1268 -0.0106
 1106POPC   C3B13403   4.035  17.698  16.876  0.4039 -0.2677  0.1316
 1106POPC   C4B13404   3.912  18.153  16.943 -0.0708  0.0640 -0.2855
 1107POPC   NC313405  10.896   9.284  15.981 -0.0850  0.1109  0.1201
 1107POPC   PO413406  10.816   9.577  15.727 -0.0898 -0.1970  0.0539
 1107POPC   GL113407  10.922   9.746  16.021 -0.0724  0.0314  0.0547
 1107POPC   GL213408  10.747   9.731  16.204  0.3397 -0.1576 -0.0172
 1107POPC   C1A13409  11.239   9.615  16.381  0.0556 -0.0003  0.0255
 1107POPC   D2A13410  11.448   9.737  16.721  0.1665 -0.0981 -0.2226
 1107POPC   C3A13411  11.880   9.813  16.778 -0.1430 -0.4719 -0.0426
 1107POPC   C4A13412  12.059   9.861  16.354 -0.0190  0.2236  0.0177
 1107POPC   C1B13413  10.594   9.427  16.442 -0.4263 -0.0694 -0.0665
 1107POPC   C2B13414  10.722   9.024  16.644 -0.2046 -0.0194 -0.1118
 1107POPC   C3B13415  10.675   8.745  16.953  0.0406 -0.2109  0.0492
 1107POPC   C4B13416  10.594   8.547  17.352  0.0652  0.0330  0.1756
 1108POPC   NC313417   1.841  13.919  15.133 -0.0528 -0.1239  0.0357
 1108POPC   PO413418   1.936  13.567  15.268  0.1137  0.0511 -0.0544
 1108POPC   GL113419   1.688  13.674  15.583 -0.1356 -0.2202 -0.0827
 1108POPC   GL213420   1.860  13.659  15.819 -0.2601  0.1408  0.0029
 1108POPC   C1A13421   1.659  14.182  15.558 -0.1496 -0.2275  0.1961
 1108POPC   D2A13422   1.739  14.490  15.956 -0.0280 -0.0612 -0.2526
 1108POPC   C3A13423   1.961  14.560  16.388  0.3956 -0.1826 -0.1284
 1108POPC   C4A13424   2.188  14.816  16.738 -0.0831  0.3676 -0.1965
 1108POPC   C1B13425   2.270  13.635  16.102 -0.0181 -0.0642  0.0698
 1108POPC   C2B13426   2.468  13.692  16.536  0.4195  0.0820  0.1232
 1108POPC   C3B13427   2.732  13.608  16.917 -0.1608 -0.0116  0.1798
 1108POPC   C4B13428   3.146  13.548  17.209 -0.0003  0.0563  0.0714
 1109POPC   NC313429  15.764   6.279  15.643  0.2774 -0.2229  0.3441
 1109POPC   PO413430  15.537   6.595  15.673 -0.4944  0.2422  0.2634
 1109POPC   GL113431  15.454   6.675  16.042  0.1912  0.0218  0.1576
 1109POPC   GL213432  15.633   6.576  16.242  0.0656  0.1136  0.4067
 1109POPC   C1A13433  15.341   6.884  16.426  0.4267  0.1053 -0.1412
 1109POPC   D2A13434  15.156   7.111  16.755 -0.3507  0.3291 -0.0193
 1109POPC   C3A13435  15.308   7.064  17.141 -0.0746 -0.3904  0.1222
 1109POPC   C4A13436  15.042   7.088  17.559  0.0583 -0.0455 -0.1592
 1109POPC   C1B13437  15.838   6.536  16.617 -0.0874 -0.0947 -0.3436
 1109POPC   C2B13438  16.127   6.678  16.924 -0.0798  0.1402  0.0117
 1109POPC   C3B13439  16.002   6.681  17.320 -0.1210  0.2315 -0.0588
 1109POPC   C4B13440  16.251   6.909  17.714  0.2826  0.1095 -0.1779
 1110POPC   NC313441   5.891  19.091  15.047  0.0082  0.1114 -0.0489
 1110POPC   PO413442   5.767  19.262  14.727 -0.1653  0.1035  0.2152
 1110POPC   GL113443   5.554  19.560  14.814  0.1810  0.3577 -0.4495
 1110POPC   GL213444   5.379  19.453  14.994  0.1001 -0.0733 -0.3394
 1110POPC   C1A13445   5.211  19.721  14.545  0.2342 -0.1215  0.0744
 1110POPC   D2A13446   4.911  20.008  14.356 -0.0559  0.0212 -0.1775
 1110POPC   C3A13447   4.639  20.271  14.659 -0.3034 -0.2195  0.1774
 1110POPC   C4A13448   4.530  20.279  15.061  0.0113 -0.0370 -0.0806
 1110POPC   C1B13449   4.975  19.545  15.185 -0.2116 -0.1730 -0.1857
 1110POPC   C2B13450   4.535  19.745  15.277  0.2233 -0.0190  0.1454
 1110POPC   C3B13451   4.144  20.029  15.379 -0.3841  0.1679  0.0305
 1110POPC   C4B13452   3.792  20.110  15.124  0.1124  0.1842  0.1951
 1111POPC   NC313453   8.972  28.150  14.989  0.0895  0.0565 -0.0405
 1111POPC   PO413454   9.027  28.524  15.110  0.0094 -0.1394  0.2015
 1111POPC   GL113455   8.744  28.495  15.375  0.0910 -0.3302 -0.1218
 1111POPC   GL213456   8.652  28.275  15.362  0.1113 -0.0186 -0.3562
 1111POPC   C1A13457   8.880  28.501  15.813  0.0052 -0.1390  0.1354
 1111POPC   D2A13458   8.671  28.230  16.141 -0.2557  0.0603  0.0578
 1111POPC   C3A13459   8.779  28.354  16.586  0.0615 -0.1512  0.3735
 1111POPC   C4A13460   8.657  28.226  16.962  0.1111 -0.1219  0.2054
 1111POPC   C1B13461   8.686  27.996  15.738  0.0950 -0.0871 -0.0110
 1111POPC   C2B13462   8.497  27.778  16.095  0.3046  0.2099 -0.0228
 1111POPC   C3B13463   8.457  27.473  16.458  0.1249 -0.1962 -0.0523
 1111POPC   C4B13464   8.328  27.150  16.792 -0.1064  0.2248 -0.2219
 1112POPC   NC313465   2.294  21.651  15.311  0.0691  0.1197 -0.1277
 1112POPC   PO413466   2.199  22.004  15.463  0.0451 -0.1514 -0.1184
 1112POPC   GL113467   2.090  22.242  15.672  0.0200  0.2188 -0.1652
 1112POPC   GL213468   2.223  22.507  15.739 -0.0606 -0.0551  0.0225
 1112POPC   C1A13469   2.262  22.141  16.141  0.0749 -0.0152  0.1326
 1112POPC   D2A13470   2.227  21.932  16.588  0.1470 -0.0033 -0.1996
 1112POPC   C3A13471   2.528  21.803  16.919  0.0158  0.0758 -0.0642
 1112POPC   C4A13472   2.769  21.878  17.247  0.1169 -0.3282  0.0614
 1112POPC   C1B13473   2.259  22.949  15.932 -0.2033  0.0151 -0.1549
 1112POPC   C2B13474   2.177  23.365  16.229  0.1497 -0.1200  0.3043
 1112POPC   C3B13475   2.481  23.560  16.494 -0.1276  0.0863  0.1110
 1112POPC   C4B13476   2.714  23.750  16.812  0.2128 -0.0351 -0.1137
 1113POPC   NC313477  15.535  28.913  15.212  0.0250  0.2190  0.2805
 1113POPC   PO413478  15.610  29.217  15.000  0.1860 -0.0050  0.2039
 1113POPC   GL113479  15.545  29.344  15.443 -0.4212  0.0000  0.1566
 1113POPC   GL213480  15.383  29.563  15.524  0.0921 -0.2238 -0.0295
 1113POPC   C1A13481  15.743  29.159  15.810  0.0106  0.3148  0.0358
 1113POPC   D2A13482  15.985  28.775  15.935  0.1993 -0.2544  0.1427
 1113POPC   C3A13483  16.325  28.743  16.226  0.0023  0.1751 -0.0891
 1113POPC   C4A13484  16.670  28.903  16.512  0.0702  0.2468 -0.1515
 1113POPC   C1B13485  15.208  29.675  15.960 -0.0235 -0.1957  0.0173
 1113POPC   C2B13486  15.038  29.658  16.391 -0.3742 -0.0827 -0.0379
 1113POPC   C3B13487  15.172  29.382  16.797  0.0397 -0.0678  0.0845
 1113POPC   C4B13488  15.528  29.477  17.120 -0.0428  0.0085 -0.0492
 1114POPC   NC313489   5.179  11.517  15.213  0.3890 -0.1621  0.0958
 1114POPC   PO413490   5.281  11.914  15.232  0.0328 -0.4451  0.1335
 1114POPC   GL113491   5.424  11.980  15.599 -0.2264 -0.0471  0.1244
 1114POPC   GL213492   5.533  12.219  15.789 -0.2045  0.0098  0.2305
 1114POPC   C1A13493   5.382  11.841  16.033  0.2057  0.1556 -0.1357
 1114POPC   D2A13494   5.495  11.750  16.418  0.1539  0.3476  0.2330
 1114POPC   C3A13495   5.759  11.597  16.780  0.4141 -0.1185  0.0571
 1114POPC   C4A13496   5.783  11.417  17.150 -0.0437  0.1489  0.0489
 1114POPC   C1B13497   5.559  12.202  16.297 -0.1726  0.0266 -0.1055
 1114POPC   C2B13498   5.563  12.421  16.689 -0.0048  0.1506  0.2552
 1114POPC   C3B13499   5.862  12.746  16.889  0.1394  0.0100  0.2861
 1114POPC   C4B13500   6.182  12.703  17.230  0.1200  0.3960 -0.3950
 1115POPC   NC313501   3.612  16.648  14.557  0.1940  0.0633 -0.1968
 1115POPC   PO413502   3.684  16.714  14.943  0.0763 -0.0129 -0.3937
 1115POPC   GL113503   3.747  17.005  15.316 -0.3145  0.3326  0.0886
 1115POPC   GL213504   3.947  16.860  15.409 -0.3184 -0.0426 -0.2346
 1115POPC   C1A13505   3.487  16.944  15.645  0.0708 -0.0688  0.0930
 1115POPC   D2A13506   3.437  16.839  16.082 -0.0937  0.4196  0.0929
 1115POPC   C3A13507   3.388  16.671  16.473 -0.2067 -0.3302 -0.1354
 1115POPC   C4A13508   3.360  16.354  16.824 -0.0247 -0.0464 -0.0649
 1115POPC   C1B13509   3.918  16.889  15.948  0.0609 -0.5244 -0.0152
 1115POPC   C2B13510   3.942  16.865  16.391 -0.2172  0.0771  0.0527
 1115POPC   C3B13511   3.725  16.820  16.764  0.0158 -0.0147 -0.1471
 1115POPC   C4B13512   3.624  16.758  17.153 -0.1284  0.1650  0.1385
 1116POPC   NC313513  11.463   2.139  15.505 -0.4628  0.0472 -0.0951
 1116POPC   PO413514  11.862   2.126  15.487  0.0262 -0.1696 -0.1037
 1116POPC   GL113515  11.684   1.859  15.778 -0.4083 -0.2773  0.0089
 1116POPC   GL213516  11.551   1.649  15.584 -0.2437  0.0030  0.2917
 1116POPC   C1A13517  11.620   1.860  16.270  0.1433  0.0806  0.0502
 1116POPC   D2A13518  11.707   1.822  16.721 -0.0317 -0.2223  0.3002
 1116POPC   C3A13519  11.819   1.423  16.936 -0.1311  0.0602 -0.0223
 1116POPC   C4A13520  11.907   1.289  17.335 -0.2572 -0.4605  0.2217
 1116POPC   C1B13521  11.509   1.465  15.971  0.3092  0.0390 -0.0022
 1116POPC   C2B13522  11.492   1.180  16.302  0.2649  0.3619  0.0626
 1116POPC   C3B13523  11.339   1.144  16.794 -0.0463  0.4426  0.2148
 1116POPC   C4B13524  11.004   0.933  17.010  0.1812  0.0322  0.0543
 1117POPC   NC313525   5.368  28.852  14.793 -0.1922  0.0213 -0.0118
 1117POPC   PO413526   5.110  28.795  15.123 -0.0260  0.1076  0.0722
 1117POPC   GL113527   5.224  28.959  15.493 -0.3832  0.1609 -0.4731
 1117POPC   GL213528   5.088  29.180  15.579 -0.5494 -0.1201 -0.5145
 1117POPC   C1A13529   5.575  28.997  15.800 -0.0645 -0.1670  0.1623
 1117POPC   D2A13530   5.696  29.135  16.211 -0.1189 -0.0680  0.2247
 1117POPC   C3A13531   6.005  29.030  16.475 -0.1424  0.1805 -0.2306
 1117POPC   C4A13532   6.169  29.181  16.872 -0.2051  0.1188  0.0195
 1117POPC   C1B13533   5.101  29.429  15.934  0.2499  0.2479 -0.2580
 1117POPC   C2B13534   5.222  29.296  16.326 -0.0364 -0.2838  0.1584
 1117POPC   C3B13535   5.131  29.557  16.706  0.1652 -0.0554  0.2592
 1117POPC   C4B13536   5.362  29.694  17.079 -0.0185  0.0827 -0.3845
 1118POPC   NC313537   0.562  31.041  15.243 -0.2760  0.0900  0.0977
 1118POPC   PO413538   0.237  31.072  15.496 -0.1040 -0.1151  0.0234
 1118POPC   GL113539   0.227  31.090  15.923 -0.0108 -0.2138  0.2131
 1118POPC   GL213540   0.004  31.363  15.846  0.1321  0.1278  0.2326
 1118POPC   C1A13541   0.319  31.239  16.363 -0.3434 -0.1303 -0.5323
 1118POPC   D2A13542   0.638  31.472  16.647 -0.1835  0.1574  0.2920
 1118POPC   C3A13543   0.422  31.658  16.999  0.0845  0.3492  0.3830
 1118POPC   C4A13544   0.075  31.593  17.208 -0.1925 -0.2984 -0.2886
 1118POPC   C1B13545  -0.335  31.287  16.194  0.1197 -0.4206  0.1891
 1118POPC   C2B13546  -0.503  31.481  16.590 -0.1064 -0.2107  0.2407
 1118POPC   C3B13547  -0.894  31.554  16.867 -0.1727 -0.1259  0.1367
 1118POPC   C4B13548  -1.327  31.710  16.976  0.1688 -0.0096  0.2847
 1119POPC   NC313549   9.086  11.883  15.370 -0.2738 -0.0266  0.0030
 1119POPC   PO413550   9.440  12.104  15.347  0.0595 -0.0998 -0.0481
 1119POPC   GL113551   9.532  12.144  15.692 -0.1316  0.4428 -0.0830
 1119POPC   GL213552   9.828  12.276  15.642  0.1528 -0.2233  0.2336
 1119POPC   C1A13553   9.527  12.478  16.012  0.1577  0.0682 -0.0466
 1119POPC   D2A13554   9.660  12.893  16.152  0.0048  0.2987  0.2514
 1119POPC   C3A13555   9.621  13.034  16.572  0.3367  0.1227  0.0349
 1119POPC   C4A13556   9.420  13.172  16.972  0.1005  0.0232 -0.1747
 1119POPC   C1B13557  10.015  12.369  16.058  0.1511  0.1600 -0.1281
 1119POPC   C2B13558   9.853  12.446  16.472 -0.2843  0.0372 -0.2700
 1119POPC   C3B13559   9.947  12.711  16.810  0.5102 -0.1657  0.1309
 1119POPC   C4B13560  10.316  12.948  17.038  0.0795  0.2683  0.1555
 1120POPC   NC313561   9.795   0.901  15.455 -0.0193 -0.0311  0.0105
 1120POPC   PO413562   9.643   0.548  15.330  0.0629  0.0574  0.2994
 1120POPC   GL113563   9.684   0.500  15.735 -0.2075  0.2620  0.0541
 1120POPC   GL213564   9.591   0.731  15.895 -0.0246  0.2114  0.2902
 1120POPC   C1A13565   9.728   0.338  16.147 -0.1520 -0.0870 -0.1227
 1120POPC   D2A13566  10.040   0.283  16.439  0.2167 -0.1936 -0.4226
 1120POPC   C3A13567  10.245  -0.095  16.630 -0.0444 -0.0931 -0.0775
 1120POPC   C4A13568  10.536  -0.356  16.951 -0.0792  0.1063 -0.0860
 1120POPC   C1B13569   9.255   0.574  16.166 -0.1881 -0.2665  0.0396
 1120POPC   C2B13570   8.886   0.348  16.325 -0.0092  0.0599  0.2096
 1120POPC   C3B13571   8.684   0.118  16.669 -0.0335 -0.0276 -0.0379
 1120POPC   C4B13572   8.511   0.012  17.089 -0.0707 -0.0090 -0.1106
 1121POPC   NC313573   6.466  22.331  15.316  0.0677 -0.0969  0.1582
 1121POPC   PO413574   6.200  22.106  15.088 -0.1177 -0.2322  0.2174
 1121POPC   GL113575   6.005  22.297  15.360 -0.0361 -0.2976  0.0002
 1121POPC   GL213576   5.988  22.560  15.286  0.1979 -0.4300 -0.3398
 1121POPC   C1A13577   5.969  22.109  15.772  0.3061  0.1774  0.0551
 1121POPC   D2A13578   6.283  22.107  16.188  0.3595  0.1775  0.0820
 1121POPC   C3A13579   6.178  21.765  16.502 -0.3029 -0.1352  0.1581
 1121POPC   C4A13580   6.104  21.657  16.925  0.0102 -0.2544  0.0894
 1121POPC   C1B13581   6.215  22.603  15.700 -0.1291  0.5819  0.0809
 1121POPC   C2B13582   6.348  22.595  16.168  0.2153  0.3909  0.2222
 1121POPC   C3B13583   6.321  22.394  16.577 -0.0154  0.0986 -0.1081
 1121POPC   C4B13584   5.986  22.243  16.927  0.0494  0.0469 -0.1218
 1122POPC   NC313585   8.829   7.626  15.490 -0.1604  0.2115 -0.2417
 1122POPC   PO413586   8.914   7.959  15.317 -0.2123  0.0166 -0.0090
 1122POPC   GL113587   9.057   7.932  15.745 -0.0289  0.1579 -0.0426
 1122POPC   GL213588   9.064   8.230  15.834  0.1009 -0.3601  0.3246
 1122POPC   C1A13589   8.798   7.735  16.042  0.1017  0.0689  0.2500
 1122POPC   D2A13590   8.619   8.018  16.355  0.4464  0.3101 -0.1611
 1122POPC   C3A13591   8.470   8.182  16.771  0.0942 -0.0707 -0.2717
 1122POPC   C4A13592   8.183   8.509  16.959 -0.1237  0.1169  0.2977
 1122POPC   C1B13593   9.067   8.247  16.314  0.2809  0.0949 -0.1053
 1122POPC   C2B13594   8.979   8.195  16.747  0.4498  0.0348  0.2362
 1122POPC   C3B13595   8.832   8.330  17.134  0.3467  0.2175  0.0636
 1122POPC   C4B13596   8.785   8.231  17.593 -0.0530 -0.3614  0.1336
 1123POPC   NC313597   3.754  21.219  14.848 -0.2116  0.0686 -0.1228
 1123POPC   PO413598   4.096  21.411  14.886  0.1898 -0.3484  0.0729
 1123POPC   GL113599   4.140  21.027  15.100 -0.0702  0.1927  0.3416
 1123POPC   GL213600   4.132  21.053  15.410  0.3980  0.0080  0.0939
 1123POPC   C1A13601   4.386  20.716  14.858  0.1570  0.1724 -0.0494
 1123POPC   D2A13602   4.839  20.630  14.884 -0.1455 -0.1790 -0.1217
 1123POPC   C3A13603   4.999  20.379  15.200 -0.0674  0.0854 -0.0566
 1123POPC   C4A13604   5.347  20.315  15.550  0.1924  0.0004 -0.0408
 1123POPC   C1B13605   3.858  20.854  15.743  0.4112 -0.1478  0.1069
 1123POPC   C2B13606   3.806  20.522  16.059 -0.4221 -0.2921  0.2607
 1123POPC   C3B13607   3.722  20.086  16.273  0.2226  0.0262 -0.2271
 1123POPC   C4B13608   3.368  20.008  16.581  0.2976 -0.0157  0.2110
 1124POPC   NC313609   6.052   2.331  15.467  0.2661 -0.0623  0.0837
 1124POPC   PO413610   5.994   2.007  15.305 -0.0234  0.0115 -0.0057
 1124POPC   GL113611   5.691   1.980  15.577  0.0933  0.5430 -0.0593
 1124POPC   GL213612   5.844   1.992  15.835  0.0802  0.1049  0.0838
 1124POPC   C1A13613   5.363   2.027  15.937  0.3348 -0.1235  0.0986
 1124POPC   D2A13614   5.487   1.895  16.394  0.2237  0.0300 -0.1587
 1124POPC   C3A13615   5.309   2.013  16.748 -0.0894 -0.1355 -0.0300
 1124POPC   C4A13616   5.345   1.969  17.214  0.1060 -0.0732  0.0641
 1124POPC   C1B13617   5.891   2.181  16.252 -0.4686 -0.1106  0.1883
 1124POPC   C2B13618   5.950   2.131  16.696  0.2915  0.4055 -0.1504
 1124POPC   C3B13619   5.758   1.828  16.979  0.4987  0.0261  0.0301
 1124POPC   C4B13620   5.814   1.391  17.177 -0.0700  0.0553  0.4382
 1125POPC   NC313621   7.206  27.743  15.222 -0.0161  0.1628  0.1368
 1125POPC   PO413622   7.298  28.111  15.082 -0.1117  0.0348 -0.1427
 1125POPC   GL113623   7.481  28.217  15.502  0.0160 -0.1017 -0.1291
 1125POPC   GL213624   7.251  28.358  15.521  0.1309 -0.2777  0.0429
 1125POPC   C1A13625   7.732  27.864  15.689 -0.1398 -0.2361  0.0397
 1125POPC   D2A13626   7.959  27.495  15.914  0.1450  0.0490  0.0213
 1125POPC   C3A13627   7.902  27.523  16.373  0.1189 -0.2743  0.1584
 1125POPC   C4A13628   7.927  27.441  16.789 -0.2615 -0.2503 -0.0844
 1125POPC   C1B13629   7.326  28.297  15.969  0.0705 -0.0728 -0.3236
 1125POPC   C2B13630   7.185  28.170  16.463  0.1333 -0.0617  0.0486
 1125POPC   C3B13631   7.085  27.902  16.807 -0.0198 -0.0436 -0.1074
 1125POPC   C4B13632   6.790  27.532  16.827  0.2292 -0.5398  0.2294
 1126POPC   NC313633   1.130  17.102  15.468 -0.1860  0.1856  0.0130
 1126POPC   PO413634   0.746  17.070  15.327 -0.2725  0.1037 -0.2343
 1126POPC   GL113635   0.750  16.922  15.688 -0.6160  0.0743  0.3084
 1126POPC   GL213636   0.488  16.996  15.823 -0.1066 -0.3347  0.1276
 1126POPC   C1A13637   0.851  17.226  16.017  0.0560 -0.1315 -0.2866
 1126POPC   D2A13638   0.836  17.542  16.368  0.0116  0.1981  0.3638
 1126POPC   C3A13639   0.580  17.373  16.736  0.0809 -0.0961  0.2701
 1126POPC   C4A13640   0.470  17.505  17.151 -0.1138  0.0727 -0.0846
 1126POPC   C1B13641   0.359  17.262  16.174 -0.0211 -0.1626  0.3513
 1126POPC   C2B13642   0.087  17.451  16.442 -0.0345 -0.2037  0.1366
 1126POPC   C3B13643   0.026  17.481  16.938 -0.1238 -0.3347  0.0528
 1126POPC   C4B13644  -0.136  17.470  17.313  0.0708 -0.0741  0.2406
 1127POPC   NC313645   2.237   9.057  15.275 -0.1493 -0.1171 -0.1178
 1127POPC   PO413646   2.407   8.709  15.230 -0.0657 -0.1881 -0.2054
 1127POPC   GL113647   2.686   8.538  15.423  0.5080 -0.0127  0.0702
 1127POPC   GL213648   2.936   8.522  15.283 -0.1060  0.0338 -0.5936
 1127POPC   C1A13649   2.732   8.644  15.888 -0.0355 -0.2323 -0.0019
 1127POPC   D2A13650   2.899   8.870  16.233 -0.1403 -0.0589  0.0548
 1127POPC   C3A13651   3.044   9.166  16.482  0.3485  0.0204  0.3371
 1127POPC   C4A13652   2.969   9.546  16.630 -0.1032  0.0995  0.2004
 1127POPC   C1B13653   3.128   8.768  15.674  0.1112  0.1947  0.1416
 1127POPC   C2B13654   3.369   8.786  16.073 -0.1036 -0.0125  0.2856
 1127POPC   C3B13655   3.541   9.023  16.425 -0.2127  0.0038  0.0317
 1127POPC   C4B13656   3.432   9.202  16.835  0.2035 -0.0913 -0.2264
 1128POPC   NC313657   3.922  15.925  15.031  0.0461  0.1738 -0.2505
 1128POPC   PO413658   4.231  16.069  15.190  0.2685 -0.0766 -0.1096
 1128POPC   GL113659   4.403  16.026  15.547  0.3751 -0.1311  0.0917
 1128POPC   GL213660   4.366  15.711  15.600  0.1392 -0.0714 -0.2036
 1128POPC   C1A13661   4.395  16.147  15.992 -0.2144 -0.1537  0.1600
 1128POPC   D2A13662   4.339  16.238  16.460  0.0206  0.1061 -0.0438
 1128POPC   C3A13663   4.369  15.882  16.756  0.0793 -0.3419  0.3608
 1128POPC   C4A13664   4.258  15.768  17.202  0.1126 -0.0347  0.0202
 1128POPC   C1B13665   4.718  15.728  15.959 -0.0502 -0.0252 -0.0305
 1128POPC   C2B13666   4.794  15.757  16.449  0.1472  0.1462 -0.1976
 1128POPC   C3B13667   4.816  15.737  16.890  0.2620 -0.0086  0.2605
 1128POPC   C4B13668   4.879  16.128  17.129  0.1612  0.2377  0.2491
 1129POPC   NC313669  15.867  14.268  14.584 -0.3192 -0.2558  0.3490
 1129POPC   PO413670  15.814  14.000  14.847 -0.1802 -0.1114 -0.2075
 1129POPC   GL113671  15.861  13.972  15.278  0.1679  0.0073 -0.1095
 1129POPC   GL213672  15.909  13.684  15.232 -0.0377 -0.3600 -0.1569
 1129POPC   C1A13673  16.125  14.205  15.558 -0.1189  0.1087  0.2867
 1129POPC   D2A13674  16.491  14.376  15.729 -0.0263 -0.2991  0.0103
 1129POPC   C3A13675  16.405  14.617  16.084  0.1189  0.0209  0.0999
 1129POPC   C4A13676  16.549  14.722  16.524  0.0702 -0.1067  0.0103
 1129POPC   C1B13677  16.273  13.642  15.419 -0.0847  0.0838 -0.4117
 1129POPC   C2B13678  16.465  13.370  15.757 -0.0120 -0.0151 -0.1243
 1129POPC   C3B13679  16.472  13.491  16.210 -0.1911 -0.2824  0.3938
 1129POPC   C4B13680  16.203  13.291  16.547 -0.0998 -0.1855  0.1604
 1130POPC   NC313681   4.481  14.440  15.480 -0.1709  0.0710 -0.0192
 1130POPC   PO413682   4.390  14.781  15.286  0.0635 -0.3165  0.3816
 1130POPC   GL113683   4.368  14.840  15.729  0.2631  0.4411 -0.0448
 1130POPC   GL213684   4.124  14.927  15.762  0.0882 -0.1159  0.0050
 1130POPC   C1A13685   4.759  14.819  15.986  0.2710  0.0081 -0.1071
 1130POPC   D2A13686   5.069  14.905  16.341 -0.0058  0.0805  0.0586
 1130POPC   C3A13687   5.035  14.699  16.767 -0.0643  0.4430  0.1193
 1130POPC   C4A13688   5.073  14.325  16.997 -0.1715 -0.1377 -0.0867
 1130POPC   C1B13689   4.242  15.064  16.197  0.0095 -0.0717 -0.0849
 1130POPC   C2B13690   3.974  15.109  16.599 -0.1213 -0.4880 -0.1700
 1130POPC   C3B13691   4.027  15.324  16.996  0.1313  0.0244  0.2257
 1130POPC   C4B13692   4.090  15.353  17.463  0.2314  0.0827  0.4129
 1131POPC   NC313693  13.848  17.142  14.821  0.1778 -0.1522 -0.0906
 1131POPC   PO413694  13.839  16.771  14.980  0.0494 -0.0413  0.2168
 1131POPC   GL113695  13.692  16.675  15.260 -0.0706  0.1648 -0.0531
 1131POPC   GL213696  13.737  16.379  15.338 -0.1771 -0.0798  0.0707
 1131POPC   C1A13697  13.844  16.709  15.706 -0.0378  0.2197 -0.2720
 1131POPC   D2A13698  14.135  16.545  16.058 -0.1960  0.0589 -0.1216
 1131POPC   C3A13699  14.092  16.720  16.463 -0.0437 -0.0656 -0.0650
 1131POPC   C4A13700  14.232  16.801  16.890 -0.2573 -0.0008 -0.0016
 1131POPC   C1B13701  13.780  16.255  15.830 -0.2907  0.1057  0.1141
 1131POPC   C2B13702  13.625  16.456  16.263  0.1471  0.3048  0.0164
 1131POPC   C3B13703  13.492  16.337  16.712 -0.3301 -0.1733 -0.2077
 1131POPC   C4B13704  13.336  16.465  17.118 -0.2237 -0.0742 -0.1903
 1132POPC   NC313705  13.328   8.644  14.655 -0.3227 -0.3561  0.1162
 1132POPC   PO413706  13.446   8.784  14.990 -0.0959  0.0755  0.0467
 1132POPC   GL113707  13.484   8.627  15.420  0.2718  0.4316  0.0736
 1132POPC   GL213708  13.195   8.750  15.486  0.2608 -0.0250  0.0833
 1132POPC   C1A13709  13.620   8.581  15.884  0.1991 -0.1813 -0.0110
 1132POPC   D2A13710  13.587   8.476  16.335  0.0856  0.0264  0.1073
 1132POPC   C3A13711  13.386   8.461  16.756  0.1298  0.0776  0.4340
 1132POPC   C4A13712  13.553   8.384  17.159 -0.2704  0.4095 -0.0474
 1132POPC   C1B13713  13.193   8.752  15.938  0.0297 -0.4322  0.0348
 1132POPC   C2B13714  13.082   8.754  16.387  0.1187  0.0520 -0.0399
 1132POPC   C3B13715  12.902   8.817  16.839  0.1222 -0.0596  0.2775
 1132POPC   C4B13716  13.096   9.205  17.070  0.2780 -0.1581  0.2034
 1133POPC   NC313717   5.611  28.874  15.275  0.1646  0.1085 -0.2385
 1133POPC   PO413718   5.996  28.794  15.201 -0.2776 -0.0652 -0.0916
 1133POPC   GL113719   6.199  28.955  15.516  0.1258  0.1567 -0.0990
 1133POPC   GL213720   6.047  29.221  15.511 -0.2181 -0.1959  0.0333
 1133POPC   C1A13721   6.069  28.853  16.013 -0.0615 -0.1261 -0.1582
 1133POPC   D2A13722   6.288  28.614  16.382  0.3106 -0.0543 -0.0236
 1133POPC   C3A13723   6.199  28.694  16.803  0.3526  0.2168  0.1566
 1133POPC   C4A13724   5.846  28.535  17.048  0.0092  0.2488 -0.2500
 1133POPC   C1B13725   6.125  29.351  15.949 -0.0468 -0.5688 -0.3030
 1133POPC   C2B13726   6.163  29.543  16.414 -0.1386 -0.0305  0.2790
 1133POPC   C3B13727   6.458  29.605  16.789 -0.0118 -0.0554  0.0943
 1133POPC   C4B13728   6.812  29.894  16.851  0.3244 -0.0965  0.2903
 1134POPC   NC313729  14.998  24.240  14.607 -0.0545  0.0192 -0.1257
 1134POPC   PO413730  14.990  24.480  14.927  0.0985  0.2552  0.1247
 1134POPC   GL113731  15.034  24.592  15.301  0.0946 -0.3153 -0.1115
 1134POPC   GL213732  15.323  24.490  15.489 -0.0773 -0.2574 -0.2515
 1134POPC   C1A13733  14.962  24.836  15.696 -0.0270 -0.0026  0.4573
 1134POPC   D2A13734  14.904  24.864  16.173 -0.1348  0.2647 -0.1211
 1134POPC   C3A13735  15.343  24.907  16.253  0.0442 -0.1145 -0.1944
 1134POPC   C4A13736  15.714  25.032  16.501  0.0894 -0.1329 -0.1606
 1134POPC   C1B13737  15.305  24.531  15.980 -0.2463  0.1158  0.2273
 1134POPC   C2B13738  15.449  24.457  16.400  0.0219  0.0095  0.0110
 1134POPC   C3B13739  15.516  24.402  16.814 -0.1319 -0.4254 -0.1946
 1134POPC   C4B13740  15.654  24.817  16.957  0.4043 -0.2296  0.1804
 1135POPC   NC313741   5.551  10.324  14.941 -0.1126 -0.4476 -0.0588
 1135POPC   PO413742   5.602  10.238  15.308 -0.2516 -0.2704 -0.2119
 1135POPC   GL113743   5.726  10.520  15.497  0.2055  0.1545  0.4080
 1135POPC   GL213744   5.620  10.739  15.332  0.2334 -0.2297  0.1187
 1135POPC   C1A13745   5.875  10.370  15.934 -0.2436  0.0375  0.2269
 1135POPC   D2A13746   5.876  10.205  16.331  0.2932 -0.1432  0.1103
 1135POPC   C3A13747   6.077  10.468  16.616 -0.2146 -0.0859 -0.0647
 1135POPC   C4A13748   6.136  10.620  17.054  0.0767 -0.2211  0.0992
 1135POPC   C1B13749   5.560  10.903  15.772 -0.0166 -0.1163  0.0235
 1135POPC   C2B13750   5.578  10.841  16.234 -0.1164  0.2199  0.0550
 1135POPC   C3B13751   5.708  10.833  16.645  0.1858 -0.2589 -0.0766
 1135POPC   C4B13752   5.695  10.824  17.090 -0.1601  0.4135  0.1207
 1136POPC   NC313753   8.946  14.074  15.178 -0.0191 -0.3770  0.1103
 1136POPC   PO413754   8.548  14.132  15.202 -0.1361  0.8290 -0.1970
 1136POPC   GL113755   8.472  13.783  15.206  0.1584  0.2990 -0.2922
 1136POPC   GL213756   8.713  13.652  15.021 -0.1196 -0.1277  0.0721
 1136POPC   C1A13757   8.665  13.701  15.612 -0.2442  0.3372  0.1330
 1136POPC   D2A13758   8.887  13.907  16.005  0.1004  0.2510  0.0684
 1136POPC   C3A13759   8.640  14.018  16.423  0.0623 -0.0248  0.0153
 1136POPC   C4A13760   8.533  14.235  16.813 -0.0522  0.1043  0.0655
 1136POPC   C1B13761   8.687  13.265  15.349 -0.1782 -0.0409  0.3714
 1136POPC   C2B13762   8.917  13.210  15.742 -0.1814 -0.1241  0.1158
 1136POPC   C3B13763   8.899  13.357  16.184  0.2085 -0.0392  0.1492
 1136POPC   C4B13764   8.625  13.401  16.561  0.0645  0.0975  0.0594
 1137POPC   NC313765  11.880  30.285  15.422  0.1154 -0.2942 -0.0331
 1137POPC   PO413766  11.946  30.632  15.602  0.2232  0.1225 -0.1634
 1137POPC   GL113767  11.957  30.477  15.927 -0.0384 -0.1544 -0.0734
 1137POPC   GL213768  11.999  30.714  16.091 -0.0403  0.0548 -0.0924
 1137POPC   C1A13769  11.590  30.523  16.197 -0.1998 -0.2046  0.0141
 1137POPC   D2A13770  11.624  30.436  16.590 -0.1261 -0.0528 -0.2980
 1137POPC   C3A13771  11.523  30.133  16.899  0.0360 -0.0050  0.1891
 1137POPC   C4A13772  11.497  29.729  17.128 -0.0986 -0.2870  0.0146
 1137POPC   C1B13773  11.763  30.970  16.398  0.1128  0.2130 -0.1423
 1137POPC   C2B13774  11.950  31.290  16.673 -0.1071 -0.1167  0.0229
 1137POPC   C3B13775  12.021  31.705  16.867 -0.0974  0.0225 -0.4062
 1137POPC   C4B13776  12.348  32.000  16.979 -0.0183 -0.1430 -0.1677
 1138POPC   NC313777   0.074  31.541  15.386 -0.0223 -0.0877 -0.0370
 1138POPC   PO413778   0.468  31.527  15.295  0.0925 -0.0206  0.2190
 1138POPC   GL113779   0.465  31.699  15.619  0.0967  0.1871  0.4769
 1138POPC   GL213780   0.481  31.435  15.786 -0.0299 -0.0058  0.0036
 1138POPC   C1A13781   0.807  31.888  15.873 -0.0467  0.4131  0.1224
 1138POPC   D2A13782   0.971  31.889  16.343 -0.1390 -0.3094  0.3620
 1138POPC   C3A13783   0.843  31.966  16.795  0.0103 -0.2151  0.0640
 1138POPC   C4A13784   0.873  31.955  17.273  0.0440 -0.3075 -0.1659
 1138POPC   C1B13785   0.460  31.697  16.151  0.0484  0.0972 -0.2240
 1138POPC   C2B13786   0.419  31.991  16.497 -0.2738  0.3388  0.0686
 1138POPC   C3B13787   0.336  32.147  16.890  0.0886 -0.3543 -0.2656
 1138POPC   C4B13788   0.356  32.044  17.319  0.1427  0.0984 -0.3160
 1139POPC   NC313789   4.798  16.637  15.720 -0.0716 -0.1753 -0.2615
 1139POPC   PO413790   5.149  16.780  15.688 -0.3587 -0.2174  0.0653
 1139POPC   GL113791   5.278  16.815  16.099  0.0940  0.1298  0.5113
 1139POPC   GL213792   5.581  16.969  16.159  0.1393 -0.0225 -0.1699
 1139POPC   C1A13793   5.015  16.704  16.523  0.0522  0.0783  0.0186
 1139POPC   D2A13794   4.983  16.632  16.979 -0.0221 -0.1756  0.1842
 1139POPC   C3A13795   5.247  16.536  17.314  0.3347 -0.0649  0.0500
 1139POPC   C4A13796   5.600  16.484  17.604  0.1497 -0.1231 -0.3926
 1139POPC   C1B13797   5.557  17.165  16.564 -0.0213  0.2781 -0.3322
 1139POPC   C2B13798   5.671  17.561  16.759 -0.4762  0.1511  0.0615
 1139POPC   C3B13799   5.887  17.921  16.946 -0.1543 -0.0867  0.2455
 1139POPC   C4B13800   6.204  18.261  16.866 -0.1343  0.2453 -0.0960
 1140POPC   NC313801  12.511  27.177  15.753  0.2023  0.3824 -0.0903
 1140POPC   PO413802  12.440  27.492  15.508 -0.1015  0.2903  0.2035
 1140POPC   GL113803  12.541  27.649  15.908  0.0691  0.2781 -0.3824
 1140POPC   GL213804  12.402  27.867  15.824 -0.0679  0.1417  0.2405
 1140POPC   C1A13805  12.598  27.848  16.314  0.0019 -0.0989 -0.0280
 1140POPC   D2A13806  12.814  28.076  16.687  0.0419  0.4212 -0.1549
 1140POPC   C3A13807  12.849  28.293  17.102 -0.1944 -0.2784  0.0296
 1140POPC   C4A13808  12.866  28.328  17.579 -0.1254 -0.0282  0.2250
 1140POPC   C1B13809  12.127  27.949  16.198  0.3066 -0.1089  0.0853
 1140POPC   C2B13810  12.253  27.923  16.636  0.0009 -0.1309  0.1235
 1140POPC   C3B13811  12.296  28.101  17.034  0.1818 -0.0432 -0.0466
 1140POPC   C4B13812  12.380  28.417  17.378 -0.0258 -0.0133 -0.0394
 1141POPC   NC313813   5.050  17.446  15.270  0.2059 -0.0286 -0.1532
 1141POPC   PO413814   4.725  17.662  15.186 -0.3663 -0.1211 -0.0213
 1141POPC   GL113815   4.795  17.864  15.595 -0.5472 -0.2795  0.1079
 1141POPC   GL213816   4.768  17.586  15.686  0.0003 -0.3270  0.1324
 1141POPC   C1A13817   4.456  18.141  15.781 -0.0853  0.0148 -0.0468
 1141POPC   D2A13818   4.295  18.538  16.036 -0.4244 -0.3074 -0.0702
 1141POPC   C3A13819   4.312  18.515  16.502 -0.1668 -0.0864  0.1018
 1141POPC   C4A13820   4.252  18.502  16.986  0.1150  0.1469 -0.1268
 1141POPC   C1B13821   4.713  17.491  16.093  0.0580 -0.2393 -0.0041
 1141POPC   C2B13822   4.629  17.408  16.525 -0.0770 -0.0110  0.5290
 1141POPC   C3B13823   4.742  17.547  16.975 -0.2687  0.0476  0.0128
 1141POPC   C4B13824   4.638  17.462  17.387  0.0458  0.1525  0.2130
 1142POPC   NC313825   2.206   4.728  14.676  0.2108  0.2166 -0.1862
 1142POPC   PO413826   2.433   4.833  14.947 -0.2021  0.0259 -0.0677
 1142POPC   GL113827   2.357   4.898  15.357 -0.2313 -0.1388 -0.0263
 1142POPC   GL213828   2.647   4.790  15.424  0.0808 -0.1210  0.1115
 1142POPC   C1A13829   2.292   4.485  15.613 -0.2207 -0.0182  0.2537
 1142POPC   D2A13830   2.201   4.580  16.089 -0.0014  0.1611 -0.0600
 1142POPC   C3A13831   2.138   4.261  16.442 -0.3302  0.2131 -0.0562
 1142POPC   C4A13832   1.940   4.030  16.809 -0.1482  0.3789  0.0174
 1142POPC   C1B13833   2.556   4.819  15.897  0.0455  0.3241  0.1783
 1142POPC   C2B13834   2.509   4.798  16.414 -0.3066  0.0232  0.1040
 1142POPC   C3B13835   2.341   4.571  16.786 -0.0302 -0.1709  0.1883
 1142POPC   C4B13836   2.504   4.463  17.196 -0.1308 -0.0773 -0.1093
 1143POPC   NC313837  15.790  27.125  15.145 -0.2801  0.2175  0.1662
 1143POPC   PO413838  15.497  26.847  15.196 -0.2398 -0.0701 -0.0221
 1143POPC   GL113839  15.267  27.000  15.502  0.1281  0.1221 -0.0357
 1143POPC   GL213840  15.065  26.783  15.547 -0.1033 -0.6796  0.0768
 1143POPC   C1A13841  15.308  27.097  15.944  0.1688  0.3482 -0.1727
 1143POPC   D2A13842  15.095  27.316  16.327 -0.1697  0.2696 -0.1973
 1143POPC   C3A13843  14.968  27.244  16.724  0.1656  0.0826 -0.0168
 1143POPC   C4A13844  14.827  27.087  17.119 -0.0886 -0.0144 -0.2046
 1143POPC   C1B13845  14.997  26.715  15.968  0.3064 -0.1981  0.2085
 1143POPC   C2B13846  15.019  26.708  16.400 -0.0208  0.0743  0.0774
 1143POPC   C3B13847  15.216  26.832  16.784 -0.0161  0.1222 -0.1500
 1143POPC   C4B13848  15.424  26.636  17.074 -0.2517  0.3005  0.1037
 1144POPC   NC313849  12.014  18.210  14.771  0.2634 -0.1008  0.4535
 1144POPC   PO413850  12.312  18.436  14.822 -0.1412 -0.0594  0.2136
 1144POPC   GL113851  12.384  18.130  15.056  0.0404 -0.1688 -0.2311
 1144POPC   GL213852  12.465  18.262  15.290  0.2241 -0.0588  0.0418
 1144POPC   C1A13853  12.507  17.687  15.137 -0.0540  0.0309  0.1289
 1144POPC   D2A13854  12.409  17.331  15.443  0.1674 -0.1705  0.0551
 1144POPC   C3A13855  12.709  17.360  15.832 -0.1463  0.0916 -0.3163
 1144POPC   C4A13856  12.955  17.169  16.162 -0.1953  0.0092  0.1492
 1144POPC   C1B13857  12.748  18.197  15.627 -0.0646  0.0428  0.0931
 1144POPC   C2B13858  12.822  18.353  16.019 -0.2907  0.2873 -0.0257
 1144POPC   C3B13859  13.047  18.168  16.362  0.1099  0.0914  0.1696
 1144POPC   C4B13860  13.165  18.256  16.792  0.2038 -0.0200 -0.0755
 1145POPC   NC313861  14.160  16.708  15.347  0.0685 -0.1061  0.0909
 1145POPC   PO413862  14.471  16.518  15.207 -0.1807  0.2152 -0.2561
 1145POPC   GL113863  14.699  16.485  15.616  0.1831 -0.1182 -0.1630
 1145POPC   GL213864  14.543  16.744  15.703  0.1945  0.0555 -0.0166
 1145POPC   C1A13865  14.735  16.340  16.049 -0.1186  0.1342  0.2623
 1145POPC   D2A13866  14.501  16.271  16.450 -0.1741 -0.1332 -0.2972
 1145POPC   C3A13867  14.406  16.197  16.940  0.2867 -0.3046  0.0086
 1145POPC   C4A13868  14.272  16.489  17.301  0.1284 -0.1531  0.1021
 1145POPC   C1B13869  14.559  16.814  16.121 -0.2400  0.0711 -0.0192
 1145POPC   C2B13870  14.632  16.744  16.573  0.1728 -0.0069  0.0079
 1145POPC   C3B13871  14.584  17.128  16.922  0.0313  0.3594 -0.2752
 1145POPC   C4B13872  14.582  17.119  17.393 -0.0645 -0.1896  0.3519
 1146POPC   NC313873  13.613   9.099  15.330 -0.1534 -0.1920 -0.1617
 1146POPC   PO413874  13.952   8.940  15.394 -0.1082  0.0483 -0.0190
 1146POPC   GL113875  13.876   9.011  15.787  0.2322 -0.2656  0.3353
 1146POPC   GL213876  13.554   9.099  15.802 -0.1905  0.0741  0.2897
 1146POPC   C1A13877  14.131   9.280  16.086  0.1928  0.1801  0.2395
 1146POPC   D2A13878  14.086   9.544  16.470 -0.1345  0.1817 -0.3546
 1146POPC   C3A13879  14.103   9.246  16.794 -0.0271  0.2133 -0.0399
 1146POPC   C4A13880  14.387   9.226  17.143  0.1814  0.1803 -0.1361
 1146POPC   C1B13881  13.483   9.022  16.260  0.0708  0.3675  0.1154
 1146POPC   C2B13882  13.424   9.035  16.738 -0.0885  0.0032  0.0420
 1146POPC   C3B13883  13.338   8.819  17.173 -0.1514 -0.0216 -0.0656
 1146POPC   C4B13884  12.989   8.482  17.225 -0.0059  0.1125 -0.0156
 1147POPC   NC313885  12.824  19.687  14.303  0.1668  0.2412 -0.5588
 1147POPC   PO413886  12.845  19.690  14.717 -0.1730  0.1586  0.1708
 1147POPC   GL113887  13.060  19.545  15.153  0.0362  0.1350  0.2408
 1147POPC   GL213888  12.941  19.858  15.163  0.0927  0.3075 -0.1137
 1147POPC   C1A13889  13.254  19.674  15.546  0.1994  0.0108  0.3191
 1147POPC   D2A13890  13.386  19.297  15.808  0.0980 -0.0450 -0.3378
 1147POPC   C3A13891  13.316  18.924  15.585 -0.1381 -0.4456  0.3505
 1147POPC   C4A13892  13.197  18.512  15.729  0.2996 -0.1134  0.0319
 1147POPC   C1B13893  12.687  19.625  15.424 -0.0756  0.0233 -0.1823
 1147POPC   C2B13894  12.383  19.526  15.736 -0.2334 -0.1055  0.0313
 1147POPC   C3B13895  12.265  19.264  16.070  0.2856 -0.0548  0.1582
 1147POPC   C4B13896  12.039  18.834  16.257  0.0471  0.1698  0.0075
 1148POPC   NC313897   6.129  18.212  15.079  0.0591  0.2786 -0.0812
 1148POPC   PO413898   5.894  18.547  15.065  0.2811  0.1761 -0.2350
 1148POPC   GL113899   5.700  18.670  15.364  0.0736 -0.0082 -0.1335
 1148POPC   GL213900   5.860  18.790  15.550 -0.0303 -0.3394  0.2599
 1148POPC   C1A13901   5.486  19.107  15.398 -0.0219  0.1503 -0.2107
 1148POPC   D2A13902   5.245  19.455  15.643  0.0567  0.1687  0.1632
 1148POPC   C3A13903   4.770  19.463  15.801  0.0038 -0.1047 -0.0090
 1148POPC   C4A13904   4.427  19.519  16.210  0.3431  0.1344 -0.1057
 1148POPC   C1B13905   5.645  19.001  15.887  0.1584 -0.3237 -0.0021
 1148POPC   C2B13906   5.480  19.232  16.281  0.1427 -0.2030  0.3190
 1148POPC   C3B13907   5.393  19.380  16.718 -0.2796 -0.3528  0.0607
 1148POPC   C4B13908   5.272  19.452  17.104  0.0960 -0.0795  0.1410
 1149POPC   NC313909   0.052  22.447  15.182  0.1023  0.2060 -0.1774
 1149POPC   PO413910   0.271  22.676  14.979  0.1852 -0.3792 -0.1404
 1149POPC   GL113911   0.375  22.888  15.260  0.1256 -0.0506  0.0755
 1149POPC   GL213912   0.181  23.092  15.398  0.0896 -0.0376  0.1033
 1149POPC   C1A13913   0.631  23.298  15.278  0.1359 -0.1771  0.0406
 1149POPC   D2A13914   1.025  23.269  15.497  0.0934 -0.0894  0.2471
 1149POPC   C3A13915   1.381  23.527  15.371  0.2092 -0.0815  0.3750
 1149POPC   C4A13916   1.342  23.892  15.641  0.1873 -0.0882  0.0034
 1149POPC   C1B13917   0.157  23.233  15.876 -0.3731  0.0507 -0.2269
 1149POPC   C2B13918   0.129  23.208  16.299 -0.2581  0.0976  0.0662
 1149POPC   C3B13919   0.010  23.255  16.669 -0.2949  0.2109  0.0063
 1149POPC   C4B13920  -0.165  23.544  16.931 -0.0424  0.2791 -0.0350
 1150POPC   NC313921   6.845  30.022  14.642 -0.2680 -0.1692  0.1228
 1150POPC   PO413922   6.802  29.899  15.053  0.0319 -0.4131 -0.0413
 1150POPC   GL113923   6.588  29.692  15.299  0.3685 -0.2382 -0.1449
 1150POPC   GL213924   6.281  29.839  15.344  0.0249 -0.2908  0.1734
 1150POPC   C1A13925   6.546  29.421  15.652 -0.1891  0.0655 -0.3594
 1150POPC   D2A13926   6.626  29.063  15.968 -0.2862 -0.2264 -0.0388
 1150POPC   C3A13927   6.571  29.061  16.439 -0.0924  0.1607  0.3705
 1150POPC   C4A13928   6.619  28.955  16.851  0.2738  0.0056 -0.2809
 1150POPC   C1B13929   6.094  29.859  15.800 -0.1125  0.0517  0.3347
 1150POPC   C2B13930   6.092  29.965  16.213  0.0589  0.0180 -0.0624
 1150POPC   C3B13931   6.406  30.101  16.532  0.1693  0.0612 -0.0987
 1150POPC   C4B13932   6.420  30.090  16.997 -0.3052 -0.0112 -0.1881
 1151POPC   NC313933   5.792  20.925  14.473 -0.0334  0.2180  0.1387
 1151POPC   PO413934   5.612  21.017  14.787 -0.0549 -0.2226  0.0850
 1151POPC   GL113935   5.396  20.929  15.139 -0.3085  0.0414  0.1996
 1151POPC   GL213936   5.104  21.017  15.015  0.2057  0.3119  0.1105
 1151POPC   C1A13937   5.566  21.114  15.520 -0.0505  0.2108 -0.3405
 1151POPC   D2A13938   5.496  21.120  16.030  0.2596  0.1822 -0.0757
 1151POPC   C3A13939   5.351  21.565  16.234 -0.1019 -0.0650  0.1425
 1151POPC   C4A13940   5.067  21.699  16.613  0.2427  0.4786 -0.1046
 1151POPC   C1B13941   5.140  20.804  15.467 -0.1821 -0.0903 -0.1412
 1151POPC   C2B13942   5.028  20.928  15.874  0.2794  0.0042 -0.0460
 1151POPC   C3B13943   4.759  20.815  16.235 -0.1735 -0.0080  0.0603
 1151POPC   C4B13944   4.740  20.384  16.383 -0.1044 -0.0415  0.1608
 1152POPC   NC313945   7.145  23.773  15.629  0.0671  0.0305  0.4514
 1152POPC   PO413946   7.345  23.571  15.351  0.0505  0.1718 -0.2067
 1152POPC   GL113947   7.441  23.402  15.737  0.0519  0.0278 -0.1329
 1152POPC   GL213948   7.505  23.560  15.925 -0.0395  0.2433 -0.2047
 1152POPC   C1A13949   7.472  23.023  15.921  0.0852  0.0134 -0.3256
 1152POPC   D2A13950   7.529  22.776  16.307  0.0144  0.1489 -0.0870
 1152POPC   C3A13951   7.242  23.047  16.588  0.0801 -0.1038 -0.2434
 1152POPC   C4A13952   7.187  23.315  16.947 -0.1228  0.2523 -0.1832
 1152POPC   C1B13953   7.593  23.395  16.351  0.2866  0.0118 -0.4020
 1152POPC   C2B13954   7.666  23.389  16.816 -0.1343 -0.0867  0.0102
 1152POPC   C3B13955   7.602  23.372  17.315  0.1359 -0.0315 -0.0199
 1152POPC   C4B13956   7.647  23.487  17.747 -0.1267 -0.0097  0.2716
 1153POPC   NC313957   2.712   6.093  15.296 -0.0487 -0.3075  0.2684
 1153POPC   PO413958   2.734   6.413  15.512  0.0589 -0.2240 -0.2147
 1153POPC   GL113959   2.670   6.156  15.805  0.2971 -0.0926 -0.1915
 1153POPC   GL213960   2.876   6.040  16.076  0.1941 -0.1474 -0.3585
 1153POPC   C1A13961   2.289   6.112  16.075  0.1983  0.3041 -0.1106
 1153POPC   D2A13962   1.893   5.837  16.131  0.0126  0.1587 -0.0256
 1153POPC   C3A13963   1.986   5.603  16.546 -0.1757 -0.0978 -0.3394
 1153POPC   C4A13964   1.891   5.299  16.872  0.1034  0.0991  0.2832
 1153POPC   C1B13965   2.561   5.813  16.438 -0.3080 -0.3592  0.3523
 1153POPC   C2B13966   2.391   5.594  16.853 -0.0124 -0.0085 -0.4063
 1153POPC   C3B13967   2.460   5.217  17.083 -0.2591  0.0835  0.1670
 1153POPC   C4B13968   2.292   4.882  17.345  0.0747 -0.0469 -0.1432
 1154POPC   NC313969  12.914  15.290  14.966 -0.2417  0.2334 -0.1692
 1154POPC   PO413970  13.044  15.676  14.866  0.0213  0.0478 -0.0004
 1154POPC   GL113971  12.799  15.701  15.159  0.0193 -0.4389 -0.1949
 1154POPC   GL213972  12.840  15.514  15.414  0.1295 -0.3807 -0.2373
 1154POPC   C1A13973  12.572  15.939  15.480 -0.0352 -0.1149  0.0440
 1154POPC   D2A13974  12.256  16.212  15.712  0.1936  0.1930  0.1587
 1154POPC   C3A13975  12.202  16.131  16.163  0.2680 -0.0362  0.3349
 1154POPC   C4A13976  12.132  16.173  16.598 -0.2191  0.1721  0.1858
 1154POPC   C1B13977  12.718  15.193  15.715 -0.0367 -0.1767 -0.2266
 1154POPC   C2B13978  12.428  15.142  16.088 -0.2262  0.0912  0.1491
 1154POPC   C3B13979  12.518  15.203  16.550  0.1738  0.0157  0.1063
 1154POPC   C4B13980  12.244  15.192  16.903  0.0449 -0.0424 -0.3530
 1155POPC   NC313981   4.966  26.373  15.339 -0.0773  0.3538  0.1989
 1155POPC   PO413982   5.087  26.687  15.510  0.0957  0.1369 -0.0210
 1155POPC   GL113983   5.126  26.562  15.901  0.4059  0.2629  0.4798
 1155POPC   GL213984   5.451  26.563  15.980 -0.2537 -0.1259 -0.0237
 1155POPC   C1A13985   5.051  26.712  16.339 -0.2238  0.1305 -0.2208
 1155POPC   D2A13986   4.935  26.756  16.795 -0.1215 -0.4298 -0.0132
 1155POPC   C3A13987   5.127  26.845  17.195 -0.1887 -0.1840  0.1821
 1155POPC   C4A13988   5.212  26.796  17.685 -0.5117  0.0602  0.0464
 1155POPC   C1B13989   5.607  26.152  15.978  0.0692 -0.0406 -0.0643
 1155POPC   C2B13990   5.493  25.856  16.296  0.1849  0.0522 -0.0995
 1155POPC   C3B13991   5.660  25.592  16.638  0.0881  0.2687  0.2617
 1155POPC   C4B13992   5.830  25.645  17.045  0.4789 -0.1099 -0.0463
 1156POPC   NC313993  11.356  24.648  15.569 -0.2426 -0.3311  0.0321
 1156POPC   PO413994  11.477  25.051  15.519  0.2728 -0.2998 -0.1834
 1156POPC   GL113995  11.340  25.078  15.916  0.0821 -0.1537  0.1406
 1156POPC   GL213996  11.649  25.109  15.996 -0.1403 -0.2731  0.1072
 1156POPC   C1A13997  11.143  25.108  16.376 -0.1668 -0.0952 -0.1016
 1156POPC   D2A13998  11.220  25.125  16.789 -0.1708  0.4227 -0.1384
 1156POPC   C3A13999  10.866  24.829  16.964 -0.1276  0.0916  0.1278
 1156POPC   C4A14000  10.667  24.495  17.262 -0.0208  0.0805 -0.1593
 1156POPC   C1B14001  11.473  25.437  16.291 -0.2172 -0.1192  0.0870
 1156POPC   C2B14002  11.548  25.565  16.728 -0.0756  0.3778  0.2345
 1156POPC   C3B14003  11.530  25.717  17.145 -0.1420  0.0456 -0.0575
 1156POPC   C4B14004  11.249  25.634  17.496 -0.2102 -0.2558 -0.0793
 1157POPC   NC314005   7.662  16.032  15.197 -0.0829  0.2693 -0.0091
 1157POPC   PO414006   7.807  16.365  15.244  0.4099  0.0339 -0.3563
 1157POPC   GL114007   7.730  16.333  15.609 -0.2023  0.0838 -0.2163
 1157POPC   GL214008   7.744  16.061  15.691  0.0634 -0.0201  0.0777
 1157POPC   C1A14009   7.839  16.705  15.857  0.0076 -0.0399  0.0885
 1157POPC   D2A14010   7.802  16.969  16.212  0.0980  0.0178 -0.3455
 1157POPC   C3A14011   7.944  16.933  16.610 -0.2448  0.2847  0.0394
 1157POPC   C4A14012   8.032  16.885  17.058 -0.2023 -0.1548 -0.2758
 1157POPC   C1B14013   7.938  16.138  16.102 -0.1939 -0.0249  0.1904
 1157POPC   C2B14014   8.055  15.912  16.532  0.3430  0.0829 -0.0003
 1157POPC   C3B14015   8.087  15.775  17.004  0.0755 -0.0016 -0.1541
 1157POPC   C4B14016   8.356  15.460  17.235  0.1971 -0.2241 -0.1661
 1158POPC   NC314017   1.520  15.428  15.371 -0.0475 -0.0226  0.2098
 1158POPC   PO414018   1.445  15.818  15.472 -0.0080 -0.0598 -0.2735
 1158POPC   GL114019   1.635  16.051  15.714  0.3772  0.1074 -0.0425
 1158POPC   GL214020   1.851  15.996  15.946 -0.0638 -0.1367 -0.3204
 1158POPC   C1A14021   1.304  16.164  16.027  0.0496  0.1611  0.0593
 1158POPC   D2A14022   1.248  16.234  16.448 -0.1093  0.1788  0.0211
 1158POPC   C3A14023   1.038  16.361  16.872 -0.1056 -0.0899  0.2667
 1158POPC   C4A14024   1.003  16.718  17.155 -0.1281  0.0765 -0.3270
 1158POPC   C1B14025   1.750  16.163  16.341  0.2339  0.0102  0.1339
 1158POPC   C2B14026   1.642  16.386  16.725  0.4325  0.1840 -0.1299
 1158POPC   C3B14027   1.460  16.483  17.188 -0.0419 -0.0315  0.0445
 1158POPC   C4B14028   1.199  16.430  17.566  0.0186  0.1516 -0.1252
 1159POPC   NC314029   0.524   8.325  15.348  0.2321 -0.1620  0.0194
 1159POPC   PO414030   0.231   8.588  15.373  0.0572  0.0232  0.1365
 1159POPC   GL114031   0.134   8.805  15.629 -0.0525  0.2162  0.0665
 1159POPC   GL214032   0.013   9.107  15.577  0.1072 -0.2968 -0.1800
 1159POPC   C1A14033   0.420   8.727  16.013  0.1417 -0.1018 -0.1139
 1159POPC   D2A14034   0.705   8.611  16.413 -0.1096  0.2110 -0.1322
 1159POPC   C3A14035   0.660   8.791  16.854  0.1013 -0.1895 -0.1767
 1159POPC   C4A14036   0.500   8.972  17.240  0.1738 -0.2770 -0.1005
 1159POPC   C1B14037  -0.024   9.062  16.026  0.1751  0.3885 -0.2492
 1159POPC   C2B14038  -0.018   9.317  16.411  0.1796  0.0160 -0.2493
 1159POPC   C3B14039  -0.358   9.462  16.688  0.0677 -0.0529 -0.2184
 1159POPC   C4B14040  -0.682   9.501  17.050  0.1394  0.1368  0.1380
 1160POPC   NC314041  13.758  26.263  15.381 -0.0286  0.4243  0.1341
 1160POPC   PO414042  13.576  26.551  15.506  0.0183 -0.0671 -0.0641
 1160POPC   GL114043  13.512  26.587  15.955 -0.4198  0.1203 -0.1585
 1160POPC   GL214044  13.199  26.541  15.912 -0.2203  0.2363  0.0239
 1160POPC   C1A14045  13.610  26.365  16.306  0.0232  0.2535 -0.1730
 1160POPC   D2A14046  13.843  26.309  16.755 -0.0769 -0.0280 -0.1799
 1160POPC   C3A14047  13.560  25.993  17.030  0.0255 -0.1395 -0.1622
 1160POPC   C4A14048  13.117  25.828  17.050  0.1767 -0.0325 -0.2748
 1160POPC   C1B14049  13.137  26.602  16.370 -0.3997  0.0222 -0.0867
 1160POPC   C2B14050  13.158  26.972  16.671 -0.0191  0.3038 -0.2505
 1160POPC   C3B14051  13.179  27.050  17.168 -0.3873  0.4006 -0.1333
 1160POPC   C4B14052  12.938  26.851  17.466  0.1968 -0.6581  0.3360
 1161POPC   NC314053  13.663   9.612  14.970 -0.0519  0.0255 -0.5192
 1161POPC   PO414054  13.267   9.734  15.026 -0.0727 -0.2993  0.0130
 1161POPC   GL114055  13.275   9.908  15.448  0.0415 -0.1191 -0.0394
 1161POPC   GL214056  13.521  10.020  15.369 -0.0138 -0.0723 -0.0097
 1161POPC   C1A14057  13.157   9.753  15.877 -0.0071  0.0984  0.1958
 1161POPC   D2A14058  13.268   9.745  16.359  0.0575  0.2057  0.1029
 1161POPC   C3A14059  12.998   9.818  16.698  0.2513  0.0496 -0.3007
 1161POPC   C4A14060  13.157   9.906  17.100  0.2243 -0.1184  0.0569
 1161POPC   C1B14061  13.675   9.821  15.770 -0.0605 -0.1692 -0.1472
 1161POPC   C2B14062  13.700   9.481  16.061 -0.1186  0.0339 -0.2936
 1161POPC   C3B14063  13.630   9.420  16.494  0.3358  0.1240 -0.0451
 1161POPC   C4B14064  13.423   9.555  16.878 -0.2023 -0.1865  0.0345
 1162POPC   NC314065  14.970  10.409  15.338  0.1388 -0.3105 -0.4916
 1162POPC   PO414066  14.892  10.048  15.154  0.0667  0.1598  0.3949
 1162POPC   GL114067  14.689  10.054  15.499  0.0255  0.0275  0.1907
 1162POPC   GL214068  14.694   9.913  15.720  0.0342 -0.0923  0.0337
 1162POPC   C1A14069  14.692  10.338  15.886 -0.2003  0.1861  0.1400
 1162POPC   D2A14070  14.677  10.606  16.261 -0.2283  0.1234 -0.1164
 1162POPC   C3A14071  14.395  10.923  16.454 -0.1345 -0.1651  0.4697
 1162POPC   C4A14072  14.065  10.941  16.774 -0.0916  0.1360  0.3131
 1162POPC   C1B14073  14.641   9.940  16.181 -0.0293 -0.1939 -0.1060
 1162POPC   C2B14074  14.685  10.200  16.549  0.0076 -0.4514  0.1122
 1162POPC   C3B14075  14.365  10.504  16.715 -0.1043  0.0831 -0.2087
 1162POPC   C4B14076  14.123  10.520  17.109 -0.2642 -0.1841 -0.2567
 1163POPC   NC314077  10.035   1.908  14.919 -0.0240  0.1420  0.1033
 1163POPC   PO414078  10.245   2.138  15.223  0.0963 -0.0677  0.2416
 1163POPC   GL114079  10.567   2.361  15.433  0.0480  0.1658 -0.1279
 1163POPC   GL214080  10.813   2.262  15.575  0.2183  0.2517 -0.1895
 1163POPC   C1A14081  10.510   2.424  15.898 -0.2587  0.0820 -0.3432
 1163POPC   D2A14082  10.898   2.494  16.192  0.1201  0.0555 -0.0348
 1163POPC   C3A14083  10.775   2.365  16.629 -0.1365  0.0388  0.0972
 1163POPC   C4A14084  10.806   2.258  17.089  0.0681 -0.0635 -0.2931
 1163POPC   C1B14085  10.834   2.052  16.010  0.1167 -0.0584  0.0976
 1163POPC   C2B14086  11.019   1.823  16.338  0.1634 -0.1504 -0.2747
 1163POPC   C3B14087  11.298   1.612  16.594 -0.0682  0.0085 -0.1681
 1163POPC   C4B14088  11.194   1.554  17.060 -0.0863 -0.0298  0.0697
 1164POPC   NC314089   7.207  30.834  14.925 -0.1374  0.0531 -0.2497
 1164POPC   PO414090   7.422  30.504  14.792  0.4199  0.0204 -0.0289
 1164POPC   GL114091   7.540  30.301  15.116  0.3231 -0.1182 -0.2520
 1164POPC   GL214092   7.721  30.389  15.238 -0.0677  0.0720 -0.1119
 1164POPC   C1A14093   7.166  30.269  15.415 -0.1567 -0.2241 -0.1956
 1164POPC   D2A14094   7.016  29.913  15.574  0.1305  0.3399 -0.2366
 1164POPC   C3A14095   6.798  30.082  15.939 -0.0238 -0.0184 -0.0619
 1164POPC   C4A14096   6.935  30.044  16.367  0.1640  0.2043 -0.0111
 1164POPC   C1B14097   7.633  30.454  15.676 -0.1543  0.0488  0.2281
 1164POPC   C2B14098   7.674  30.399  16.114 -0.0635 -0.1175 -0.2240
 1164POPC   C3B14099   7.440  30.260  16.460  0.2889  0.2829 -0.1208
 1164POPC   C4B14100   7.338  30.067  16.908 -0.0214 -0.0267 -0.0299
 1165POPC   NC314101   8.133  30.618  14.954  0.0191 -0.2940 -0.0152
 1165POPC   PO414102   8.269  30.916  15.158  0.1066 -0.3326 -0.1863
 1165POPC   GL114103   8.085  31.023  15.545  0.0599  0.1538  0.1895
 1165POPC   GL214104   7.800  30.875  15.457 -0.0843  0.0391  0.2996
 1165POPC   C1A14105   8.293  31.177  15.897 -0.2706  0.1787 -0.1700
 1165POPC   D2A14106   8.471  31.271  16.303 -0.1949  0.0923 -0.0063
 1165POPC   C3A14107   8.875  31.059  16.456 -0.0836 -0.0382  0.0287
 1165POPC   C4A14108   8.953  30.588  16.610  0.2789 -0.2429 -0.2469
 1165POPC   C1B14109   7.660  30.948  15.876 -0.0309 -0.1045 -0.1143
 1165POPC   C2B14110   7.355  30.915  16.258  0.0163 -0.0758 -0.2415
 1165POPC   C3B14111   7.170  30.669  16.625 -0.2048  0.3667 -0.0771
 1165POPC   C4B14112   7.442  30.698  17.011 -0.0646 -0.2382 -0.1540
 1166POPC   NC314113  10.241   6.638  15.052  0.0039 -0.0049 -0.1743
 1166POPC   PO414114  10.378   6.955  15.077 -0.2682  0.0315  0.0532
 1166POPC   GL114115  10.419   6.740  15.478  0.0336  0.2811  0.1640
 1166POPC   GL214116  10.706   6.910  15.456 -0.0141 -0.1993 -0.1927
 1166POPC   C1A14117  10.692   6.483  15.837  0.1190 -0.2072 -0.3373
 1166POPC   D2A14118  11.071   6.347  16.095 -0.3165 -0.1243  0.1192
 1166POPC   C3A14119  10.988   6.019  16.446  0.1829 -0.3814 -0.0531
 1166POPC   C4A14120  10.799   5.711  16.700 -0.1922 -0.3214 -0.0554
 1166POPC   C1B14121  10.490   6.978  15.852 -0.1948  0.1178  0.0963
 1166POPC   C2B14122  10.563   6.816  16.276  0.0940  0.1069  0.1637
 1166POPC   C3B14123  10.757   6.904  16.667  0.0527  0.1367  0.0368
 1166POPC   C4B14124  10.825   6.760  17.103 -0.1130 -0.1990 -0.0683
 1167POPC   NC314125   8.468   5.452  14.718  0.0525 -0.0019 -0.1266
 1167POPC   PO414126   8.455   5.351  15.094 -0.1479 -0.1907  0.0068
 1167POPC   GL114127   8.469   5.513  15.443  0.0481  0.1632  0.3191
 1167POPC   GL214128   8.205   5.445  15.604 -0.1907  0.0058 -0.1778
 1167POPC   C1A14129   8.716   5.391  15.875 -0.2595  0.0187 -0.0288
 1167POPC   D2A14130   8.469   5.345  16.292  0.0054 -0.0227 -0.1080
 1167POPC   C3A14131   8.055   5.367  16.495  0.1590  0.2707  0.4302
 1167POPC   C4A14132   7.802   5.525  16.847  0.0201 -0.0791  0.1407
 1167POPC   C1B14133   8.116   5.619  16.003  0.4326  0.3435  0.1361
 1167POPC   C2B14134   8.166   5.862  16.381 -0.1296  0.0092 -0.0342
 1167POPC   C3B14135   8.219   5.880  16.785 -0.0342 -0.1791 -0.1443
 1167POPC   C4B14136   8.084   5.791  17.190 -0.3232  0.0276 -0.0543
 1168POPC   NC314137   4.155   0.459  14.555 -0.1379  0.4912 -0.2227
 1168POPC   PO414138   3.809   0.337  14.520 -0.0443  0.2142  0.0095
 1168POPC   GL114139   3.865   0.538  14.922 -0.1300  0.1847  0.0878
 1168POPC   GL214140   3.685   0.580  15.144 -0.2303  0.3093  0.1371
 1168POPC   C1A14141   4.266   0.502  15.183 -0.1751  0.1239 -0.0491
 1168POPC   D2A14142   4.552   0.600  15.542 -0.1828 -0.1349 -0.1821
 1168POPC   C3A14143   4.343   0.691  15.909 -0.0551  0.0918  0.0927
 1168POPC   C4A14144   3.888   0.845  16.039  0.3038 -0.2700 -0.0055
 1168POPC   C1B14145   3.509   0.576  15.574 -0.0233 -0.2288 -0.1358
 1168POPC   C2B14146   3.682   0.410  15.981 -0.0201  0.0579  0.1567
 1168POPC   C3B14147   3.705   0.156  16.336 -0.1009  0.2710  0.1381
 1168POPC   C4B14148   4.031  -0.186  16.445 -0.3258 -0.5294  0.0990
 1169POPC   NC314149  12.025   3.095  15.317 -0.0398 -0.0117 -0.0783
 1169POPC   PO414150  12.260   3.391  15.466  0.0940  0.1159  0.0916
 1169POPC   GL114151  12.238   3.605  15.887 -0.3366 -0.2640 -0.5541
 1169POPC   GL214152  12.246   3.859  15.740  0.2001 -0.0805  0.0576
 1169POPC   C1A14153  12.244   3.653  16.327  0.3740  0.0719  0.4032
 1169POPC   D2A14154  12.439   3.592  16.783 -0.1745 -0.0098 -0.0804
 1169POPC   C3A14155  12.189   3.469  17.146  0.2206 -0.3576  0.1461
 1169POPC   C4A14156  11.895   3.123  17.049  0.0015  0.0064 -0.0035
 1169POPC   C1B14157  12.412   4.081  16.065  0.0468 -0.1653 -0.1397
 1169POPC   C2B14158  12.403   4.072  16.577 -0.0765  0.0169  0.0200
 1169POPC   C3B14159  12.451   4.087  17.046  0.3090 -0.0779  0.2173
 1169POPC   C4B14160  12.480   4.246  17.478 -0.1376 -0.1916 -0.0478
 1170POPC   NC314161   7.799   4.219  14.927 -0.1604  0.4447 -0.1691
 1170POPC   PO414162   7.844   4.214  15.329 -0.0208  0.1966 -0.0893
 1170POPC   GL114163   7.686   4.410  15.683  0.0577  0.2100 -0.1961
 1170POPC   GL214164   7.405   4.491  15.710  0.0872 -0.0428  0.0053
 1170POPC   C1A14165   7.944   4.592  16.021 -0.0574  0.1887  0.0361
 1170POPC   D2A14166   8.318   4.464  16.255 -0.2301 -0.1172  0.1810
 1170POPC   C3A14167   8.431   4.510  16.735  0.1390  0.0401  0.0638
 1170POPC   C4A14168   8.218   4.600  17.139 -0.1984  0.4212  0.0252
 1170POPC   C1B14169   7.365   4.318  16.114  0.0013 -0.0995  0.2049
 1170POPC   C2B14170   7.207   4.272  16.536  0.2483  0.0425 -0.3037
 1170POPC   C3B14171   7.117   4.529  16.973 -0.2342 -0.1669 -0.1736
 1170POPC   C4B14172   6.753   4.584  17.282 -0.0951  0.0181 -0.0710
 1171POPC   NC314173  14.643  20.319  15.396 -0.0467 -0.0539 -0.0087
 1171POPC   PO414174  14.427  19.993  15.435  0.4120  0.1358  0.1237
 1171POPC   GL114175  14.657  20.002  15.797  0.2577 -0.0184  0.1166
 1171POPC   GL214176  14.760  20.268  15.902  0.1861 -0.1655  0.4675
 1171POPC   C1A14177  14.526  19.664  16.109  0.1618  0.0344 -0.1380
 1171POPC   D2A14178  14.316  19.351  16.445  0.0460 -0.3732 -0.2220
 1171POPC   C3A14179  14.131  19.566  16.785  0.2702 -0.0895 -0.4852
 1171POPC   C4A14180  13.864  19.428  17.145  0.0283 -0.1349  0.2376
 1171POPC   C1B14181  14.566  20.159  16.333 -0.2996 -0.1929  0.0703
 1171POPC   C2B14182  14.630  19.952  16.714  0.2214 -0.2090 -0.2329
 1171POPC   C3B14183  14.467  20.159  17.110 -0.0581  0.2772 -0.3205
 1171POPC   C4B14184  14.226  20.203  17.500  0.1768 -0.1619 -0.1065
 1172POPC   NC314185   5.639  15.192  15.627  0.1992  0.1189 -0.0588
 1172POPC   PO414186   5.876  15.431  15.366 -0.0364  0.1785 -0.0397
 1172POPC   GL114187   5.859  15.643  15.778 -0.1369  0.0233 -0.0357
 1172POPC   GL214188   5.590  15.619  15.892 -0.2679 -0.2496  0.0927
 1172POPC   C1A14189   6.143  15.608  16.180 -0.1773 -0.0220  0.0218
 1172POPC   D2A14190   6.211  15.431  16.597 -0.3959  0.0263  0.0205
 1172POPC   C3A14191   6.319  15.558  16.956 -0.0110 -0.0249 -0.2723
 1172POPC   C4A14192   6.632  15.406  17.246 -0.1357  0.0824 -0.0078
 1172POPC   C1B14193   5.248  15.836  16.180 -0.0808  0.1002 -0.0931
 1172POPC   C2B14194   5.329  16.008  16.631  0.0169 -0.1971  0.3303
 1172POPC   C3B14195   5.434  16.067  17.100  0.1938 -0.0057 -0.1079
 1172POPC   C4B14196   5.268  16.016  17.593 -0.1594 -0.3418  0.0203
 1173POPC   NC314197   5.168   2.804  15.392  0.1661 -0.0528  0.0734
 1173POPC   PO414198   5.044   3.134  15.571  0.2775  0.0483 -0.1346
 1173POPC   GL114199   5.242   3.083  15.866  0.1793 -0.0582  0.3636
 1173POPC   GL214200   5.395   3.342  15.894  0.0724  0.2681 -0.1136
 1173POPC   C1A14201   5.155   2.911  16.340 -0.3335  0.0609 -0.1215
 1173POPC   D2A14202   4.866   2.794  16.670  0.0254 -0.0156 -0.0815
 1173POPC   C3A14203   4.832   3.299  16.784  0.0234  0.2076 -0.3014
 1173POPC   C4A14204   4.552   3.542  17.024 -0.2782 -0.2769 -0.0903
 1173POPC   C1B14205   5.223   3.439  16.309  0.0745 -0.1791  0.1550
 1173POPC   C2B14206   5.275   3.489  16.774 -0.2503 -0.1754 -0.0352
 1173POPC   C3B14207   5.557   3.353  17.122 -0.0853 -0.0718 -0.1347
 1173POPC   C4B14208   5.488   3.274  17.531  0.2200 -0.1745  0.0925
 1174POPC   NC314209   2.138   5.934  15.460  0.3262 -0.1195  0.3673
 1174POPC   PO414210   2.257   6.318  15.490  0.1226  0.0579  0.1423
 1174POPC   GL114211   2.427   6.558  15.796 -0.1078 -0.1249  0.0347
 1174POPC   GL214212   2.432   6.832  15.781  0.2124 -0.1284  0.1674
 1174POPC   C1A14213   2.705   6.466  16.165 -0.0205  0.1291 -0.3021
 1174POPC   D2A14214   2.947   6.680  16.521  0.1691 -0.0488  0.0971
 1174POPC   C3A14215   2.799   6.529  16.902 -0.4471  0.2841 -0.0980
 1174POPC   C4A14216   2.742   6.323  17.309 -0.2035  0.0944 -0.0061
 1174POPC   C1B14217   2.231   7.117  16.169 -0.1829  0.0616  0.1014
 1174POPC   C2B14218   2.099   7.075  16.586  0.0310  0.0190  0.0392
 1174POPC   C3B14219   2.045   6.638  16.780  0.0858 -0.2398 -0.1046
 1174POPC   C4B14220   1.799   6.399  17.104 -0.2926 -0.2292 -0.4260
 1175POPC   NC314221  14.946  19.909  15.328 -0.1209  0.2188 -0.1349
 1175POPC   PO414222  15.261  19.662  15.442 -0.0310 -0.1623 -0.4119
 1175POPC   GL114223  15.212  19.675  15.800  0.2671  0.1512 -0.1247
 1175POPC   GL214224  15.039  19.857  15.886  0.2222  0.1509  0.1827
 1175POPC   C1A14225  15.460  19.688  16.212  0.0533 -0.2886 -0.2873
 1175POPC   D2A14226  15.577  19.517  16.612  0.1979  0.2389  0.0302
 1175POPC   C3A14227  15.880  19.503  16.957 -0.1902 -0.0970  0.2591
 1175POPC   C4A14228  16.183  19.679  17.216  0.0816 -0.0321 -0.0939
 1175POPC   C1B14229  15.158  20.194  16.204 -0.4409  0.1122  0.0728
 1175POPC   C2B14230  15.455  20.309  16.545 -0.1585 -0.1494 -0.1448
 1175POPC   C3B14231  15.540  20.459  17.024  0.1449 -0.1065  0.0195
 1175POPC   C4B14232  15.917  20.633  17.249 -0.2798  0.4554  0.1610
 1176POPC   NC314233  10.552  30.017  15.530  0.0478  0.0143  0.0946
 1176POPC   PO414234  10.636  29.680  15.378 -0.0614 -0.1151  0.1618
 1176POPC   GL114235  10.828  29.525  15.707  0.1564 -0.0988  0.1700
 1176POPC   GL214236  11.140  29.548  15.696 -0.3398 -0.4446  0.3400
 1176POPC   C1A14237  10.666  29.417  16.120 -0.1516  0.1311  0.2561
 1176POPC   D2A14238  10.273  29.553  16.256  0.0286 -0.0808  0.0464
 1176POPC   C3A14239  10.158  29.530  16.711 -0.1052 -0.1361  0.0677
 1176POPC   C4A14240  10.244  29.446  17.157 -0.0944  0.2652 -0.0285
 1176POPC   C1B14241  11.202  29.377  16.141  0.1335 -0.1119 -0.0776
 1176POPC   C2B14242  10.994  29.358  16.571  0.1204 -0.0628 -0.2665
 1176POPC   C3B14243  10.942  29.567  16.990 -0.2054 -0.1265 -0.1550
 1176POPC   C4B14244  11.199  29.540  17.420 -0.0960  0.1486  0.1463
 1177POPC   NC314245  11.421  10.826  14.836 -0.0001  0.1072  0.0445
 1177POPC   PO414246  11.514  11.006  15.177 -0.1230  0.0439 -0.0117
 1177POPC   GL114247  11.572  10.847  15.480 -0.3433  0.0980 -0.2287
 1177POPC   GL214248  11.805  10.664  15.523  0.0747  0.1283  0.2446
 1177POPC   C1A14249  11.605  11.008  15.880  0.5773  0.0656 -0.4943
 1177POPC   D2A14250  11.928  11.203  16.060 -0.5131 -0.2323 -0.3679
 1177POPC   C3A14251  12.301  10.927  16.265  0.2140 -0.0112 -0.0558
 1177POPC   C4A14252  12.561  10.607  16.004  0.0361  0.0531 -0.0548
 1177POPC   C1B14253  12.037  10.684  15.905  0.0280  0.1273  0.0618
 1177POPC   C2B14254  12.039  10.474  16.313  0.2242  0.3986  0.1353
 1177POPC   C3B14255  12.034  10.317  16.761 -0.1855  0.0279  0.0089
 1177POPC   C4B14256  11.826  10.512  17.115  0.0583  0.0642 -0.0571
 1178POPC   NC314257   7.443   3.472  15.345 -0.0761  0.1134  0.3325
 1178POPC   PO414258   7.552   3.132  15.530 -0.0903 -0.1069  0.0395
 1178POPC   GL114259   7.768   2.944  15.896  0.0961 -0.1025 -0.2789
 1178POPC   GL214260   7.607   3.075  16.102  0.0272  0.0019  0.0708
 1178POPC   C1A14261   8.091   2.655  16.059  0.2300 -0.6132 -0.3884
 1178POPC   D2A14262   8.190   2.308  16.434  0.1175  0.6471  0.0052
 1178POPC   C3A14263   8.128   2.443  16.859 -0.0073  0.1356  0.0648
 1178POPC   C4A14264   8.270   2.887  16.971  0.2378  0.0353  0.1530
 1178POPC   C1B14265   7.452   3.391  16.429  0.0599 -0.5160 -0.2026
 1178POPC   C2B14266   7.502   3.849  16.517  0.2587  0.0350 -0.1418
 1178POPC   C3B14267   7.658   4.142  16.878  0.2384 -0.0451 -0.0515
 1178POPC   C4B14268   7.754   3.942  17.264 -0.2472 -0.6710  0.0050
 1179POPC   NC314269   2.234   9.895  15.151  0.0710  0.0622 -0.3222
 1179POPC   PO414270   2.495   9.585  15.232 -0.2220  0.0837  0.0368
 1179POPC   GL114271   2.157   9.658  15.568 -0.0112 -0.0652  0.1564
 1179POPC   GL214272   2.249   9.367  15.676  0.0141  0.1688 -0.0717
 1179POPC   C1A14273   1.756   9.538  15.742  0.0972 -0.0521  0.1917
 1179POPC   D2A14274   1.572   9.303  16.053  0.1673 -0.2505  0.0842
 1179POPC   C3A14275   1.307   9.447  16.394  0.0056 -0.0693  0.1632
 1179POPC   C4A14276   1.063   9.770  16.675 -0.1657  0.1601 -0.0195
 1179POPC   C1B14277   2.048   9.270  16.071  0.2313  0.1886  0.3489
 1179POPC   C2B14278   1.826   9.203  16.474 -0.1204  0.1647 -0.0454
 1179POPC   C3B14279   1.483   9.165  16.823 -0.0947 -0.2181  0.0778
 1179POPC   C4B14280   1.150   8.944  17.073 -0.1427 -0.0445 -0.0393
 1180POPC   NC314281  13.933   8.442  15.288 -0.2035 -0.0910  0.1508
 1180POPC   PO414282  14.223   8.187  15.300 -0.0183  0.3352 -0.0321
 1180POPC   GL114283  14.028   7.984  15.641  0.0897 -0.4211 -0.3334
 1180POPC   GL214284  14.006   7.703  15.705  0.1000  0.0002 -0.4703
 1180POPC   C1A14285  13.701   8.108  15.947  0.0657  0.0843  0.0640
 1180POPC   D2A14286  13.450   7.849  16.157  0.5788 -0.1276  0.2627
 1180POPC   C3A14287  13.290   7.939  16.546  0.2578 -0.2858 -0.0613
 1180POPC   C4A14288  13.197   8.063  16.974  0.0014  0.1090 -0.0979
 1180POPC   C1B14289  14.000   7.609  16.144  0.1050  0.0107 -0.2613
 1180POPC   C2B14290  14.113   7.578  16.571 -0.0738  0.0569  0.0120
 1180POPC   C3B14291  14.258   7.319  16.945  0.1634 -0.1529  0.1294
 1180POPC   C4B14292  14.030   7.023  17.222  0.0477  0.0006  0.1737
 1181POPC   NC314293   7.519  31.628  15.339 -0.0614  0.3583 -0.1328
 1181POPC   PO414294   7.838  31.364  15.267  0.1432 -0.4002 -0.0615
 1181POPC   GL114295   7.794  31.372  15.713  0.2682  0.4708 -0.0562
 1181POPC   GL214296   7.840  31.648  15.935  0.2472 -0.1361  0.0549
 1181POPC   C1A14297   7.781  31.288  16.194  0.0708  0.1500  0.1984
 1181POPC   D2A14298   7.626  31.104  16.591 -0.1221  0.0782  0.0934
 1181POPC   C3A14299   7.259  31.129  16.816  0.0677 -0.2275  0.0637
 1181POPC   C4A14300   7.032  31.421  17.092  0.1934 -0.1377 -0.0087
 1181POPC   C1B14301   8.127  31.614  16.327 -0.0459  0.1466 -0.1225
 1181POPC   C2B14302   8.106  31.355  16.648 -0.4825  0.0199 -0.2606
 1181POPC   C3B14303   8.444  31.259  16.924 -0.1661 -0.0648 -0.1539
 1181POPC   C4B14304   8.903  31.438  16.795  0.1262  0.2439  0.0034
 1182POPC   NC314305  14.730  19.033  15.545 -0.0593  0.1471  0.1800
 1182POPC   PO414306  14.732  18.602  15.474  0.4450 -0.0458 -0.3343
 1182POPC   GL114307  14.729  18.569  15.828  0.1682 -0.2002 -0.1136
 1182POPC   GL214308  14.437  18.685  15.850 -0.0182  0.0348  0.0626
 1182POPC   C1A14309  14.517  18.342  16.178 -0.0779  0.0783  0.1697
 1182POPC   D2A14310  14.252  18.487  16.500 -0.2140  0.1343 -0.2102
 1182POPC   C3A14311  14.183  18.445  17.007  0.1455 -0.0378 -0.2032
 1182POPC   C4A14312  14.113  18.259  17.438  0.0338 -0.1603 -0.2206
 1182POPC   C1B14313  14.407  18.889  16.308  0.3821 -0.0498  0.2905
 1182POPC   C2B14314  14.568  18.791  16.747  0.0046  0.1894  0.0704
 1182POPC   C3B14315  14.769  18.991  17.128 -0.0348 -0.1223 -0.1507
 1182POPC   C4B14316  14.994  19.230  17.389 -0.1346 -0.0371 -0.0263
 1183POPC   NC314317  13.908  10.468  14.728 -0.1529  0.0798 -0.1607
 1183POPC   PO414318  14.234  10.629  14.848  0.0777  0.0587  0.1598
 1183POPC   GL114319  14.211  10.943  15.113 -0.2219  0.1674  0.0925
 1183POPC   GL214320  13.913  10.851  15.227  0.3273 -0.2138 -0.1308
 1183POPC   C1A14321  14.192  11.168  15.520 -0.0851  0.3486 -0.1019
 1183POPC   D2A14322  14.027  11.543  15.699 -0.1231 -0.0429  0.0708
 1183POPC   C3A14323  13.934  11.666  16.119  0.0587  0.1058  0.1064
 1183POPC   C4A14324  13.971  11.970  16.483  0.0036  0.1556  0.0974
 1183POPC   C1B14325  13.933  10.739  15.643  0.0304  0.3718 -0.3319
 1183POPC   C2B14326  13.755  10.373  15.908 -0.2020  0.1848 -0.2101
 1183POPC   C3B14327  13.722  10.096  16.294  0.0022 -0.3579 -0.0337
 1183POPC   C4B14328  13.495  10.107  16.704 -0.3607  0.0331  0.0990
 1184POPC   NC314329  14.400  24.357  15.043 -0.1827 -0.0356 -0.1287
 1184POPC   PO414330  14.678  24.274  15.259 -0.0664  0.2318 -0.0817
 1184POPC   GL114331  14.730  24.475  15.560 -0.1796 -0.3132  0.3261
 1184POPC   GL214332  14.824  24.319  15.791  0.1450  0.1604 -0.0440
 1184POPC   C1A14333  14.475  24.735  15.828 -0.1722 -0.2271  0.0397
 1184POPC   D2A14334  14.149  24.975  16.074 -0.0711  0.1315 -0.0362
 1184POPC   C3A14335  14.200  24.975  16.488 -0.3767 -0.0565  0.0841
 1184POPC   C4A14336  14.380  24.957  16.900  0.0119 -0.3371  0.0735
 1184POPC   C1B14337  14.956  24.352  16.270  0.1183  0.2204  0.2587
 1184POPC   C2B14338  14.938  24.374  16.772 -0.0344  0.1809 -0.1441
 1184POPC   C3B14339  14.793  24.254  17.251  0.1317  0.1572 -0.2030
 1184POPC   C4B14340  14.839  23.883  17.515  0.3256  0.1530  0.2608
 1185POPC   NC314341   3.384  23.320  15.351 -0.1204 -0.0849  0.0312
 1185POPC   PO414342   3.307  22.951  15.389 -0.0064 -0.3329  0.0149
 1185POPC   GL114343   3.371  23.068  15.734 -0.0635  0.3370  0.1922
 1185POPC   GL214344   3.555  23.130  15.919  0.0881 -0.1505  0.0187
 1185POPC   C1A14345   3.194  23.239  16.152 -0.0597  0.0889  0.2549
 1185POPC   D2A14346   2.997  23.458  16.554 -0.1497 -0.2555 -0.0336
 1185POPC   C3A14347   2.958  23.157  16.949  0.3767  0.2509  0.0974
 1185POPC   C4A14348   2.685  22.767  16.969 -0.2918  0.1214  0.0469
 1185POPC   C1B14349   3.690  23.131  16.379 -0.1699  0.0461  0.2823
 1185POPC   C2B14350   3.768  23.236  16.801  0.0724 -0.1053 -0.1506
 1185POPC   C3B14351   3.942  23.511  17.193 -0.0144 -0.2312 -0.0101
 1185POPC   C4B14352   3.702  23.411  17.596  0.1477  0.0534 -0.1518
 1186POPC   NC314353   0.104   2.564  15.141 -0.2128  0.3426  0.0885
 1186POPC   PO414354  -0.226   2.754  15.251  0.0477  0.1711  0.0795
 1186POPC   GL114355  -0.190   2.610  15.560 -0.0895 -0.1912 -0.0321
 1186POPC   GL214356  -0.294   2.359  15.649  0.0871 -0.0882 -0.1309
 1186POPC   C1A14357  -0.117   2.736  16.030 -0.0673  0.2366 -0.0113
 1186POPC   D2A14358   0.142   2.687  16.405 -0.1221 -0.2231 -0.1518
 1186POPC   C3A14359   0.174   2.767  16.858  0.0614  0.1542 -0.2593
 1186POPC   C4A14360   0.145   2.642  17.296  0.2513  0.0877  0.1015
 1186POPC   C1B14361  -0.273   1.939  15.840  0.0629 -0.0366  0.1057
 1186POPC   C2B14362  -0.315   1.925  16.318  0.0436  0.2642  0.1262
 1186POPC   C3B14363  -0.299   1.956  16.789  0.2273  0.2728 -0.0584
 1186POPC   C4B14364  -0.412   1.634  17.141 -0.1915 -0.2544 -0.0078
 1187POPC   NC314365   3.757  23.881  15.726 -0.2136  0.1578  0.1311
 1187POPC   PO414366   3.501  23.778  15.457  0.2467 -0.1106 -0.1224
 1187POPC   GL114367   3.427  23.524  15.754  0.4566  0.0647  0.1231
 1187POPC   GL214368   3.137  23.656  15.839 -0.0749  0.0713  0.0079
 1187POPC   C1A14369   3.574  23.560  16.210 -0.1285 -0.0786  0.2764
 1187POPC   D2A14370   3.662  23.704  16.616  0.2635 -0.0849  0.2290
 1187POPC   C3A14371   3.317  23.515  16.945 -0.2961 -0.1101  0.1148
 1187POPC   C4A14372   2.954  23.624  17.195  0.1433 -0.0093 -0.0439
 1187POPC   C1B14373   2.752  23.748  16.135 -0.1263 -0.2860 -0.2805
 1187POPC   C2B14374   2.539  24.067  16.423 -0.2222  0.3027  0.3617
 1187POPC   C3B14375   2.291  24.125  16.782  0.0328  0.0640 -0.2566
 1187POPC   C4B14376   1.823  24.100  16.889 -0.2417 -0.1873  0.0410
 1188POPC   NC314377   8.695  24.028  15.357 -0.0064  0.3679 -0.1124
 1188POPC   PO414378   8.791  24.354  15.119 -0.1284  0.1943  0.0067
 1188POPC   GL114379   8.750  24.535  15.441  0.3818  0.0066 -0.2123
 1188POPC   GL214380   9.022  24.699  15.406 -0.2215 -0.0078 -0.3392
 1188POPC   C1A14381   8.734  24.422  15.921 -0.1178  0.0629 -0.1163
 1188POPC   D2A14382   8.619  24.503  16.354 -0.0925  0.3502  0.1242
 1188POPC   C3A14383   8.318  24.732  16.570 -0.0476 -0.0575  0.1550
 1188POPC   C4A14384   8.208  24.946  16.992 -0.0152 -0.1339 -0.2105
 1188POPC   C1B14385   8.833  24.879  15.729  0.1651  0.0574  0.0264
 1188POPC   C2B14386   8.908  25.227  16.072 -0.3145  0.1477  0.2641
 1188POPC   C3B14387   8.713  25.514  16.362 -0.0480  0.0265 -0.1355
 1188POPC   C4B14388   8.713  25.802  16.694  0.0168 -0.0677  0.0677
 1189POPC   NC314389   5.060  28.251  15.896 -0.0638 -0.1366  0.2125
 1189POPC   PO414390   4.890  28.398  15.621  0.1734 -0.0019 -0.0117
 1189POPC   GL114391   4.902  28.678  15.941 -0.0033 -0.1941  0.2105
 1189POPC   GL214392   5.189  28.748  15.975  0.2560  0.1834 -0.0484
 1189POPC   C1A14393   4.789  28.582  16.356 -0.0563 -0.0720  0.1823
 1189POPC   D2A14394   4.859  28.570  16.812  0.0363 -0.3107 -0.0583
 1189POPC   C3A14395   4.719  28.246  17.069  0.2101  0.0296  0.0063
 1189POPC   C4A14396   4.467  28.008  17.480 -0.2477 -0.2371  0.1470
 1189POPC   C1B14397   5.340  28.847  16.421  0.2645  0.0082 -0.3527
 1189POPC   C2B14398   5.589  29.084  16.739 -0.0328 -0.1569  0.1563
 1189POPC   C3B14399   5.782  29.325  17.108 -0.0437  0.2262 -0.1590
 1189POPC   C4B14400   6.186  29.534  17.256 -0.1942  0.4707  0.2914
 1190POPC   NC314401   1.700  22.040  15.493  0.0554 -0.0426 -0.3225
 1190POPC   PO414402   1.788  21.685  15.350  0.0117  0.1971  0.4920
 1190POPC   GL114403   1.822  21.578  15.680  0.0641  0.2733 -0.3440
 1190POPC   GL214404   1.966  21.821  15.835 -0.2604 -0.0914  0.2755
 1190POPC   C1A14405   1.799  21.238  15.981 -0.0349  0.1240  0.3452
 1190POPC   D2A14406   2.078  20.926  16.197  0.0210  0.0164 -0.1110
 1190POPC   C3A14407   2.069  20.916  16.646  0.0115  0.0522  0.0866
 1190POPC   C4A14408   2.196  20.816  17.065  0.0672 -0.1992  0.1159
 1190POPC   C1B14409   1.691  21.655  16.203  0.0894  0.2711 -0.0064
 1190POPC   C2B14410   1.744  21.306  16.523  0.1379  0.0997  0.3269
 1190POPC   C3B14411   1.800  21.191  16.971  0.1434 -0.5979 -0.0361
 1190POPC   C4B14412   1.815  21.186  17.387 -0.0726  0.2095 -0.0286
 1191POPC   NC314413  12.836  30.786  15.055  0.0458  0.0518 -0.2505
 1191POPC   PO414414  12.899  30.417  15.072  0.1074 -0.1733  0.1590
 1191POPC   GL114415  12.822  30.490  15.478 -0.1088  0.0925 -0.1415
 1191POPC   GL214416  13.034  30.671  15.613  0.0218 -0.0980 -0.0735
 1191POPC   C1A14417  12.910  30.330  15.924 -0.3162  0.1274  0.2107
 1191POPC   D2A14418  13.114  30.520  16.355 -0.3135  0.0485  0.2417
 1191POPC   C3A14419  13.505  30.680  16.440  0.3120  0.0724 -0.2474
 1191POPC   C4A14420  13.799  30.894  16.787  0.3051  0.2366  0.1286
 1191POPC   C1B14421  13.361  30.993  15.468 -0.2645  0.0620  0.0047
 1191POPC   C2B14422  13.811  30.974  15.511  0.4999  0.4756  0.0617
 1191POPC   C3B14423  14.241  30.959  15.447 -0.3416 -0.1084 -0.3748
 1191POPC   C4B14424  14.686  31.010  15.406 -0.0185 -0.1863  0.0983
 1192POPC   NC314425   3.945   7.175  15.518  0.2715  0.0750  0.0046
 1192POPC   PO414426   3.899   7.545  15.412  0.3213  0.2953 -0.0982
 1192POPC   GL114427   3.631   7.451  15.752 -0.1794  0.3008  0.2889
 1192POPC   GL214428   3.813   7.613  15.897  0.0148  0.1622 -0.1006
 1192POPC   C1A14429   3.447   7.477  16.206  0.2489  0.1436 -0.1350
 1192POPC   D2A14430   3.331   7.529  16.679  0.1670 -0.3030 -0.0206
 1192POPC   C3A14431   3.509   7.811  16.975  0.1270  0.0653  0.0605
 1192POPC   C4A14432   3.627   8.236  17.179  0.1248 -0.1764 -0.1595
 1192POPC   C1B14433   4.005   7.450  16.266  0.2034 -0.1146 -0.2648
 1192POPC   C2B14434   3.891   7.277  16.661 -0.1695  0.0548  0.0519
 1192POPC   C3B14435   3.919   6.915  17.001  0.0790 -0.1364 -0.0718
 1192POPC   C4B14436   3.819   6.537  17.192 -0.0493  0.1384 -0.0936
 1193POPC   NC314437   7.919  18.376  15.361 -0.0944 -0.1294  0.0824
 1193POPC   PO414438   7.616  18.141  15.306  0.1448 -0.4775 -0.1875
 1193POPC   GL114439   7.494  18.314  15.673  0.2357  0.2654  0.1145
 1193POPC   GL214440   7.632  18.231  15.911 -0.0378  0.2621 -0.1557
 1193POPC   C1A14441   7.364  18.699  15.871 -0.1150 -0.2692  0.0375
 1193POPC   D2A14442   7.394  19.042  16.152 -0.1338 -0.0759  0.0338
 1193POPC   C3A14443   7.093  19.324  16.375  0.1540 -0.1521 -0.1091
 1193POPC   C4A14444   7.245  19.510  16.818  0.0342 -0.1112 -0.1310
 1193POPC   C1B14445   7.366  18.330  16.294  0.0405  0.3423  0.0499
 1193POPC   C2B14446   7.158  18.323  16.679 -0.0735 -0.0870 -0.1670
 1193POPC   C3B14447   7.257  18.099  17.080  0.2440 -0.1527 -0.2845
 1193POPC   C4B14448   6.892  18.109  17.358  0.0271 -0.0608  0.3594
 1194POPC   NC314449   0.569  20.844  14.826  0.1154 -0.0362  0.0135
 1194POPC   PO414450   0.823  20.642  15.010 -0.0091  0.1001 -0.1280
 1194POPC   GL114451   1.135  20.591  15.355  0.2963  0.0739  0.2015
 1194POPC   GL214452   1.422  20.502  15.362 -0.0954 -0.2649 -0.0481
 1194POPC   C1A14453   1.170  20.804  15.760 -0.1733  0.1666  0.0493
 1194POPC   D2A14454   1.313  21.157  15.992  0.0310  0.0612 -0.0211
 1194POPC   C3A14455   1.245  21.220  16.426 -0.1458 -0.4355 -0.2093
 1194POPC   C4A14456   1.332  21.147  16.897  0.0115 -0.0960  0.0968
 1194POPC   C1B14457   1.431  20.418  15.776 -0.1089  0.2423 -0.2024
 1194POPC   C2B14458   1.304  20.308  16.240  0.2332  0.1998  0.1324
 1194POPC   C3B14459   1.419  20.371  16.650 -0.0384  0.0372 -0.1935
 1194POPC   C4B14460   1.278  20.412  17.117  0.2260 -0.0351  0.1657
 1195POPC   NC314461  11.308  11.745  15.379 -0.1488  0.2339 -0.1971
 1195POPC   PO414462  11.454  11.949  15.121 -0.2183  0.0234  0.1096
 1195POPC   GL114463  11.583  12.241  15.460  0.2162 -0.2884 -0.1540
 1195POPC   GL214464  11.803  12.083  15.660  0.2223  0.2548 -0.1887
 1195POPC   C1A14465  11.429  12.335  15.910 -0.0090 -0.0215 -0.1168
 1195POPC   D2A14466  10.987  12.347  16.051  0.0731 -0.1683  0.1557
 1195POPC   C3A14467  10.527  12.446  16.163  0.1058  0.0226  0.1035
 1195POPC   C4A14468  10.336  12.498  16.577  0.1957  0.1487  0.0875
 1195POPC   C1B14469  11.852  12.087  16.130 -0.1581  0.2664 -0.0832
 1195POPC   C2B14470  12.006  12.350  16.439 -0.1573 -0.1036  0.1470
 1195POPC   C3B14471  11.814  12.478  16.854  0.1772 -0.2662 -0.0252
 1195POPC   C4B14472  11.677  12.893  17.105  0.0951  0.2091 -0.2205
 1196POPC   NC314473   2.023  16.929  14.953 -0.1558  0.1443  0.0729
 1196POPC   PO414474   1.746  16.906  15.217 -0.0772  0.1675 -0.0234
 1196POPC   GL114475   1.467  16.817  15.618 -0.3027 -0.2955  0.0050
 1196POPC   GL214476   1.497  16.643  15.894  0.1946 -0.1136  0.4144
 1196POPC   C1A14477   1.390  17.119  15.973 -0.0065  0.0868  0.1633
 1196POPC   D2A14478   1.192  17.178  16.400 -0.0682 -0.0304 -0.2488
 1196POPC   C3A14479   1.231  17.488  16.694 -0.1457  0.0358 -0.0370
 1196POPC   C4A14480   1.271  17.941  16.663 -0.1153 -0.2774 -0.2973
 1196POPC   C1B14481   1.440  16.735  16.345 -0.0603  0.2186 -0.0914
 1196POPC   C2B14482   1.366  16.861  16.802  0.3115 -0.1095 -0.0985
 1196POPC   C3B14483   1.243  17.157  17.181  0.1113  0.0434 -0.0459
 1196POPC   C4B14484   0.978  17.542  17.097  0.0704  0.1877 -0.0724
 1197POPC   NC314485   5.459  12.738  15.780 -0.0729  0.1158  0.0370
 1197POPC   PO414486   5.179  12.758  15.540  0.0566 -0.0326  0.1334
 1197POPC   GL114487   4.931  12.963  15.716  0.1475 -0.3562  0.2746
 1197POPC   GL214488   4.693  13.114  15.706  0.0299 -0.0501  0.1319
 1197POPC   C1A14489   4.789  12.924  16.136 -0.0679  0.0482  0.0645
 1197POPC   D2A14490   4.791  12.971  16.590 -0.1421 -0.0512 -0.1704
 1197POPC   C3A14491   4.800  13.264  16.923  0.3860  0.0829  0.2249
 1197POPC   C4A14492   4.593  13.561  17.226 -0.4051  0.0341 -0.0045
 1197POPC   C1B14493   4.718  13.499  15.879  0.1369 -0.0029 -0.2388
 1197POPC   C2B14494   4.691  13.466  16.379  0.0592 -0.0326  0.0770
 1197POPC   C3B14495   4.611  13.693  16.729 -0.1966  0.2207  0.1293
 1197POPC   C4B14496   4.308  13.894  17.040 -0.0642 -0.3511 -0.2378
 1198POPC   NC314497   9.810  21.624  15.431 -0.0136  0.4208  0.1663
 1198POPC   PO414498   9.613  21.313  15.513  0.2482  0.0325 -0.1788
 1198POPC   GL114499   9.746  21.055  15.733  0.3558 -0.3341 -0.2053
 1198POPC   GL214500   9.588  20.816  15.845 -0.1250  0.1468  0.0171
 1198POPC   C1A14501  10.020  20.813  16.096  0.1890  0.3684  0.0410
 1198POPC   D2A14502  10.279  20.538  16.385  0.0594  0.2066  0.0332
 1198POPC   C3A14503  10.372  20.765  16.740 -0.0485  0.0803 -0.1088
 1198POPC   C4A14504  10.345  20.725  17.202 -0.0949  0.2356  0.0278
 1198POPC   C1B14505   9.614  20.945  16.302  0.0730  0.0821 -0.3469
 1198POPC   C2B14506   9.550  21.105  16.703  0.0324 -0.1759 -0.5157
 1198POPC   C3B14507   9.694  21.293  17.091 -0.3028  0.0435  0.0310
 1198POPC   C4B14508   9.923  21.450  17.483  0.0893  0.0751 -0.2804
 1199POPC   NC314509  13.979   1.146  14.674  0.1972 -0.1165  0.1345
 1199POPC   PO414510  13.654   1.147  14.932 -0.0412  0.0220 -0.0962
 1199POPC   GL114511  13.545   0.979  15.151 -0.2958 -0.0014  0.0336
 1199POPC   GL214512  13.601   0.705  15.197 -0.1249  0.0161  0.0541
 1199POPC   C1A14513  13.281   0.883  15.558 -0.1430 -0.0228 -0.1929
 1199POPC   D2A14514  13.377   0.561  15.822  0.3569  0.2246 -0.0472
 1199POPC   C3A14515  13.452   0.107  15.811  0.1710  0.2305 -0.0060
 1199POPC   C4A14516  13.863  -0.069  15.973  0.0521  0.1276  0.0040
 1199POPC   C1B14517  13.747   0.332  15.447 -0.0628 -0.2445 -0.0810
 1199POPC   C2B14518  14.017  -0.018  15.495 -0.1918  0.0172 -0.1072
 1199POPC   C3B14519  14.166  -0.418  15.752 -0.1465 -0.1959  0.0880
 1199POPC   C4B14520  14.208  -0.828  15.960  0.0599  0.0608 -0.0023
 1200POPC   NC314521   2.944  31.219  14.667  0.2485 -0.0111  0.1619
 1200POPC   PO414522   2.643  31.016  14.854 -0.1751 -0.0573  0.0690
 1200POPC   GL114523   2.719  31.252  15.239 -0.1082 -0.1307  0.3553
 1200POPC   GL214524   2.694  30.995  15.422  0.0947  0.1101  0.1544
 1200POPC   C1A14525   2.990  31.282  15.649 -0.0603  0.1368  0.2619
 1200POPC   D2A14526   3.131  31.510  16.001  0.2384 -0.0215 -0.0714
 1200POPC   C3A14527   3.275  31.223  16.415  0.1181  0.2456  0.0004
 1200POPC   C4A14528   3.463  31.018  16.810 -0.2211 -0.2360  0.0142
 1200POPC   C1B14529   2.700  30.970  15.881  0.1246  0.1843  0.2625
 1200POPC   C2B14530   2.835  31.166  16.295 -0.3072 -0.1884 -0.0906
 1200POPC   C3B14531   2.819  31.504  16.649 -0.0504  0.1849 -0.1715
 1200POPC   C4B14532   2.815  31.917  16.882  0.0891 -0.1546 -0.0276
 1201POPC   NC314533   1.230  30.542  14.942 -0.0682  0.0563 -0.2354
 1201POPC   PO414534   1.536  30.319  15.003  0.1992  0.0155 -0.0896
 1201POPC   GL114535   1.549  30.236  15.406 -0.0231  0.1922 -0.0510
 1201POPC   GL214536   1.341  30.488  15.520  0.0359  0.1247  0.2529
 1201POPC   C1A14537   1.635  30.017  15.823  0.1735  0.2182 -0.2812
 1201POPC   D2A14538   1.990  29.985  16.099 -0.2673 -0.2652  0.1408
 1201POPC   C3A14539   2.060  30.262  16.466  0.0769 -0.3016  0.0882
 1201POPC   C4A14540   2.137  30.607  16.731  0.1231 -0.1006 -0.2503
 1201POPC   C1B14541   1.122  30.743  15.877  0.1070 -0.0373 -0.0252
 1201POPC   C2B14542   1.165  30.739  16.355  0.0310  0.3070 -0.0500
 1201POPC   C3B14543   1.062  30.694  16.816  0.2154  0.1407  0.2463
 1201POPC   C4B14544   0.852  30.640  17.217  0.3551  0.1181 -0.1009
 1202POPC   NC314545  12.336  20.740  15.325 -0.1284  0.0152 -0.1131
 1202POPC   PO414546  12.203  21.099  15.316 -0.1929  0.1031 -0.1918
 1202POPC   GL114547  12.242  21.084  15.756  0.0501 -0.3003  0.1057
 1202POPC   GL214548  12.380  20.924  15.824  0.2151 -0.2928 -0.0325
 1202POPC   C1A14549  11.953  21.307  16.075 -0.2759  0.1055 -0.1686
 1202POPC   D2A14550  11.603  21.182  16.376 -0.1584 -0.1839 -0.1175
 1202POPC   C3A14551  11.627  21.234  16.823  0.0696 -0.2958  0.2515
 1202POPC   C4A14552  11.586  21.269  17.238 -0.0789  0.1439  0.0844
 1202POPC   C1B14553  12.384  21.113  16.218 -0.2415 -0.1670 -0.5320
 1202POPC   C2B14554  12.612  21.333  16.586 -0.2343 -0.2820 -0.2134
 1202POPC   C3B14555  12.424  21.732  16.704  0.0121 -0.2624 -0.1749
 1202POPC   C4B14556  12.692  22.166  16.873  0.4703 -0.0523  0.0642
 1203POPC   NC314557   4.623   1.447  14.977 -0.1781 -0.0206  0.0600
 1203POPC   PO414558   4.676   1.094  14.808  0.1486  0.2260  0.0534
 1203POPC   GL114559   4.785   0.811  15.044  0.3010 -0.1591  0.0846
 1203POPC   GL214560   4.623   0.584  14.861  0.2539  0.0227 -0.3070
 1203POPC   C1A14561   4.976   0.703  15.490 -0.1720 -0.0492  0.2423
 1203POPC   D2A14562   5.057   0.575  15.952 -0.0160  0.0800  0.2003
 1203POPC   C3A14563   4.778   0.516  16.325 -0.1937 -0.1436  0.1476
 1203POPC   C4A14564   4.852   0.675  16.729 -0.3209 -0.0528  0.0404
 1203POPC   C1B14565   4.807   0.332  15.240  0.0822 -0.0025  0.3381
 1203POPC   C2B14566   4.737   0.148  15.648  0.0225  0.1778  0.0430
 1203POPC   C3B14567   4.606  -0.100  16.029  0.1388 -0.1787  0.1074
 1203POPC   C4B14568   4.715  -0.317  16.472  0.1479 -0.1050  0.1321
 1204POPC   NC314569  10.268   2.647  15.153 -0.2248 -0.2304 -0.0297
 1204POPC   PO414570  10.596   2.881  15.165 -0.0285 -0.1795 -0.4967
 1204POPC   GL114571  10.594   2.824  15.562 -0.1677 -0.0110 -0.2600
 1204POPC   GL214572  10.295   2.848  15.628 -0.4248 -0.3267  0.0245
 1204POPC   C1A14573  10.879   2.947  15.934 -0.1572 -0.0867  0.1403
 1204POPC   D2A14574  11.014   3.195  16.292 -0.0090  0.2576 -0.0246
 1204POPC   C3A14575  10.896   3.255  16.734 -0.0214  0.4006  0.1136
 1204POPC   C4A14576  10.922   3.177  17.154  0.0139 -0.1662 -0.0377
 1204POPC   C1B14577  10.296   2.883  16.113 -0.0784  0.1785  0.1947
 1204POPC   C2B14578  10.640   2.859  16.437 -0.2721 -0.2873  0.0833
 1204POPC   C3B14579  10.613   2.824  16.926  0.2179  0.1363  0.0896
 1204POPC   C4B14580  10.385   2.864  17.366 -0.2721  0.2299  0.0559
 1205POPC   NC314581  14.069  14.715  15.082  0.0025  0.1690  0.1062
 1205POPC   PO414582  14.119  14.400  15.304 -0.1237 -0.1150 -0.2314
 1205POPC   GL114583  14.237  14.281  15.623 -0.1253  0.1621 -0.3505
 1205POPC   GL214584  14.022  14.424  15.797 -0.1514 -0.2946  0.0763
 1205POPC   C1A14585  14.720  14.203  15.685 -0.0185  0.0688  0.1336
 1205POPC   D2A14586  15.042  14.404  15.931 -0.0251  0.4857  0.1831
 1205POPC   C3A14587  15.207  14.223  16.384 -0.0839 -0.2439  0.0787
 1205POPC   C4A14588  15.429  14.433  16.704  0.0278  0.4336 -0.0898
 1205POPC   C1B14589  14.311  14.547  16.166 -0.1311 -0.1152 -0.3222
 1205POPC   C2B14590  14.234  14.608  16.578  0.0947 -0.1615 -0.1850
 1205POPC   C3B14591  14.096  14.639  17.027  0.0951  0.3893 -0.2693
 1205POPC   C4B14592  13.855  15.002  17.195  0.2136 -0.1615 -0.3519
 1206POPC   NC314593   3.127  22.029  15.609  0.2643 -0.0809 -0.1583
 1206POPC   PO414594   2.845  21.867  15.401  0.0283  0.0047 -0.2550
 1206POPC   GL114595   2.662  21.920  15.685 -0.0883  0.2748 -0.1002
 1206POPC   GL214596   2.524  21.770  15.842  0.0485 -0.5907 -0.1858
 1206POPC   C1A14597   2.961  21.939  16.033  0.3974  0.2408 -0.0980
 1206POPC   D2A14598   3.276  22.235  16.116  0.3965  0.0830 -0.1165
 1206POPC   C3A14599   3.435  22.287  16.529  0.1564  0.0864 -0.0015
 1206POPC   C4A14600   3.469  22.323  16.940 -0.0055 -0.0031  0.1722
 1206POPC   C1B14601   2.638  21.620  16.282 -0.0568 -0.1501  0.0234
 1206POPC   C2B14602   2.793  21.468  16.704  0.0323  0.0506 -0.2049
 1206POPC   C3B14603   2.781  21.402  17.168  0.0453 -0.1983 -0.4327
 1206POPC   C4B14604   2.951  21.109  17.512 -0.0522  0.2530  0.1367
 1207POPC   NC314605  12.035  23.785  15.495  0.3523  0.1022  0.1044
 1207POPC   PO414606  12.068  24.177  15.455  0.1082  0.0968 -0.2280
 1207POPC   GL114607  11.717  24.103  15.660 -0.0358 -0.4272  0.1748
 1207POPC   GL214608  11.503  24.163  15.522 -0.3309  0.0402 -0.0467
 1207POPC   C1A14609  11.841  23.908  16.068  0.0415  0.0518  0.1736
 1207POPC   D2A14610  12.155  23.971  16.398  0.1010  0.0963  0.1010
 1207POPC   C3A14611  12.565  24.167  16.487 -0.2414  0.1391 -0.0328
 1207POPC   C4A14612  12.719  24.233  16.904  0.1302  0.1789 -0.0145
 1207POPC   C1B14613  11.336  24.308  15.922 -0.0816  0.0196  0.0251
 1207POPC   C2B14614  11.136  24.190  16.362  0.1758  0.1103 -0.0802
 1207POPC   C3B14615  11.250  24.025  16.774 -0.1027  0.2159  0.3025
 1207POPC   C4B14616  11.324  23.650  17.061 -0.3919 -0.0422  0.2378
 1208POPC   NC314617  10.560   7.792  15.003 -0.0632 -0.2192  0.1910
 1208POPC   PO414618  10.925   7.997  14.931  0.0570 -0.1955 -0.1756
 1208POPC   GL114619  11.070   7.825  15.354  0.2416  0.0393  0.2237
 1208POPC   GL214620  10.952   7.591  15.473  0.0467  0.0953  0.1394
 1208POPC   C1A14621  11.218   7.962  15.826  0.0807 -0.0454 -0.1477
 1208POPC   D2A14622  11.196   8.206  16.204 -0.2641  0.1416  0.3229
 1208POPC   C3A14623  11.393   8.580  16.422 -0.1620  0.0853  0.3621
 1208POPC   C4A14624  11.201   8.781  16.725 -0.0661  0.2154 -0.1030
 1208POPC   C1B14625  11.185   7.487  15.910  0.0925 -0.0734 -0.1327
 1208POPC   C2B14626  11.081   7.705  16.309  0.0240 -0.1222 -0.1943
 1208POPC   C3B14627  11.046   7.746  16.732 -0.1557 -0.1274  0.0914
 1208POPC   C4B14628  11.143   7.659  17.163 -0.2573  0.0939 -0.0190
 1209POPC   NC314629   9.982  12.139  15.202 -0.3320  0.0143 -0.0970
 1209POPC   PO414630   9.951  11.826  15.476  0.3107 -0.0926  0.0376
 1209POPC   GL114631   9.966  11.882  15.878 -0.5326  0.2598  0.1273
 1209POPC   GL214632  10.251  11.998  15.852 -0.0429 -0.0839  0.0448
 1209POPC   C1A14633   9.632  11.993  16.193  0.1620 -0.1019 -0.0033
 1209POPC   D2A14634   9.221  11.984  16.460 -0.1002 -0.2038  0.1895
 1209POPC   C3A14635   8.921  12.194  16.802  0.0790  0.1392  0.1324
 1209POPC   C4A14636   9.028  12.280  17.242  0.2130 -0.1450  0.3396
 1209POPC   C1B14637  10.150  11.935  16.316  0.0806  0.1645  0.3879
 1209POPC   C2B14638  10.003  12.015  16.736  0.1393  0.1588  0.1026
 1209POPC   C3B14639   9.810  12.015  17.173 -0.2106  0.0021  0.2442
 1209POPC   C4B14640   9.532  12.301  17.397 -0.0305 -0.0881 -0.0598
 1210POPC   NC314641   7.337  21.372  15.057 -0.0770 -0.2793 -0.0613
 1210POPC   PO414642   7.547  21.417  15.323  0.1181 -0.2357  0.0294
 1210POPC   GL114643   7.242  21.460  15.581 -0.1930  0.0564 -0.1501
 1210POPC   GL214644   6.994  21.457  15.460 -0.2470 -0.0964  0.0039
 1210POPC   C1A14645   7.340  21.566  16.014  0.1592  0.1693  0.0452
 1210POPC   D2A14646   7.386  21.459  16.496 -0.1575 -0.2849  0.1690
 1210POPC   C3A14647   7.441  21.815  16.782  0.2151  0.0730  0.3255
 1210POPC   C4A14648   7.079  22.105  16.853 -0.1754 -0.1915  0.0404
 1210POPC   C1B14649   6.671  21.312  15.735 -0.0455  0.0724 -0.2260
 1210POPC   C2B14650   6.589  20.982  16.016 -0.1541 -0.2807 -0.1512
 1210POPC   C3B14651   6.440  20.734  16.360 -0.1192  0.2304  0.0294
 1210POPC   C4B14652   6.201  20.653  16.675  0.0212 -0.0521  0.0050
 1211POPC   NC314653   8.301  14.750  15.824  0.4288 -0.0041 -0.2465
 1211POPC   PO414654   8.417  14.546  15.510  0.1803 -0.0055 -0.0346
 1211POPC   GL114655   8.411  14.317  15.753  0.0389 -0.0666  0.3452
 1211POPC   GL214656   8.644  14.299  15.898 -0.2609 -0.1066 -0.2137
 1211POPC   C1A14657   8.084  14.381  16.079 -0.2010 -0.2250 -0.0764
 1211POPC   D2A14658   7.784  14.554  16.359  0.1182 -0.0699 -0.0903
 1211POPC   C3A14659   7.606  14.364  16.721 -0.1666 -0.3610  0.1154
 1211POPC   C4A14660   7.505  14.228  17.102 -0.2270  0.0919  0.3104
 1211POPC   C1B14661   8.758  14.515  16.299 -0.0025 -0.0199  0.0775
 1211POPC   C2B14662   8.710  14.773  16.683  0.3961 -0.1248 -0.1127
 1211POPC   C3B14663   8.469  14.770  17.062  0.0943 -0.0496  0.0929
 1211POPC   C4B14664   8.316  14.780  17.478  0.3789 -0.3508 -0.1197
 1212POPC   NC314665  13.647  18.129  15.041  0.2016 -0.2042 -0.0290
 1212POPC   PO414666  13.301  17.970  14.934 -0.0221  0.0789 -0.0380
 1212POPC   GL114667  13.281  17.843  15.237 -0.1586  0.1556  0.2746
 1212POPC   GL214668  12.973  17.778  15.323  0.0754 -0.0297 -0.2021
 1212POPC   C1A14669  13.642  17.704  15.518  0.0199 -0.0254 -0.1257
 1212POPC   D2A14670  13.900  17.870  15.860 -0.2174  0.4778  0.1435
 1212POPC   C3A14671  14.013  18.003  16.262 -0.0904 -0.0060  0.0769
 1212POPC   C4A14672  13.864  18.180  16.626 -0.1381  0.0469 -0.1828
 1212POPC   C1B14673  13.019  17.791  15.807  0.1181 -0.0435  0.0316
 1212POPC   C2B14674  12.991  17.653  16.283  0.0644 -0.1072  0.2673
 1212POPC   C3B14675  12.946  17.763  16.727 -0.1900  0.3494  0.1064
 1212POPC   C4B14676  13.056  17.832  17.214  0.1584  0.0544 -0.1503
 1213POPC   NC314677  10.553  21.346  15.540 -0.4275  0.3061 -0.0479
 1213POPC   PO414678  10.919  21.413  15.777 -0.1416 -0.2201 -0.1030
 1213POPC   GL114679  11.013  21.221  16.116 -0.1904  0.1407  0.4462
 1213POPC   GL214680  11.104  20.961  15.980  0.1903  0.0924  0.0114
 1213POPC   C1A14681  11.114  21.111  16.555  0.3142  0.0764  0.0964
 1213POPC   D2A14682  11.181  20.970  16.997 -0.2515 -0.3047 -0.0877
 1213POPC   C3A14683  11.525  20.734  17.087 -0.1305 -0.0719 -0.0286
 1213POPC   C4A14684  11.771  20.459  17.382  0.0994  0.0817  0.2285
 1213POPC   C1B14685  10.895  20.725  16.312 -0.0322 -0.2108 -0.1211
 1213POPC   C2B14686  10.850  20.630  16.763 -0.0209 -0.0177 -0.1776
 1213POPC   C3B14687  10.689  20.324  17.089 -0.2250  0.1450  0.1331
 1213POPC   C4B14688  10.451  20.294  17.526 -0.3731 -0.3128  0.0187
 1214POPC   NC314689   0.928  11.652  15.201  0.0927  0.3178 -0.0037
 1214POPC   PO414690   0.695  11.403  14.971  0.0417  0.1210 -0.0353
 1214POPC   GL114691   0.891  11.195  15.275 -0.0806  0.0045 -0.0249
 1214POPC   GL214692   0.861  10.906  15.260 -0.4633  0.1319  0.0674
 1214POPC   C1A14693   1.018  11.377  15.694 -0.2042  0.2992 -0.0120
 1214POPC   D2A14694   1.142  11.355  16.089 -0.1983 -0.1725  0.1257
 1214POPC   C3A14695   0.965  11.078  16.365 -0.1195  0.1185  0.2537
 1214POPC   C4A14696   1.085  10.883  16.721  0.1962  0.2554  0.0616
 1214POPC   C1B14697   0.624  10.999  15.636 -0.0022 -0.2063  0.1218
 1214POPC   C2B14698   0.561  11.243  16.071  0.1595 -0.0263  0.0416
 1214POPC   C3B14699   0.363  11.184  16.431 -0.0168 -0.1585 -0.0162
 1214POPC   C4B14700   0.290  11.356  16.855 -0.1046  0.1402 -0.0980
 1215POPC   NC314701   1.243   2.606  15.030  0.3118 -0.2049 -0.1871
 1215POPC   PO414702   1.033   2.813  15.276  0.1161  0.0564  0.0551
 1215POPC   GL114703   1.416   2.799  15.443 -0.0599 -0.0373  0.0638
 1215POPC   GL214704   1.435   3.038  15.610  0.0095  0.3144 -0.3040
 1215POPC   C1A14705   1.581   2.582  15.820  0.0144 -0.1298 -0.0134
 1215POPC   D2A14706   1.889   2.690  16.158 -0.0755 -0.1075 -0.0626
 1215POPC   C3A14707   1.593   2.693  16.572  0.0841 -0.1099 -0.1896
 1215POPC   C4A14708   1.274   2.854  16.872  0.0264 -0.0250 -0.1529
 1215POPC   C1B14709   1.504   3.065  16.042 -0.0652 -0.0343  0.1535
 1215POPC   C2B14710   1.505   3.185  16.519  0.0122  0.2240  0.2829
 1215POPC   C3B14711   1.665   3.216  16.944 -0.0985  0.1506  0.1107
 1215POPC   C4B14712   1.442   3.227  17.329  0.4595  0.1006  0.0770
 1216POPC   NC314713   5.316   1.316  14.549 -0.2027  0.0564 -0.0983
 1216POPC   PO414714   5.091   1.533  14.807  0.0195 -0.1401  0.1186
 1216POPC   GL114715   5.030   1.519  15.190  0.3388  0.0618 -0.1615
 1216POPC   GL214716   5.037   1.246  15.227  0.0435  0.0255 -0.2176
 1216POPC   C1A14717   4.706   1.546  15.526  0.1158 -0.0409 -0.2086
 1216POPC   D2A14718   4.448   1.814  15.815 -0.3753  0.0448  0.3104
 1216POPC   C3A14719   4.551   1.636  16.189 -0.3699 -0.0838  0.1412
 1216POPC   C4A14720   4.402   1.510  16.609  0.2829 -0.1968  0.3355
 1216POPC   C1B14721   4.933   1.144  15.680 -0.1447  0.1025 -0.0361
 1216POPC   C2B14722   4.906   1.103  16.134  0.0101 -0.0862 -0.1723
 1216POPC   C3B14723   4.774   1.167  16.575  0.0755 -0.0249  0.1912
 1216POPC   C4B14724   4.496   1.113  16.934 -0.0335 -0.2740 -0.0956
 1217POPC   NC314725  11.426   4.796  14.598 -0.3341  0.1002  0.0785
 1217POPC   PO414726  11.619   4.673  14.958  0.3901 -0.0834 -0.1303
 1217POPC   GL114727  11.506   4.795  15.425  0.0163 -0.1010  0.0835
 1217POPC   GL214728  11.663   4.602  15.465 -0.0818  0.2670 -0.0647
 1217POPC   C1A14729  11.325   4.993  15.807  0.2871  0.0305  0.2130
 1217POPC   D2A14730  10.916   5.117  16.004 -0.3557  0.1143  0.2842
 1217POPC   C3A14731  10.873   4.898  16.386 -0.2053 -0.1291 -0.2448
 1217POPC   C4A14732  10.827   4.479  16.584 -0.0534 -0.0531 -0.1534
 1217POPC   C1B14733  11.599   4.588  15.893 -0.0097 -0.1389  0.0612
 1217POPC   C2B14734  11.588   4.430  16.333 -0.0639  0.3428  0.1496
 1217POPC   C3B14735  11.424   4.537  16.774 -0.4215  0.1154  0.1345
 1217POPC   C4B14736  11.360   4.334  17.174 -0.2634 -0.1332 -0.2794
 1218POPC   NC314737  10.811   3.248  15.430 -0.2428  0.3578  0.0317
 1218POPC   PO414738  11.109   3.492  15.336  0.0405 -0.2971 -0.0678
 1218POPC   GL114739  10.989   3.593  15.683  0.2997 -0.3785  0.1963
 1218POPC   GL214740  10.917   3.860  15.755 -0.0461  0.0894 -0.1669
 1218POPC   C1A14741  11.280   3.577  16.002 -0.0021  0.1590 -0.1522
 1218POPC   D2A14742  11.525   3.213  16.206 -0.1254  0.3015 -0.0688
 1218POPC   C3A14743  11.259   2.850  16.485 -0.0195 -0.1816 -0.2124
 1218POPC   C4A14744  11.112   2.656  16.893 -0.1349 -0.1677  0.0687
 1218POPC   C1B14745  10.738   4.169  16.086 -0.2094  0.1564 -0.0835
 1218POPC   C2B14746  10.530   4.122  16.515  0.2226 -0.5435 -0.1515
 1218POPC   C3B14747  10.428   4.429  16.879  0.0980 -0.0643 -0.0984
 1218POPC   C4B14748  10.192   4.588  17.291 -0.1752 -0.0989 -0.0523
 1219POPC   NC314749  14.425   3.513  15.375 -0.0934 -0.0290  0.0207
 1219POPC   PO414750  14.582   3.896  15.333  0.2028 -0.2562  0.1128
 1219POPC   GL114751  14.420   4.046  15.607  0.0420  0.3272  0.0626
 1219POPC   GL214752  14.264   3.855  15.827 -0.2604  0.3115 -0.0922
 1219POPC   C1A14753  14.475   4.282  16.063  0.2462 -0.0193 -0.0678
 1219POPC   D2A14754  14.446   4.410  16.557 -0.0734 -0.1957  0.1432
 1219POPC   C3A14755  14.789   4.248  16.837  0.2514 -0.4123  0.0452
 1219POPC   C4A14756  14.955   4.086  17.264  0.0366  0.3452  0.3581
 1219POPC   C1B14757  14.232   3.894  16.275 -0.1501  0.1973 -0.0504
 1219POPC   C2B14758  14.283   3.930  16.724 -0.3930  0.1048 -0.1264
 1219POPC   C3B14759  14.378   4.036  17.205  0.0260 -0.1121  0.1912
 1219POPC   C4B14760  14.584   4.387  17.313 -0.1430  0.1841 -0.1349
 1220POPC   NC314761  11.915  12.683  14.853  0.0500 -0.1018  0.0763
 1220POPC   PO414762  12.174  12.883  15.087 -0.1487  0.1047  0.1140
 1220POPC   GL114763  12.248  12.872  15.401  0.3085  0.2196 -0.1026
 1220POPC   GL214764  12.502  12.822  15.469  0.0581  0.0237 -0.0014
 1220POPC   C1A14765  12.360  13.306  15.592  0.1574  0.0577  0.1990
 1220POPC   D2A14766  12.163  13.662  15.827  0.0602 -0.1972 -0.3611
 1220POPC   C3A14767  11.924  13.958  15.572 -0.0609 -0.0927 -0.1775
 1220POPC   C4A14768  11.905  14.293  15.254 -0.0612  0.2469  0.2436
 1220POPC   C1B14769  12.262  12.914  15.865  0.0733  0.2096  0.4484
 1220POPC   C2B14770  12.109  12.903  16.355  0.2373 -0.1225  0.2684
 1220POPC   C3B14771  12.326  12.775  16.723 -0.0840 -0.4390 -0.1268
 1220POPC   C4B14772  12.648  12.629  17.047 -0.0252 -0.2522  0.1840
 1221POPC   NC314773  10.250  26.020  15.178 -0.1243  0.1249 -0.2969
 1221POPC   PO414774  10.400  25.681  15.394 -0.0570  0.1015  0.1377
 1221POPC   GL114775  10.169  25.471  15.647 -0.1494  0.1089  0.0306
 1221POPC   GL214776  10.251  25.380  15.914 -0.0093 -0.2774 -0.1406
 1221POPC   C1A14777   9.828  25.662  15.902  0.2092 -0.0747 -0.0285
 1221POPC   D2A14778   9.434  25.392  16.014  0.0187 -0.1688  0.5164
 1221POPC   C3A14779   9.282  25.333  16.441  0.0939  0.1143  0.0038
 1221POPC   C4A14780   9.188  25.263  16.902  0.0056 -0.1379  0.4150
 1221POPC   C1B14781  10.394  25.223  16.304  0.4715 -0.0980  0.1059
 1221POPC   C2B14782  10.666  25.305  16.700 -0.0868  0.0902 -0.1090
 1221POPC   C3B14783  10.700  25.193  17.195 -0.0166 -0.2270 -0.1323
 1221POPC   C4B14784  10.498  24.968  17.551 -0.0069  0.1284  0.2832
 1222POPC   NC314785   5.987  26.716  15.317  0.0533 -0.1261 -0.0574
 1222POPC   PO414786   5.906  26.342  15.294 -0.0691  0.0591 -0.0702
 1222POPC   GL114787   6.017  26.244  15.775  0.1184 -0.0806  0.1040
 1222POPC   GL214788   6.226  26.066  15.797 -0.2505 -0.1048 -0.0428
 1222POPC   C1A14789   5.912  26.500  16.164  0.1166 -0.0002  0.1815
 1222POPC   D2A14790   5.800  26.694  16.536  0.0157 -0.1490  0.3333
 1222POPC   C3A14791   6.063  26.751  16.876  0.0129  0.1512 -0.1548
 1222POPC   C4A14792   6.192  26.925  17.250  0.0149  0.0092  0.1923
 1222POPC   C1B14793   6.019  26.018  16.262 -0.5344 -0.0140 -0.1564
 1222POPC   C2B14794   6.128  25.750  16.616 -0.1019  0.1376 -0.1869
 1222POPC   C3B14795   6.263  25.928  17.024  0.1909 -0.0414  0.1912
 1222POPC   C4B14796   6.193  26.127  17.410  0.0511  0.0080  0.2972
 1223POPC   NC314797   9.209  26.963  15.010  0.3971  0.0241  0.1583
 1223POPC   PO414798   9.142  26.952  14.588 -0.0228 -0.3292  0.0891
 1223POPC   GL114799   8.857  26.704  14.791  0.0300 -0.0022  0.1060
 1223POPC   GL214800   8.698  26.929  14.868 -0.0688  0.1284  0.3791
 1223POPC   C1A14801   8.506  26.360  14.798  0.3252  0.1090  0.1350
 1223POPC   D2A14802   8.020  26.393  14.813  0.0858  0.4063  0.2475
 1223POPC   C3A14803   7.725  25.983  14.871  0.2795 -0.0938 -0.6813
 1223POPC   C4A14804   7.601  25.538  15.017  0.0662 -0.0123 -0.0286
 1223POPC   C1B14805   8.787  27.028  15.287 -0.1797 -0.2446  0.2538
 1223POPC   C2B14806   8.967  26.934  15.676  0.1777 -0.1676 -0.5292
 1223POPC   C3B14807   9.145  26.866  16.122  0.1780  0.1183 -0.1106
 1223POPC   C4B14808   9.351  26.865  16.517 -0.1660  0.3421 -0.1221
 1224POPC   NC314809  15.721  23.581  14.695  0.2156 -0.4800 -0.1083
 1224POPC   PO414810  16.082  23.541  14.736  0.0088 -0.0665  0.1594
 1224POPC   GL114811  16.253  23.612  15.123 -0.2573 -0.1938 -0.1728
 1224POPC   GL214812  16.106  23.902  15.126  0.0124 -0.2226  0.2646
 1224POPC   C1A14813  16.309  23.739  15.604 -0.2928  0.3883 -0.0052
 1224POPC   D2A14814  16.704  24.010  15.648 -0.2088 -0.0234  0.1652
 1224POPC   C3A14815  16.672  24.302  16.045 -0.0569  0.0324  0.1730
 1224POPC   C4A14816  16.927  24.397  16.397  0.1180  0.1585  0.3898
 1224POPC   C1B14817  16.531  23.997  14.985 -0.1202 -0.0146  0.2238
 1224POPC   C2B14818  16.828  24.302  15.219 -0.0780 -0.1074 -0.0807
 1224POPC   C3B14819  16.666  24.597  15.526  0.0356 -0.1155  0.3756
 1224POPC   C4B14820  16.966  24.701  15.833 -0.2774 -0.0043 -0.1420
 1225POPC   NC314821  12.998   7.700  15.033  0.3034  0.1241  0.3219
 1225POPC   PO414822  13.116   8.000  15.248 -0.1942 -0.1008  0.1632
 1225POPC   GL114823  12.880   8.074  15.439  0.0009 -0.1634 -0.2234
 1225POPC   GL214824  12.871   8.341  15.560  0.3181  0.2218  0.0494
 1225POPC   C1A14825  12.769   7.970  15.917  0.1339  0.1981 -0.1773
 1225POPC   D2A14826  12.825   7.765  16.305 -0.2073 -0.4388  0.0044
 1225POPC   C3A14827  12.958   7.661  16.779  0.0460 -0.2440 -0.2539
 1225POPC   C4A14828  13.217   7.605  17.193  0.1829 -0.1290 -0.2286
 1225POPC   C1B14829  12.603   8.514  15.932 -0.3221 -0.0065 -0.1813
 1225POPC   C2B14830  12.544   8.507  16.348  0.0178  0.1933  0.0041
 1225POPC   C3B14831  12.353   8.456  16.800  0.0124  0.1023 -0.1950
 1225POPC   C4B14832  12.105   8.501  17.156 -0.1560  0.1483 -0.1967
 1226POPC   NC314833  13.742  12.487  15.382 -0.2126 -0.1459  0.2337
 1226POPC   PO414834  14.082  12.630  15.558  0.2590 -0.0599  0.1642
 1226POPC   GL114835  14.356  12.576  15.799 -0.1341 -0.2320  0.0670
 1226POPC   GL214836  14.510  12.759  15.734 -0.1363 -0.0341  0.1259
 1226POPC   C1A14837  14.403  12.540  16.285 -0.2954  0.0071 -0.2307
 1226POPC   D2A14838  14.563  12.637  16.774  0.0439  0.1956  0.1151
 1226POPC   C3A14839  14.595  12.296  17.082 -0.0235  0.0210  0.0323
 1226POPC   C4A14840  14.539  12.002  17.412  0.2510  0.0410 -0.1841
 1226POPC   C1B14841  14.827  12.821  16.022 -0.4702  0.3299  0.1370
 1226POPC   C2B14842  14.845  12.910  16.429  0.0987  0.0551  0.0906
 1226POPC   C3B14843  14.910  13.154  16.812 -0.1189  0.2084  0.1266
 1226POPC   C4B14844  14.937  13.440  17.160 -0.2432 -0.0825  0.0021
 1227POPC   NC314845   2.336  28.887  15.232  0.0534 -0.2293  0.0830
 1227POPC   PO414846   1.961  29.032  15.340  0.3334  0.3145  0.0916
 1227POPC   GL114847   2.026  28.995  15.648 -0.5343  0.0709 -0.1672
 1227POPC   GL214848   2.181  28.919  15.773  0.1597  0.0912  0.2910
 1227POPC   C1A14849   1.814  28.859  16.072 -0.2002  0.0591 -0.1787
 1227POPC   D2A14850   1.835  28.840  16.534  0.1269  0.2277  0.2035
 1227POPC   C3A14851   1.912  29.216  16.752  0.0253  0.0389  0.1158
 1227POPC   C4A14852   1.994  29.642  16.983  0.0498 -0.0506 -0.3842
 1227POPC   C1B14853   2.261  28.970  16.201  0.3212  0.0591 -0.1992
 1227POPC   C2B14854   2.315  28.935  16.686 -0.4843  0.3232 -0.1281
 1227POPC   C3B14855   2.051  28.744  17.064 -0.2855  0.3707  0.1166
 1227POPC   C4B14856   1.595  28.638  17.018 -0.1544  0.0062 -0.0908
 1228POPC   NC314857  12.268  25.944  15.603  0.3183 -0.1119 -0.2212
 1228POPC   PO414858  12.546  26.178  15.521  0.1478 -0.0100 -0.1481
 1228POPC   GL114859  12.592  26.264  15.869  0.3556  0.1149  0.0763
 1228POPC   GL214860  12.642  26.060  16.094  0.0838  0.3316  0.0785
 1228POPC   C1A14861  12.316  26.533  16.200  0.1035 -0.1057 -0.0787
 1228POPC   D2A14862  11.864  26.498  16.363 -0.3481 -0.4438 -0.1745
 1228POPC   C3A14863  11.876  26.353  16.801 -0.0562 -0.2366  0.1659
 1228POPC   C4A14864  11.673  26.171  17.186 -0.0839  0.0918  0.2017
 1228POPC   C1B14865  12.861  25.823  16.407 -0.1032  0.1962 -0.0445
 1228POPC   C2B14866  12.855  25.489  16.765  0.0810 -0.2285 -0.1035
 1228POPC   C3B14867  13.134  25.314  17.049  0.2999 -0.4582  0.2132
 1228POPC   C4B14868  13.143  25.039  17.402 -0.0810  0.1168 -0.1170
 1229POPC   NC314869   3.768  24.100  15.214 -0.0103 -0.4866  0.1180
 1229POPC   PO414870   3.439  24.263  15.178  0.0292  0.1572  0.1493
 1229POPC   GL114871   3.488  24.236  15.561  0.4707 -0.3995  0.2125
 1229POPC   GL214872   3.279  24.512  15.557 -0.0872 -0.2713 -0.0926
 1229POPC   C1A14873   3.301  24.127  15.993  0.2026  0.0839  0.2350
 1229POPC   D2A14874   3.242  23.895  16.371  0.0657 -0.1035  0.1278
 1229POPC   C3A14875   3.268  23.979  16.865  0.1972 -0.0310  0.1956
 1229POPC   C4A14876   3.049  24.109  17.195  0.1281 -0.3301  0.1422
 1229POPC   C1B14877   3.198  24.826  15.839 -0.0245  0.0589  0.1760
 1229POPC   C2B14878   3.235  25.102  16.200 -0.2067  0.1453 -0.0963
 1229POPC   C3B14879   3.288  25.264  16.611  0.0429  0.2598 -0.0983
 1229POPC   C4B14880   3.440  25.422  17.034 -0.1071 -0.3010 -0.1559
 1230POPC   NC314881  12.309   8.196  14.780 -0.3458  0.0394  0.2157
 1230POPC   PO414882  12.618   8.024  14.931 -0.1642  0.1255  0.0315
 1230POPC   GL114883  12.514   7.821  15.273  0.3583 -0.0576  0.0097
 1230POPC   GL214884  12.257   7.868  15.190  0.4627 -0.1016 -0.0013
 1230POPC   C1A14885  12.426   7.433  15.544 -0.1396 -0.0236 -0.1090
 1230POPC   D2A14886  12.153   7.105  15.733  0.0433  0.2890  0.1104
 1230POPC   C3A14887  12.107   7.061  16.162 -0.2770 -0.0301 -0.0139
 1230POPC   C4A14888  12.000   6.889  16.615 -0.1686 -0.1544 -0.1780
 1230POPC   C1B14889  11.987   7.760  15.592  0.1851  0.0122  0.0597
 1230POPC   C2B14890  12.008   7.573  16.027 -0.2534  0.3163 -0.0541
 1230POPC   C3B14891  12.061   7.519  16.479 -0.0139  0.0988 -0.1337
 1230POPC   C4B14892  12.068   7.324  16.982  0.0625  0.4966 -0.1654
 1231POPC   NC314893   0.805   8.266  14.884 -0.0491 -0.1383 -0.2264
 1231POPC   PO414894   0.591   7.946  15.053 -0.1827 -0.0253  0.3210
 1231POPC   GL114895   0.695   7.716  15.417 -0.2198 -0.2561 -0.0085
 1231POPC   GL214896   0.430   7.804  15.580  0.1738 -0.1280 -0.3298
 1231POPC   C1A14897   0.804   7.778  15.902 -0.2774 -0.1279  0.1415
 1231POPC   D2A14898   0.936   7.473  16.259 -0.0848 -0.1865  0.0979
 1231POPC   C3A14899   1.008   7.543  16.676 -0.3830 -0.1011  0.1622
 1231POPC   C4A14900   1.344   7.441  16.992 -0.0968 -0.0583 -0.1726
 1231POPC   C1B14901   0.369   8.179  15.829 -0.2052  0.5024 -0.0723
 1231POPC   C2B14902   0.318   8.280  16.268  0.0290 -0.2089  0.2058
 1231POPC   C3B14903   0.309   8.411  16.704 -0.1260 -0.0727 -0.0590
 1231POPC   C4B14904   0.105   8.728  16.985  0.4080 -0.0245  0.0397
 1232POPC   NC314905   0.636  14.461  15.233  0.1048 -0.3900 -0.0503
 1232POPC   PO414906   0.875  14.175  15.172  0.1171  0.2023 -0.3614
 1232POPC   GL114907   1.006  14.126  15.551 -0.0030  0.2990  0.0368
 1232POPC   GL214908   1.166  14.255  15.603  0.0587 -0.2714  0.2083
 1232POPC   C1A14909   1.306  13.809  15.775  0.0684 -0.0818 -0.0544
 1232POPC   D2A14910   1.499  13.691  16.149  0.1269 -0.2837 -0.1384
 1232POPC   C3A14911   1.845  13.606  16.417  0.3633 -0.1467  0.0134
 1232POPC   C4A14912   1.785  13.464  16.840  0.2893  0.2458 -0.1919
 1232POPC   C1B14913   1.087  14.245  16.026 -0.1943  0.1856 -0.1716
 1232POPC   C2B14914   0.810  14.234  16.437  0.0518  0.0211  0.0398
 1232POPC   C3B14915   0.708  14.187  16.852  0.1278  0.1178 -0.0244
 1232POPC   C4B14916   0.518  13.891  17.152  0.0476  0.0535  0.1540
 1233POPC   NC314917  13.264  16.883  15.152  0.5634 -0.2304  0.0939
 1233POPC   PO414918  13.344  16.541  14.988  0.1657  0.0240 -0.3894
 1233POPC   GL114919  13.247  16.443  15.365 -0.0137 -0.0290 -0.4704
 1233POPC   GL214920  13.378  16.522  15.606  0.2761  0.0414  0.0622
 1233POPC   C1A14921  12.902  16.347  15.641 -0.3288 -0.2694 -0.3984
 1233POPC   D2A14922  12.715  16.257  16.086  0.1586  0.2832 -0.2390
 1233POPC   C3A14923  12.496  16.429  16.400  0.3543 -0.1327  0.0187
 1233POPC   C4A14924  12.466  16.495  16.882  0.6099 -0.3350 -0.0321
 1233POPC   C1B14925  13.298  16.252  15.958  0.1333 -0.2195  0.0819
 1233POPC   C2B14926  13.150  16.171  16.397 -0.0128  0.0027 -0.0139
 1233POPC   C3B14927  12.935  16.300  16.792  0.0754  0.1683  0.1174
 1233POPC   C4B14928  12.834  16.314  17.222 -0.1568  0.0837 -0.0142
 1234POPC   NC314929  13.650   4.887  15.183  0.0717 -0.3169 -0.0615
 1234POPC   PO414930  13.366   4.675  15.069  0.0773 -0.0250  0.0017
 1234POPC   GL114931  13.283   4.734  15.531  0.1377  0.1171  0.0662
 1234POPC   GL214932  13.407   4.956  15.624  0.0864  0.0971 -0.0005
 1234POPC   C1A14933  13.074   4.610  15.883  0.0292 -0.0513 -0.0504
 1234POPC   D2A14934  12.819   4.890  16.137 -0.2481 -0.3297 -0.3895
 1234POPC   C3A14935  12.947   4.962  16.606  0.2371 -0.0666 -0.2692
 1234POPC   C4A14936  13.168   5.258  16.911 -0.1099  0.1445  0.2435
 1234POPC   C1B14937  13.234   5.181  16.023  0.0819  0.0372  0.0084
 1234POPC   C2B14938  13.005   5.401  16.381 -0.0656  0.3174 -0.3464
 1234POPC   C3B14939  12.791   5.628  16.703 -0.0634  0.2528 -0.1972
 1234POPC   C4B14940  12.610   5.769  17.109 -0.2562  0.2645 -0.1615
 1235POPC   NC314941  13.015   2.165  15.641 -0.0288 -0.0660 -0.0115
 1235POPC   PO414942  12.639   2.042  15.556  0.1428  0.2650 -0.0859
 1235POPC   GL114943  12.451   2.027  15.969 -0.2707  0.3056  0.2035
 1235POPC   GL214944  12.182   2.125  15.878 -0.0678  0.0436  0.0082
 1235POPC   C1A14945  12.515   1.760  16.357 -0.0646  0.0806 -0.1545
 1235POPC   D2A14946  12.758   1.705  16.711  0.2325 -0.1767 -0.0503
 1235POPC   C3A14947  12.641   2.038  17.004 -0.2139  0.0947 -0.1711
 1235POPC   C4A14948  12.465   2.287  17.356 -0.2402 -0.4662  0.0463
 1235POPC   C1B14949  11.999   2.154  16.323  0.2112  0.0176  0.1516
 1235POPC   C2B14950  11.833   2.390  16.643  0.1139 -0.0080 -0.1187
 1235POPC   C3B14951  11.642   2.383  17.063 -0.2023  0.0268 -0.0396
 1235POPC   C4B14952  11.346   2.506  17.330 -0.2330 -0.0186  0.1638
 1236POPC   NC314953   0.489  26.530  14.311 -0.0508 -0.0051  0.1971
 1236POPC   PO414954   0.788  26.276  14.325 -0.2767 -0.1962  0.1320
 1236POPC   GL114955   0.854  25.955  14.597  0.0680 -0.0769  0.1263
 1236POPC   GL214956   0.913  25.777  14.400  0.2852 -0.1387 -0.0140
 1236POPC   C1A14957   1.123  25.879  14.938  0.1301 -0.0775 -0.3632
 1236POPC   D2A14958   1.338  25.864  15.371  0.2061  0.1319 -0.0432
 1236POPC   C3A14959   1.424  25.479  15.539 -0.0938 -0.0712 -0.0499
 1236POPC   C4A14960   1.351  25.109  15.759 -0.1812  0.1389 -0.1114
 1236POPC   C1B14961   1.376  25.769  14.523 -0.3737  0.1879  0.0653
 1236POPC   C2B14962   1.650  25.820  14.911 -0.1669  0.0207  0.2614
 1236POPC   C3B14963   1.845  25.394  15.095 -0.2441 -0.2316 -0.2498
 1236POPC   C4B14964   1.608  25.008  15.060  0.1298  0.2143  0.0958
 1237POPC   NC314965   4.659  25.056  15.162  0.0976  0.1358 -0.1757
 1237POPC   PO414966   4.747  24.891  15.515  0.1855 -0.0388  0.1498
 1237POPC   GL114967   4.849  24.777  15.868 -0.5013 -0.0523 -0.1483
 1237POPC   GL214968   4.591  24.555  15.940  0.0721  0.1169 -0.0604
 1237POPC   C1A14969   4.690  24.866  16.314  0.0400  0.1290 -0.1528
 1237POPC   D2A14970   4.563  24.892  16.807  0.1906  0.1758 -0.2823
 1237POPC   C3A14971   4.214  24.937  17.148 -0.2809  0.0368 -0.1801
 1237POPC   C4A14972   4.045  25.016  17.591 -0.1490 -0.0775  0.4444
 1237POPC   C1B14973   4.713  24.338  16.351  0.2675  0.0345  0.0548
 1237POPC   C2B14974   4.497  24.367  16.796  0.0312  0.0462 -0.1826
 1237POPC   C3B14975   4.504  24.512  17.224 -0.2187  0.0698 -0.2828
 1237POPC   C4B14976   4.524  24.584  17.692  0.1017 -0.0433  0.2069
 1238POPC   NC314977  15.314  22.135  15.698 -0.2492 -0.2109 -0.1286
 1238POPC   PO414978  15.534  22.105  15.389 -0.0083  0.1470 -0.0560
 1238POPC   GL114979  15.809  22.274  15.637  0.1120  0.4328 -0.0230
 1238POPC   GL214980  15.881  22.036  15.766  0.2135 -0.1631 -0.0872
 1238POPC   C1A14981  16.031  22.668  15.678  0.0112  0.0263  0.2599
 1238POPC   D2A14982  16.283  22.846  15.998  0.1291  0.3099  0.2749
 1238POPC   C3A14983  16.582  23.045  16.206  0.3911 -0.2084 -0.1339
 1238POPC   C4A14984  16.472  23.332  16.532 -0.3247  0.0396 -0.0047
 1238POPC   C1B14985  15.724  22.121  16.223  0.0383  0.1471 -0.1834
 1238POPC   C2B14986  15.772  22.152  16.705 -0.2407 -0.0347  0.2070
 1238POPC   C3B14987  15.504  22.111  17.088  0.0077  0.0019  0.0513
 1238POPC   C4B14988  15.133  22.125  17.329 -0.1924  0.0658  0.0405
 1239POPC   NC314989   1.652  28.518  14.666  0.1678 -0.2487  0.0013
 1239POPC   PO414990   1.729  28.210  14.923  0.0567 -0.1516 -0.0142
 1239POPC   GL114991   1.825  28.244  15.358  0.0242 -0.0570 -0.0325
 1239POPC   GL214992   1.699  28.360  15.558  0.0796  0.3015  0.3051
 1239POPC   C1A14993   1.705  27.825  15.501  0.1885 -0.0253  0.0169
 1239POPC   D2A14994   1.923  27.368  15.511 -0.1910 -0.3161  0.0542
 1239POPC   C3A14995   2.131  27.203  15.917  0.2365  0.1753  0.0002
 1239POPC   C4A14996   2.231  26.960  16.259 -0.2435  0.1443  0.2533
 1239POPC   C1B14997   1.977  28.133  15.828  0.1333  0.2219  0.0722
 1239POPC   C2B14998   2.040  28.120  16.291  0.1287  0.0263  0.1947
 1239POPC   C3B14999   2.151  27.908  16.676  0.1022 -0.0192  0.2583
 1239POPC   C4B15000   2.240  27.630  17.060  0.5194 -0.0388 -0.1171
 1240POPC   NC315001  10.651   1.853  15.265  0.1523 -0.0498  0.0257
 1240POPC   PO415002  10.297   1.653  15.210  0.1283 -0.0140  0.1806
 1240POPC   GL115003  10.314   1.691  15.600  0.2779  0.1795  0.0049
 1240POPC   GL215004  10.425   1.993  15.705 -0.3110 -0.0893 -0.0575
 1240POPC   C1A15005  10.526   1.612  15.991 -0.0944  0.2422 -0.2994
 1240POPC   D2A15006  10.595   1.619  16.466 -0.0968 -0.0965  0.2323
 1240POPC   C3A15007  10.367   1.775  16.852  0.0321 -0.3193 -0.4107
 1240POPC   C4A15008  10.037   1.916  17.114 -0.0873 -0.0861  0.3244
 1240POPC   C1B15009  10.309   2.053  16.215 -0.0004  0.0683  0.1010
 1240POPC   C2B15010  10.299   2.235  16.702 -0.0621  0.1360 -0.1522
 1240POPC   C3B15011  10.151   2.518  17.046 -0.0227  0.2051  0.0594
 1240POPC   C4B15012   9.801   2.720  17.201  0.5560  0.1050 -0.4990
 1241POPC   NC315013   3.795  24.887  15.624  0.0929  0.1227 -0.0937
 1241POPC   PO415014   3.829  24.534  15.548  0.0220  0.3592  0.1046
 1241POPC   GL115015   3.771  24.435  15.966  0.2657  0.1494  0.1902
 1241POPC   GL215016   3.616  24.620  16.057 -0.0958  0.3420 -0.4469
 1241POPC   C1A15017   3.852  24.057  16.214  0.1984 -0.1478 -0.1582
 1241POPC   D2A15018   4.054  24.077  16.655 -0.5521 -0.2232  0.1961
 1241POPC   C3A15019   3.768  24.009  16.994 -0.2048  0.2730  0.2954
 1241POPC   C4A15020   3.837  24.066  17.466 -0.0922  0.1644  0.2017
 1241POPC   C1B15021   3.642  24.866  16.506 -0.0926  0.0936  0.2745
 1241POPC   C2B15022   3.530  24.603  16.877 -0.0746 -0.1037  0.2541
 1241POPC   C3B15023   3.484  24.297  17.305 -0.0855 -0.3430  0.1369
 1241POPC   C4B15024   3.393  23.799  17.399 -0.2005  0.2260 -0.1649
 1242POPC   NC315025  11.779   8.291  14.626  0.1151  0.1458  0.0737
 1242POPC   PO415026  11.869   8.088  14.928 -0.2029 -0.3342 -0.1730
 1242POPC   GL115027  12.120   8.263  15.340  0.2504  0.4440  0.1279
 1242POPC   GL215028  11.992   8.449  15.443 -0.0734  0.3328  0.1614
 1242POPC   C1A15029  12.389   8.065  15.685  0.1592 -0.1653 -0.1475
 1242POPC   D2A15030  12.331   8.118  16.120  0.3843  0.0790 -0.1273
 1242POPC   C3A15031  12.384   7.922  16.534  0.0270 -0.1985  0.0339
 1242POPC   C4A15032  12.522   7.492  16.613  0.0919 -0.2863 -0.2466
 1242POPC   C1B15033  12.033   8.753  15.747 -0.3230  0.0303  0.0747
 1242POPC   C2B15034  12.274   8.831  16.101  0.0345 -0.3182 -0.3815
 1242POPC   C3B15035  12.114   8.835  16.553  0.1573  0.1003  0.0563
 1242POPC   C4B15036  11.782   8.522  16.733  0.0781 -0.3082 -0.0341
 1243POPC   NC315037   9.582  23.562  15.037  0.0244  0.3031 -0.2218
 1243POPC   PO415038   9.325  23.848  15.099  0.2145 -0.1277  0.2065
 1243POPC   GL115039   9.448  24.071  15.415  0.1101  0.1493  0.2044
 1243POPC   GL215040   9.180  24.233  15.402  0.0386 -0.0717  0.0312
 1243POPC   C1A15041   9.549  24.069  15.869 -0.3298  0.2446  0.5752
 1243POPC   D2A15042   9.612  23.934  16.281 -0.0725 -0.1900  0.0294
 1243POPC   C3A15043   9.442  24.177  16.677 -0.0743  0.1251  0.1060
 1243POPC   C4A15044   9.289  24.223  17.094 -0.3985 -0.0091  0.0498
 1243POPC   C1B15045   9.204  24.476  15.802  0.2643  0.2808  0.2112
 1243POPC   C2B15046   9.109  24.704  16.184 -0.1133 -0.2749  0.1098
 1243POPC   C3B15047   8.947  24.925  16.567  0.2535 -0.0829  0.0662
 1243POPC   C4B15048   8.677  25.216  16.775  0.1718  0.0032  0.2880
 1244POPC   NC315049   2.794  20.891  15.012  0.0659  0.1664 -0.0404
 1244POPC   PO415050   3.165  20.834  15.163  0.0726  0.0200  0.2934
 1244POPC   GL115051   3.397  20.725  15.548  0.4531 -0.2207 -0.0005
 1244POPC   GL215052   3.189  20.450  15.608 -0.0189 -0.1403  0.1007
 1244POPC   C1A15053   3.741  20.389  15.587 -0.0499 -0.2010  0.0709
 1244POPC   D2A15054   3.808  19.996  15.722 -0.0736 -0.3723 -0.0519
 1244POPC   C3A15055   4.144  20.119  15.985 -0.1088 -0.1754 -0.1087
 1244POPC   C4A15056   4.207  20.059  16.406  0.1838 -0.1655  0.1725
 1244POPC   C1B15057   3.256  20.456  16.075 -0.0235 -0.2246  0.1776
 1244POPC   C2B15058   3.406  20.482  16.523 -0.4620 -0.0199 -0.1401
 1244POPC   C3B15059   3.865  20.448  16.600  0.2675 -0.0517  0.0775
 1244POPC   C4B15060   4.175  20.246  16.863 -0.1760  0.4900 -0.0697
 1245POPC   NC315061   0.804  26.791  15.109  0.2361 -0.4400 -0.1134
 1245POPC   PO415062   0.834  26.749  15.472 -0.0908  0.0260 -0.0670
 1245POPC   GL115063   0.928  26.628  15.749  0.1016  0.0657  0.0514
 1245POPC   GL215064   0.661  26.434  15.821 -0.2047 -0.3612  0.2639
 1245POPC   C1A15065   0.877  26.619  16.226  0.0198  0.0686  0.2713
 1245POPC   D2A15066   0.850  26.884  16.564 -0.2249 -0.0424 -0.0576
 1245POPC   C3A15067   0.803  26.662  16.963 -0.0494  0.0519 -0.5278
 1245POPC   C4A15068   0.462  26.422  17.129  0.0515  0.1547 -0.3977
 1245POPC   C1B15069   0.611  26.212  16.194 -0.0196 -0.2130 -0.1724
 1245POPC   C2B15070   0.546  25.782  16.305  0.1522  0.2488  0.0189
 1245POPC   C3B15071   0.630  25.435  16.629  0.0567  0.1754 -0.1657
 1245POPC   C4B15072   0.640  25.310  17.094 -0.1635 -0.4286 -0.2788
 1246POPC   NC315073  15.423  24.313  14.799  0.0974  0.2092 -0.2122
 1246POPC   PO415074  15.571  23.945  14.987  0.1610 -0.0738  0.0095
 1246POPC   GL115075  15.537  23.996  15.385  0.1129  0.1250  0.0157
 1246POPC   GL215076  15.798  23.942  15.496  0.1433  0.1290 -0.1617
 1246POPC   C1A15077  15.204  24.026  15.730 -0.1387  0.2919  0.1721
 1246POPC   D2A15078  15.290  23.833  16.154 -0.1723 -0.4342 -0.0804
 1246POPC   C3A15079  15.311  23.870  16.619  0.2023  0.0225  0.2873
 1246POPC   C4A15080  15.025  23.902  17.041 -0.0516  0.4735  0.0430
 1246POPC   C1B15081  15.895  23.721  15.901  0.0069  0.1154  0.1074
 1246POPC   C2B15082  16.328  23.623  16.119  0.0538 -0.1303  0.0746
 1246POPC   C3B15083  16.590  23.803  16.426  0.0089 -0.2772 -0.1653
 1246POPC   C4B15084  16.960  23.962  16.701  0.0192  0.1895  0.3047
 1247POPC   NC315085   5.284   7.015  15.206 -0.0691  0.3932  0.2367
 1247POPC   PO415086   5.351   7.347  15.392  0.2754 -0.0299  0.0199
 1247POPC   GL115087   5.497   7.588  15.726  0.0617  0.0496  0.0457
 1247POPC   GL215088   5.685   7.407  15.877  0.1657  0.0587 -0.1330
 1247POPC   C1A15089   5.856   7.905  15.859  0.2442 -0.0114  0.1711
 1247POPC   D2A15090   5.941   8.371  16.096  0.1153  0.0214  0.3532
 1247POPC   C3A15091   6.163   8.740  15.893  0.2019 -0.4400  0.1029
 1247POPC   C4A15092   6.490   8.984  15.712  0.1892  0.1749  0.0453
 1247POPC   C1B15093   5.981   7.315  16.249  0.0214  0.3533 -0.0842
 1247POPC   C2B15094   6.013   7.160  16.666 -0.1447 -0.1503  0.2933
 1247POPC   C3B15095   6.337   7.089  16.982  0.1687  0.0972 -0.0388
 1247POPC   C4B15096   6.576   7.125  17.371 -0.0765 -0.3272 -0.1448
 1248POPC   NC315097   5.432  13.310  14.947 -0.0625 -0.3215 -0.2039
 1248POPC   PO415098   5.816  13.275  14.990  0.2545 -0.1573  0.2906
 1248POPC   GL115099   5.735  13.500  15.333  0.1141  0.1315 -0.3163
 1248POPC   GL215100   6.006  13.450  15.502  0.0930 -0.1041 -0.1021
 1248POPC   C1A15101   5.613  13.651  15.818  0.0762 -0.3192  0.1043
 1248POPC   D2A15102   5.629  14.075  15.987  0.2758 -0.0292  0.1533
 1248POPC   C3A15103   5.472  14.082  16.405  0.3027  0.0900 -0.2727
 1248POPC   C4A15104   5.498  14.082  16.917 -0.3275  0.0369 -0.1862
 1248POPC   C1B15105   6.105  13.523  15.927 -0.2557  0.0865  0.0738
 1248POPC   C2B15106   6.460  13.610  16.132  0.2698  0.0258  0.0568
 1248POPC   C3B15107   6.592  13.852  16.494 -0.0375  0.0059 -0.1752
 1248POPC   C4B15108   6.716  13.984  16.929  0.1348 -0.1531 -0.0396
 1249POPC   NC315109   4.144  13.951  14.957  0.0276 -0.1967  0.0602
 1249POPC   PO415110   4.495  14.080  15.096 -0.2682 -0.0216 -0.1481
 1249POPC   GL115111   4.661  13.978  15.443  0.1860 -0.2077 -0.0888
 1249POPC   GL215112   4.921  14.083  15.412  0.1451  0.2241 -0.2937
 1249POPC   C1A15113   4.699  14.213  15.881 -0.6369  0.1455  0.1364
 1249POPC   D2A15114   4.766  13.995  16.347 -0.0571 -0.2232  0.0656
 1249POPC   C3A15115   5.098  13.886  16.647  0.0594  0.0802 -0.3176
 1249POPC   C4A15116   5.033  13.676  17.055  0.2061  0.0629 -0.0168
 1249POPC   C1B15117   5.081  13.833  15.757 -0.3488 -0.2975  0.0263
 1249POPC   C2B15118   5.128  13.715  16.210  0.0507 -0.0827 -0.2519
 1249POPC   C3B15119   5.194  13.425  16.594 -0.0032  0.2691  0.1702
 1249POPC   C4B15120   5.327  13.008  16.795  0.1640  0.0033  0.0120
 1250POPC   NC315121   3.829  10.155  15.514  0.1369  0.0149  0.1903
 1250POPC   PO415122   3.469  10.040  15.469  0.0923  0.0611  0.1694
 1250POPC   GL115123   3.438   9.979  15.834  0.1990  0.0849 -0.0416
 1250POPC   GL215124   3.469   9.691  15.908  0.1727 -0.5285 -0.0287
 1250POPC   C1A15125   3.789  10.041  16.066 -0.2393  0.0838  0.0692
 1250POPC   D2A15126   3.846  10.010  16.502 -0.4690 -0.1642 -0.1016
 1250POPC   C3A15127   4.069   9.735  16.788  0.1646 -0.0366 -0.0991
 1250POPC   C4A15128   4.418   9.540  17.041  0.0119  0.1456  0.0618
 1250POPC   C1B15129   3.764   9.496  16.180  0.0578  0.1998 -0.3385
 1250POPC   C2B15130   3.920   9.297  16.596  0.1627  0.1117 -0.0775
 1250POPC   C3B15131   4.311   9.141  16.819  0.1047 -0.0713 -0.0630
 1250POPC   C4B15132   4.747   8.999  16.879 -0.3782 -0.0856  0.4014
 1251POPC   NC315133  11.219   1.618  15.085 -0.0464  0.2387  0.0335
 1251POPC   PO415134  11.071   1.774  15.398 -0.1228  0.0585 -0.0909
 1251POPC   GL115135  11.134   1.851  15.778 -0.3074  0.0950  0.1628
 1251POPC   GL215136  11.043   1.641  15.884  0.2418  0.1983  0.0081
 1251POPC   C1A15137  11.289   2.211  15.982 -0.0941 -0.1211  0.1689
 1251POPC   D2A15138  11.746   2.362  15.929  0.4706  0.0513  0.0636
 1251POPC   C3A15139  11.902   2.722  16.245 -0.0669 -0.1523  0.0297
 1251POPC   C4A15140  11.777   2.863  16.661 -0.0165  0.0697 -0.1567
 1251POPC   C1B15141  10.881   1.198  15.991 -0.0785  0.3560  0.2427
 1251POPC   C2B15142  10.861   1.203  16.456 -0.1778  0.3311 -0.2447
 1251POPC   C3B15143  10.721   1.318  16.881 -0.1835 -0.1153  0.1748
 1251POPC   C4B15144  10.649   1.622  17.250  0.0237 -0.1148 -0.1769
 1252POPC   NC315145   5.793   1.560  15.462 -0.0254  0.1860 -0.0572
 1252POPC   PO415146   5.526   1.428  15.213  0.3147  0.0617  0.0812
 1252POPC   GL115147   5.481   1.113  15.474 -0.4824  0.0006 -0.2773
 1252POPC   GL215148   5.449   0.837  15.388 -0.1281  0.2867 -0.0293
 1252POPC   C1A15149   5.403   1.072  15.932  0.1221 -0.0053  0.0716
 1252POPC   D2A15150   5.414   0.744  16.295 -0.0153  0.0131 -0.2126
 1252POPC   C3A15151   5.294   0.498  16.665  0.0159  0.0535 -0.2159
 1252POPC   C4A15152   5.257   0.592  17.118  0.0464 -0.2856  0.1571
 1252POPC   C1B15153   5.597   0.569  15.743  0.0166 -0.0174 -0.3751
 1252POPC   C2B15154   5.703   0.327  16.108  0.0099 -0.0813 -0.0786
 1252POPC   C3B15155   5.638   0.110  16.479  0.2565  0.0799  0.2005
 1252POPC   C4B15156   5.413  -0.174  16.676  0.0992  0.4460  0.0022
 1253POPC   NC315157   6.719   4.083  15.239 -0.2095 -0.2452  0.2095
 1253POPC   PO415158   6.512   3.922  15.527  0.2944  0.1339  0.0754
 1253POPC   GL115159   6.272   3.999  15.755  0.3707 -0.2813 -0.2127
 1253POPC   GL215160   6.190   3.784  15.944  0.0911  0.0651 -0.0180
 1253POPC   C1A15161   6.240   4.198  16.185 -0.2370  0.2872 -0.1327
 1253POPC   D2A15162   6.094   4.173  16.600  0.3063 -0.0019  0.0235
 1253POPC   C3A15163   6.113   3.838  16.925  0.0024  0.0890 -0.0418
 1253POPC   C4A15164   5.965   3.375  16.783 -0.0454  0.1595 -0.0898
 1253POPC   C1B15165   6.312   3.576  16.327 -0.1682 -0.3487 -0.1905
 1253POPC   C2B15166   6.482   3.419  16.726 -0.2171 -0.1139  0.0846
 1253POPC   C3B15167   6.548   3.172  17.115 -0.2450 -0.0720 -0.1931
 1253POPC   C4B15168   6.630   3.011  17.576 -0.0222  0.2881  0.2683
 1254POPC   NC315169   3.475   7.928  15.359 -0.2002 -0.1622 -0.1899
 1254POPC   PO415170   3.411   8.265  15.264  0.1515 -0.0764  0.2332
 1254POPC   GL115171   3.558   8.279  15.622 -0.0056  0.1290 -0.1876
 1254POPC   GL215172   3.324   8.323  15.766 -0.3274 -0.2204  0.1231
 1254POPC   C1A15173   3.675   8.078  16.032  0.0524  0.0933 -0.0183
 1254POPC   D2A15174   3.551   7.962  16.413 -0.0504 -0.1970  0.0267
 1254POPC   C3A15175   3.912   7.790  16.642 -0.0994  0.2038 -0.1089
 1254POPC   C4A15176   4.078   7.788  17.035  0.1265 -0.0158  0.0837
 1254POPC   C1B15177   3.267   8.337  16.235 -0.2634  0.1172 -0.1822
 1254POPC   C2B15178   3.308   8.597  16.631  0.0680 -0.1138 -0.0669
 1254POPC   C3B15179   3.331   8.747  17.110  0.0199 -0.0472  0.1514
 1254POPC   C4B15180   3.435   9.117  17.319  0.0033 -0.0812 -0.0329
 1255POPC   NC315181   4.572  23.577  15.122  0.0246 -0.1132  0.1570
 1255POPC   PO415182   4.566  23.997  15.140 -0.0122  0.0323  0.1576
 1255POPC   GL115183   4.533  23.948  15.531  0.1656 -0.0166 -0.0440
 1255POPC   GL215184   4.747  23.701  15.619  0.2966  0.1628 -0.1659
 1255POPC   C1A15185   4.769  24.079  15.918  0.1528  0.0013  0.0037
 1255POPC   D2A15186   5.126  24.111  16.241  0.1123  0.0753 -0.2932
 1255POPC   C3A15187   5.121  24.109  16.697 -0.2968  0.1080  0.0309
 1255POPC   C4A15188   5.136  24.137  17.183 -0.1405 -0.0505  0.2448
 1255POPC   C1B15189   4.563  23.557  16.047 -0.1901  0.1414  0.2162
 1255POPC   C2B15190   4.590  23.346  16.456  0.1603 -0.2298  0.3744
 1255POPC   C3B15191   4.672  23.194  16.944  0.2126 -0.3102 -0.0215
 1255POPC   C4B15192   4.814  23.061  17.326  0.0251 -0.2155  0.0821
 1256POPC   NC315193  11.016   0.707  15.461 -0.0143 -0.0320 -0.1216
 1256POPC   PO415194  10.796   1.013  15.276 -0.1035 -0.1384 -0.0382
 1256POPC   GL115195  10.593   0.912  15.628 -0.1066  0.0478 -0.0119
 1256POPC   GL215196  10.393   1.012  15.732 -0.0390  0.2350 -0.1237
 1256POPC   C1A15197  10.708   0.785  16.105 -0.0430 -0.1117 -0.4579
 1256POPC   D2A15198  10.503   0.641  16.522  0.3973  0.0198 -0.2409
 1256POPC   C3A15199  10.640   0.632  16.946  0.1911 -0.0774 -0.0628
 1256POPC   C4A15200  10.937   0.498  17.261  0.0077 -0.2842 -0.0836
 1256POPC   C1B15201  10.380   1.177  16.187  0.1744  0.0550  0.3449
 1256POPC   C2B15202  10.322   1.125  16.631  0.0232 -0.0839  0.0715
 1256POPC   C3B15203  10.157   0.903  16.997 -0.3005 -0.0313 -0.0667
 1256POPC   C4B15204  10.015   0.698  17.375  0.4633 -0.1340  0.3173
 1257POPC   NC315205   9.489  25.993  15.016 -0.0246  0.0444  0.0579
 1257POPC   PO415206   9.371  25.628  15.026  0.1748 -0.1276  0.1124
 1257POPC   GL115207   8.973  25.668  15.185 -0.3917  0.0342  0.2073
 1257POPC   GL215208   8.839  25.449  15.068 -0.0245  0.1304 -0.0439
 1257POPC   C1A15209   8.744  26.005  15.129 -0.0734  0.0969 -0.0460
 1257POPC   D2A15210   8.280  25.960  14.989 -0.0772 -0.3966 -0.0056
 1257POPC   C3A15211   7.936  25.784  15.286 -0.0761 -0.0720  0.3349
 1257POPC   C4A15212   7.817  25.409  15.521 -0.2933 -0.1368 -0.3617
 1257POPC   C1B15213   8.643  25.084  15.117 -0.2127 -0.0345  0.0939
 1257POPC   C2B15214   8.383  25.036  15.464  0.1307 -0.0319  0.1444
 1257POPC   C3B15215   8.140  25.163  15.848  0.1043 -0.1219  0.0257
 1257POPC   C4B15216   7.941  25.469  16.128  0.1300 -0.0931 -0.1528
 1258POPC   NC315217  10.046   0.119  15.198  0.2914 -0.2207 -0.0333
 1258POPC   PO415218   9.910  -0.247  15.279  0.1409 -0.1426  0.0678
 1258POPC   GL115219  10.076  -0.055  15.617 -0.2799 -0.0536 -0.2463
 1258POPC   GL215220   9.892   0.062  15.723 -0.0299  0.0878  0.0457
 1258POPC   C1A15221  10.465  -0.277  15.820 -0.0594  0.2995 -0.0253
 1258POPC   D2A15222  10.573  -0.466  16.217 -0.0394  0.1022  0.1624
 1258POPC   C3A15223  10.320  -0.545  16.556  0.0551 -0.0309 -0.0971
 1258POPC   C4A15224  10.132  -0.789  16.903 -0.0515  0.0014  0.0733
 1258POPC   C1B15225   9.523  -0.070  15.958 -0.0555  0.1085 -0.1186
 1258POPC   C2B15226   9.345   0.142  16.331 -0.1552  0.1276  0.2088
 1258POPC   C3B15227   9.567   0.235  16.700  0.1469  0.0640 -0.0672
 1258POPC   C4B15228   9.906   0.007  16.987 -0.0998  0.2422  0.2308
 1259POPC   NC315229   4.045  17.101  14.942 -0.0556 -0.0006 -0.3583
 1259POPC   PO415230   3.897  17.386  15.117 -0.1865 -0.1944 -0.0106
 1259POPC   GL115231   3.940  17.575  15.498  0.2514  0.1968  0.0806
 1259POPC   GL215232   3.965  17.337  15.676  0.3535  0.0964  0.1321
 1259POPC   C1A15233   3.573  17.638  15.837  0.0107 -0.0921  0.4196
 1259POPC   D2A15234   3.324  17.362  16.086 -0.0089  0.1663 -0.0788
 1259POPC   C3A15235   3.556  17.175  16.422 -0.0731 -0.1106  0.2606
 1259POPC   C4A15236   3.579  17.282  16.892 -0.1754 -0.3736 -0.1104
 1259POPC   C1B15237   3.919  17.448  16.104  0.0075 -0.0711  0.1774
 1259POPC   C2B15238   3.759  17.758  16.438 -0.2470 -0.3657  0.1484
 1259POPC   C3B15239   3.559  18.160  16.545 -0.0448 -0.1503 -0.0935
 1259POPC   C4B15240   3.413  18.485  16.841  0.1161 -0.1897  0.2098
 1260POPC   NC315241  13.156  20.709  15.145  0.0456 -0.2808 -0.2507
 1260POPC   PO415242  13.519  20.684  15.032 -0.0747 -0.1914 -0.0323
 1260POPC   GL115243  13.544  20.391  15.327  0.1054 -0.1896  0.1603
 1260POPC   GL215244  13.281  20.441  15.507 -0.0163  0.1113  0.2044
 1260POPC   C1A15245  13.675  20.008  15.637 -0.1560  0.5420 -0.1455
 1260POPC   D2A15246  14.061  19.804  15.760  0.1361 -0.0115  0.2690
 1260POPC   C3A15247  14.028  19.905  16.219  0.0643 -0.0967 -0.2209
 1260POPC   C4A15248  13.684  19.793  16.531  0.1872 -0.0136 -0.3155
 1260POPC   C1B15249  13.228  20.348  15.999 -0.1582 -0.0541 -0.1291
 1260POPC   C2B15250  13.255  20.601  16.390  0.0732  0.1135  0.0500
 1260POPC   C3B15251  12.956  20.586  16.789  0.3685  0.1219 -0.1308
 1260POPC   C4B15252  12.602  20.450  17.092 -0.1959 -0.0296 -0.0832
 1261POPC   NC315253   7.915   9.472  14.838 -0.0336  0.2758 -0.0514
 1261POPC   PO415254   8.180   9.510  15.122 -0.4722 -0.0451  0.0080
 1261POPC   GL115255   8.218   9.459  15.563  0.0219 -0.1927  0.0133
 1261POPC   GL215256   8.488   9.491  15.670 -0.1915 -0.0354  0.1696
 1261POPC   C1A15257   8.054   9.163  15.865  0.1731 -0.0644 -0.1918
 1261POPC   D2A15258   7.700   9.208  16.149  0.2673 -0.2230 -0.2697
 1261POPC   C3A15259   7.481   8.969  16.501  0.1409 -0.1148 -0.0496
 1261POPC   C4A15260   7.334   8.637  16.805  0.4467 -0.2424 -0.2150
 1261POPC   C1B15261   8.396   9.422  16.140 -0.1428  0.0376 -0.0167
 1261POPC   C2B15262   8.147   9.458  16.562  0.0703  0.2108  0.3095
 1261POPC   C3B15263   7.931   9.275  16.889  0.0876 -0.2745  0.0351
 1261POPC   C4B15264   7.798   8.840  17.042  0.1995  0.0830 -0.1562
 1262POPC   NC315265  11.247   8.497  15.109  0.2171 -0.1032 -0.0474
 1262POPC   PO415266  11.618   8.546  15.046 -0.0937 -0.1509 -0.1965
 1262POPC   GL115267  11.463   8.120  15.274 -0.2617  0.1290 -0.4205
 1262POPC   GL215268  11.471   8.302  15.482 -0.2197  0.1802 -0.2555
 1262POPC   C1A15269  11.461   7.698  15.417  0.1927  0.1785 -0.0832
 1262POPC   D2A15270  11.371   7.299  15.238 -0.2220 -0.0453 -0.0232
 1262POPC   C3A15271  11.199   7.050  15.576  0.1583 -0.2843  0.1151
 1262POPC   C4A15272  10.975   6.953  15.990  0.0978  0.2720 -0.3582
 1262POPC   C1B15273  11.614   8.338  15.901 -0.2565 -0.1854  0.1557
 1262POPC   C2B15274  11.692   7.976  16.179  0.0206 -0.2209  0.0813
 1262POPC   C3B15275  11.569   7.831  16.627 -0.1238 -0.0992  0.0970
 1262POPC   C4B15276  11.668   7.670  17.028 -0.1964  0.0332  0.1113
 1263POPC   NC315277   7.083  11.698  15.187  0.3160  0.0656 -0.0025
 1263POPC   PO415278   7.109  12.009  14.907  0.0766  0.0430  0.1346
 1263POPC   GL115279   7.240  12.292  15.178  0.2284 -0.0960 -0.3526
 1263POPC   GL215280   7.109  12.234  15.442  0.1451 -0.0935  0.1812
 1263POPC   C1A15281   7.650  12.405  15.300 -0.0333  0.2554 -0.1712
 1263POPC   D2A15282   8.096  12.432  15.228  0.2134  0.0666  0.3628
 1263POPC   C3A15283   8.401  12.247  15.545  0.1057  0.1638  0.0235
 1263POPC   C4A15284   8.780  12.084  15.793  0.1797 -0.1525 -0.1104
 1263POPC   C1B15285   6.993  12.036  15.784 -0.1750  0.1664 -0.3060
 1263POPC   C2B15286   7.116  12.086  16.244 -0.0904  0.0388  0.1989
 1263POPC   C3B15287   7.402  11.891  16.536  0.1992  0.1785  0.1074
 1263POPC   C4B15288   7.715  11.572  16.646 -0.1872 -0.0750  0.2761
 1264POPC   NC315289   4.344  18.730  14.479 -0.2990 -0.3165 -0.2213
 1264POPC   PO415290   4.511  18.435  14.661 -0.0338 -0.2979  0.2078
 1264POPC   GL115291   4.467  18.562  14.972 -0.1432  0.0772  0.1157
 1264POPC   GL215292   4.705  18.695  15.118 -0.1743  0.1218  0.0438
 1264POPC   C1A15293   4.422  18.215  15.304 -0.1461 -0.3171 -0.1261
 1264POPC   D2A15294   4.293  17.784  15.427 -0.3111  0.2511  0.1213
 1264POPC   C3A15295   4.268  17.684  15.871  0.2766 -0.0235 -0.2473
 1264POPC   C4A15296   4.275  17.701  16.336 -0.1994 -0.0867  0.0586
 1264POPC   C1B15297   4.787  18.959  15.536  0.0353  0.3707  0.3287
 1264POPC   C2B15298   4.547  19.043  15.938  0.1914  0.2149  0.1300
 1264POPC   C3B15299   4.229  19.037  16.234 -0.0057  0.0614  0.0400
 1264POPC   C4B15300   3.815  19.111  16.484 -0.3030 -0.2684 -0.1221
 1265POPC   NC315301   3.068  10.380  15.216  0.0110 -0.0024 -0.0072
 1265POPC   PO415302   3.031  10.238  15.583  0.1007 -0.3789  0.0697
 1265POPC   GL115303   3.033  10.186  15.974 -0.2452  0.3518  0.3439
 1265POPC   GL215304   2.781  10.311  16.045 -0.1360 -0.1323  0.2578
 1265POPC   C1A15305   3.314  10.062  16.331  0.0871  0.0681  0.1259
 1265POPC   D2A15306   3.300  10.221  16.802  0.1133  0.2479  0.2847
 1265POPC   C3A15307   3.036   9.945  16.995  0.2731  0.0704  0.1259
 1265POPC   C4A15308   2.795   9.651  17.225 -0.0405 -0.2549 -0.1288
 1265POPC   C1B15309   2.971  10.378  16.420  0.2030 -0.1790  0.1432
 1265POPC   C2B15310   2.806  10.335  16.837  0.2554 -0.2010 -0.1705
 1265POPC   C3B15311   3.010  10.397  17.263  0.0699 -0.0427 -0.0384
 1265POPC   C4B15312   3.086  10.373  17.710  0.1801  0.0180 -0.1839
 1266POPC   NC315313   8.940  23.435  15.255 -0.1479  0.0411  0.1951
 1266POPC   PO415314   8.618  23.556  15.022 -0.2179 -0.1126  0.1087
 1266POPC   GL115315   8.460  23.603  15.446  0.0504  0.1128  0.2187
 1266POPC   GL215316   8.508  23.341  15.507  0.1392  0.0890 -0.2820
 1266POPC   C1A15317   8.498  23.749  15.884 -0.3290  0.2199 -0.0157
 1266POPC   D2A15318   8.602  23.977  16.278 -0.0526  0.1731 -0.1677
 1266POPC   C3A15319   8.540  23.666  16.659  0.0598  0.2135 -0.0146
 1266POPC   C4A15320   8.609  23.434  17.059  0.0043 -0.3120  0.0345
 1266POPC   C1B15321   8.904  23.438  15.775 -0.1471  0.1752  0.0894
 1266POPC   C2B15322   9.222  23.572  16.090  0.2418  0.1376  0.2088
 1266POPC   C3B15323   9.256  23.712  16.525  0.2395 -0.0184 -0.0212
 1266POPC   C4B15324   9.014  23.855  16.896 -0.0236  0.2007  0.2526
 1267POPC   NC315325   6.748   3.492  15.513  0.1294  0.3848 -0.0343
 1267POPC   PO415326   6.986   3.616  15.279  0.1099  0.0595  0.2138
 1267POPC   GL115327   7.171   3.824  15.557 -0.0210  0.3157 -0.5159
 1267POPC   GL215328   7.158   4.099  15.548  0.0204 -0.1976 -0.1613
 1267POPC   C1A15329   7.336   3.830  16.003  0.0593  0.0174 -0.0199
 1267POPC   D2A15330   7.804   3.889  16.103  0.2083 -0.0629  0.0131
 1267POPC   C3A15331   7.887   4.257  16.333 -0.0655 -0.1849 -0.1408
 1267POPC   C4A15332   7.952   4.547  16.704  0.0109 -0.0028  0.0785
 1267POPC   C1B15333   6.969   4.136  15.919  0.1446  0.1846  0.1100
 1267POPC   C2B15334   6.754   4.339  16.281 -0.0518 -0.0206  0.0466
 1267POPC   C3B15335   6.636   4.331  16.690 -0.3187 -0.1636  0.1244
 1267POPC   C4B15336   6.607   4.118  17.074  0.1690 -0.1085 -0.0155
 1268POPC   NC315337  15.301  24.936  15.347 -0.1259 -0.3553 -0.0181
 1268POPC   PO415338  15.515  24.721  15.100  0.0393  0.1557  0.0475
 1268POPC   GL115339  15.751  24.753  15.460 -0.0816  0.2123  0.0285
 1268POPC   GL215340  15.788  24.516  15.490  0.1507 -0.0177 -0.2582
 1268POPC   C1A15341  16.175  24.764  15.671 -0.2093 -0.4344  0.0851
 1268POPC   D2A15342  16.359  24.634  16.055  0.2724  0.0601 -0.3397
 1268POPC   C3A15343  16.440  24.542  16.518  0.1005  0.0734 -0.0113
 1268POPC   C4A15344  16.443  24.210  16.902  0.0967 -0.0108 -0.2251
 1268POPC   C1B15345  15.653  24.257  15.836  0.5902 -0.0355  0.1660
 1268POPC   C2B15346  15.776  24.094  16.210  0.4301 -0.0678 -0.0542
 1268POPC   C3B15347  15.831  24.092  16.666 -0.0471 -0.0148  0.1807
 1268POPC   C4B15348  15.969  24.015  17.146  0.1521  0.3068  0.0097
 1269POPC   NC315349   9.197  21.072  15.731 -0.2646 -0.1047  0.0078
 1269POPC   PO415350   9.109  21.409  15.489  0.1246  0.1468 -0.0284
 1269POPC   GL115351   8.783  21.439  15.719  0.0763 -0.2776 -0.0229
 1269POPC   GL215352   8.458  21.403  15.650 -0.2401  0.1841 -0.0231
 1269POPC   C1A15353   8.799  21.365  16.189 -0.2684 -0.3311  0.2083
 1269POPC   D2A15354   8.750  21.654  16.563  0.1059  0.1148  0.0298
 1269POPC   C3A15355   8.329  21.728  16.828 -0.2135 -0.2718  0.1069
 1269POPC   C4A15356   7.917  21.863  17.028 -0.2272  0.0017 -0.0295
 1269POPC   C1B15357   8.297  21.194  16.050 -0.1283  0.0677 -0.0758
 1269POPC   C2B15358   8.382  21.182  16.488  0.1571  0.1211 -0.5016
 1269POPC   C3B15359   8.278  20.959  16.844  0.1484  0.3047  0.1037
 1269POPC   C4B15360   8.478  20.993  17.247 -0.1178 -0.0797  0.1643
 1270POPC   NC315361   9.022  30.347  15.114 -0.2020  0.1230 -0.1515
 1270POPC   PO415362   9.160  30.075  15.372  0.0081 -0.0782  0.1097
 1270POPC   GL115363   9.272  30.089  15.741  0.0780  0.2354 -0.0012
 1270POPC   GL215364   9.063  29.876  15.851 -0.2133 -0.1347  0.1759
 1270POPC   C1A15365   9.470  29.990  16.167 -0.0981  0.1260  0.1065
 1270POPC   D2A15366   9.459  29.703  16.561 -0.0006  0.0825  0.0238
 1270POPC   C3A15367   9.707  29.687  16.964 -0.1059  0.0534 -0.1092
 1270POPC   C4A15368   9.726  29.441  17.307  0.0016  0.2939  0.1132
 1270POPC   C1B15369   9.048  29.694  16.287  0.2345  0.1599  0.3014
 1270POPC   C2B15370   8.912  29.730  16.674 -0.0695 -0.0093  0.0394
 1270POPC   C3B15371   8.762  29.735  17.123 -0.0537 -0.0398  0.1701
 1270POPC   C4B15372   8.902  29.999  17.464  0.0908 -0.1859  0.2094
 1271POPC   NC315373   3.354  20.436  15.020 -0.3419  0.3551 -0.1211
 1271POPC   PO415374   3.328  20.223  14.716  0.0910 -0.1796  0.2514
 1271POPC   GL115375   3.285  19.936  14.981  0.1009  0.2495 -0.1085
 1271POPC   GL215376   3.387  19.672  14.826 -0.3931 -0.0271 -0.3354
 1271POPC   C1A15377   3.378  19.988  15.438 -0.0727  0.0616  0.2335
 1271POPC   D2A15378   3.197  19.966  15.863  0.0513  0.0642 -0.1867
 1271POPC   C3A15379   3.232  19.697  16.215 -0.1831  0.0033  0.3598
 1271POPC   C4A15380   3.505  19.565  16.476  0.1506 -0.1419  0.3094
 1271POPC   C1B15381   3.645  19.624  15.235 -0.2056  0.0870  0.2308
 1271POPC   C2B15382   3.731  19.536  15.694  0.0088  0.0715 -0.1361
 1271POPC   C3B15383   3.907  19.492  16.084  0.0508  0.2368 -0.0056
 1271POPC   C4B15384   4.013  19.632  16.526  0.2065  0.0937 -0.1613
 1272POPC   NC315385   5.700  21.999  14.910  0.1234  0.1810  0.2481
 1272POPC   PO415386   5.555  22.028  15.279  0.1136 -0.0781 -0.2290
 1272POPC   GL115387   5.272  21.874  15.527  0.0162 -0.0097  0.0197
 1272POPC   GL215388   5.142  21.662  15.371  0.1167 -0.1328 -0.0470
 1272POPC   C1A15389   5.075  21.981  15.929  0.3336 -0.1584  0.0256
 1272POPC   D2A15390   5.238  22.103  16.383  0.0355 -0.2506  0.0303
 1272POPC   C3A15391   4.900  22.166  16.692  0.3078  0.4343  0.0308
 1272POPC   C4A15392   4.427  22.106  16.647  0.3440 -0.2626  0.0457
 1272POPC   C1B15393   5.005  21.266  15.451 -0.1843 -0.0923 -0.0051
 1272POPC   C2B15394   4.601  21.180  15.644  0.1578  0.0787 -0.1006
 1272POPC   C3B15395   4.326  20.990  15.955 -0.3628 -0.3964 -0.0017
 1272POPC   C4B15396   4.025  20.914  16.290  0.0621  0.0855  0.0505
 1273POPC   NC315397   0.870   0.120  15.346 -0.1560 -0.2185  0.0839
 1273POPC   PO415398   1.209   0.111  15.134 -0.4097 -0.0936  0.1835
 1273POPC   GL115399   1.288  -0.055  15.469 -0.3894  0.2304  0.2551
 1273POPC   GL215400   1.446   0.221  15.555  0.2670  0.0025 -0.0613
 1273POPC   C1A15401   1.649  -0.135  15.824 -0.0016  0.0572  0.0791
 1273POPC   D2A15402   1.814   0.239  16.116  0.2011 -0.0857 -0.1887
 1273POPC   C3A15403   1.966   0.208  16.565 -0.1346 -0.1379 -0.0590
 1273POPC   C4A15404   1.989   0.443  16.920  0.2824  0.0296  0.2094
 1273POPC   C1B15405   1.341   0.352  16.007 -0.0416  0.1037  0.0024
 1273POPC   C2B15406   1.496   0.419  16.432 -0.0619  0.2639 -0.1181
 1273POPC   C3B15407   1.407   0.322  16.873 -0.2068 -0.0442 -0.2428
 1273POPC   C4B15408   1.465  -0.032  17.141  0.1408 -0.1290  0.4437
 1274POPC   NC315409   5.613  18.148  15.043  0.1149  0.0791  0.2734
 1274POPC   PO415410   5.319  17.912  14.962 -0.0434 -0.0380  0.0017
 1274POPC   GL115411   5.114  17.944  15.296 -0.0694  0.0685  0.1861
 1274POPC   GL215412   4.948  18.162  15.189 -0.1117 -0.1169 -0.2894
 1274POPC   C1A15413   5.349  18.187  15.578 -0.0900  0.0239 -0.2070
 1274POPC   D2A15414   5.415  18.147  16.053 -0.1706  0.0116  0.0671
 1274POPC   C3A15415   5.098  18.294  16.382  0.2300  0.4138 -0.0011
 1274POPC   C4A15416   4.867  18.506  16.634 -0.2073 -0.1661 -0.1971
 1274POPC   C1B15417   4.794  18.423  15.551  0.0923 -0.3416  0.2055
 1274POPC   C2B15418   4.806  18.501  16.025  0.0256 -0.2666  0.3061
 1274POPC   C3B15419   4.757  18.816  16.331  0.0856 -0.0572 -0.0887
 1274POPC   C4B15420   4.489  18.939  16.759 -0.0666 -0.0505  0.1763
 1275POPC   NC315421   6.028  25.199  15.146  0.2501 -0.0410  0.0907
 1275POPC   PO415422   5.807  25.501  15.164 -0.0873 -0.1114  0.0228
 1275POPC   GL115423   5.873  25.499  15.551 -0.0709  0.1597 -0.0165
 1275POPC   GL215424   6.124  25.392  15.601 -0.1704  0.1229  0.0291
 1275POPC   C1A15425   5.914  25.615  16.010 -0.1054  0.1457  0.0472
 1275POPC   D2A15426   6.391  25.666  16.103  0.1319  0.0216 -0.0374
 1275POPC   C3A15427   6.542  26.032  16.376 -0.0306 -0.0828  0.2175
 1275POPC   C4A15428   6.616  26.234  16.809 -0.1437  0.0324  0.0611
 1275POPC   C1B15429   6.216  25.181  16.003  0.0152 -0.0571 -0.0343
 1275POPC   C2B15430   6.450  25.236  16.409  0.0591  0.1867  0.1183
 1275POPC   C3B15431   6.699  25.534  16.605 -0.1697  0.1140 -0.0374
 1275POPC   C4B15432   6.711  25.572  17.059  0.0594  0.1617  0.0630
 1276POPC   NC315433  13.483  27.473  15.641  0.2477 -0.0107  0.1257
 1276POPC   PO415434  13.425  27.239  15.411  0.0518  0.0859  0.0242
 1276POPC   GL115435  13.462  26.997  15.692 -0.1827  0.0659  0.3202
 1276POPC   GL215436  13.732  26.980  15.736  0.0406  0.2132  0.0750
 1276POPC   C1A15437  13.436  26.974  16.160 -0.1527 -0.1042 -0.1922
 1276POPC   D2A15438  13.641  27.017  16.567 -0.2854  0.1540 -0.0860
 1276POPC   C3A15439  13.676  26.816  16.976  0.4421  0.0360 -0.2055
 1276POPC   C4A15440  13.785  26.751  17.417  0.0489 -0.1813 -0.3295
 1276POPC   C1B15441  13.756  27.281  16.087  0.0413  0.3332  0.2483
 1276POPC   C2B15442  13.595  27.497  16.498  0.0605 -0.0150 -0.3537
 1276POPC   C3B15443  13.628  27.427  16.942  0.1928 -0.1066 -0.1061
 1276POPC   C4B15444  13.591  27.217  17.372 -0.1771 -0.1921  0.2529
 1277POPC   NC315445   6.308  18.537  15.414  0.0751  0.2213 -0.0927
 1277POPC   PO415446   6.400  18.757  15.122 -0.0349  0.0606 -0.1383
 1277POPC   GL115447   6.243  19.039  15.340 -0.0515 -0.2562 -0.2275
 1277POPC   GL215448   6.415  19.200  15.584  0.1613  0.1595 -0.0167
 1277POPC   C1A15449   5.900  19.247  15.576  0.0856  0.0031  0.1417
 1277POPC   D2A15450   5.699  19.517  15.907 -0.1258  0.3212  0.0438
 1277POPC   C3A15451   5.447  19.710  16.253  0.1237 -0.0827  0.0269
 1277POPC   C4A15452   5.207  19.845  16.658 -0.0686  0.0366 -0.0369
 1277POPC   C1B15453   6.236  19.316  15.877 -0.1201 -0.0879 -0.2347
 1277POPC   C2B15454   6.009  19.336  16.263  0.0638  0.1775  0.2003
 1277POPC   C3B15455   6.016  19.334  16.732  0.1479  0.0898 -0.0811
 1277POPC   C4B15456   5.779  19.379  17.086 -0.1893  0.0307 -0.1845
 1278POPC   NC315457   9.192  11.028  15.769 -0.2280 -0.0169  0.0750
 1278POPC   PO415458   9.579  11.123  15.739 -0.1146 -0.0176  0.1578
 1278POPC   GL115459   9.643  11.242  16.086  0.0366  0.1600 -0.0941
 1278POPC   GL215460   9.746  11.519  16.170 -0.0773  0.2694 -0.0675
 1278POPC   C1A15461   9.389  11.464  16.447 -0.0283  0.0881  0.3167
 1278POPC   D2A15462   9.574  11.747  16.797 -0.0059 -0.1270 -0.2513
 1278POPC   C3A15463   9.447  12.164  16.854 -0.3539  0.2255  0.0545
 1278POPC   C4A15464   9.465  12.647  16.971  0.2478 -0.1221  0.1619
 1278POPC   C1B15465  10.002  11.506  16.530  0.1563  0.1913 -0.2394
 1278POPC   C2B15466  10.160  11.560  16.998 -0.0314  0.2416 -0.2455
 1278POPC   C3B15467  10.068  11.301  17.373 -0.3187 -0.4002  0.1934
 1278POPC   C4B15468  10.154  11.238  17.823 -0.3045 -0.0016 -0.0121
 1279POPC   NC315469  14.711   7.441  15.408  0.0247  0.3331 -0.1101
 1279POPC   PO415470  14.726   7.033  15.482  0.2476  0.0885 -0.1074
 1279POPC   GL115471  14.790   7.071  15.885 -0.1446  0.2219  0.0582
 1279POPC   GL215472  14.550   6.901  15.939  0.1330 -0.0085  0.0276
 1279POPC   C1A15473  14.937   6.758  16.209 -0.2302 -0.3158  0.0554
 1279POPC   D2A15474  14.939   6.612  16.656  0.0360  0.2357  0.0581
 1279POPC   C3A15475  15.311   6.587  16.946  0.2894  0.3323  0.3028
 1279POPC   C4A15476  15.571   6.534  17.289 -0.0400  0.0697 -0.2692
 1279POPC   C1B15477  14.389   6.777  16.345 -0.1021 -0.0475 -0.0514
 1279POPC   C2B15478  14.191   6.753  16.787  0.1491  0.3688 -0.0616
 1279POPC   C3B15479  14.362   6.668  17.176  0.1342  0.1403 -0.0549
 1279POPC   C4B15480  14.642   6.748  17.518 -0.1520 -0.3497  0.0440
 1280POPC   NC315481   2.390   1.726  14.884 -0.1485 -0.0643  0.0243
 1280POPC   PO415482   2.027   1.581  14.832 -0.0014  0.1165 -0.1101
 1280POPC   GL115483   2.132   1.452  15.212 -0.2498  0.0414  0.3654
 1280POPC   GL215484   1.986   1.289  15.434  0.0514  0.1745 -0.1270
 1280POPC   C1A15485   2.252   1.748  15.604 -0.0853  0.1425 -0.0256
 1280POPC   D2A15486   2.058   2.188  15.693 -0.2367  0.1003 -0.0605
 1280POPC   C3A15487   2.198   2.272  16.137  0.0139 -0.1620 -0.0303
 1280POPC   C4A15488   2.202   2.501  16.540 -0.1197  0.0727 -0.0007
 1280POPC   C1B15489   1.638   1.152  15.757 -0.3436 -0.0287 -0.0603
 1280POPC   C2B15490   1.441   1.434  16.134  0.1403  0.1101  0.2057
 1280POPC   C3B15491   1.647   1.617  16.537  0.2408  0.1690  0.1259
 1280POPC   C4B15492   1.616   1.796  16.920 -0.1326 -0.1691  0.1843
 1281POPC   NC315493  13.225  14.337  14.884  0.1606  0.2393  0.0976
 1281POPC   PO415494  13.090  14.698  14.911  0.1830 -0.4850 -0.1178
 1281POPC   GL115495  12.928  14.534  15.230 -0.0848 -0.3041 -0.0950
 1281POPC   GL215496  12.694  14.343  15.178 -0.1469  0.1486  0.0179
 1281POPC   C1A15497  12.850  14.428  15.671 -0.0526  0.0989  0.0395
 1281POPC   D2A15498  13.044  14.348  16.074 -0.2093  0.0845  0.2271
 1281POPC   C3A15499  13.016  14.530  16.516 -0.2426 -0.0494 -0.0015
 1281POPC   C4A15500  13.096  14.432  16.960  0.0999  0.0689  0.2884
 1281POPC   C1B15501  12.371  14.377  15.491 -0.1552  0.1514 -0.0647
 1281POPC   C2B15502  12.200  14.230  15.896  0.0638 -0.0137 -0.0480
 1281POPC   C3B15503  11.779  14.220  16.077  0.2071 -0.1207 -0.2938
 1281POPC   C4B15504  11.645  14.377  16.514  0.0772  0.0035 -0.4092
 1282POPC   NC315505   8.476  21.062  15.286  0.2394 -0.0664  0.0246
 1282POPC   PO415506   8.796  20.965  15.458 -0.2489 -0.0256 -0.1007
 1282POPC   GL115507   8.540  20.826  15.758 -0.1787  0.1163 -0.1033
 1282POPC   GL215508   8.752  20.868  16.027  0.0695 -0.0186  0.0487
 1282POPC   C1A15509   8.421  20.533  16.094  0.0758 -0.1956  0.0495
 1282POPC   D2A15510   8.308  20.623  16.523  0.0353  0.0045  0.0487
 1282POPC   C3A15511   8.596  20.526  16.864  0.0512 -0.1294  0.0467
 1282POPC   C4A15512   8.837  20.547  17.307  0.2424 -0.1639 -0.1590
 1282POPC   C1B15513   8.737  20.798  16.461  0.1794 -0.1521 -0.0370
 1282POPC   C2B15514   8.990  20.826  16.898  0.0203  0.3207  0.0536
 1282POPC   C3B15515   9.172  21.121  17.169  0.1061 -0.0564 -0.0050
 1282POPC   C4B15516   8.994  21.431  17.425 -0.2442  0.1297 -0.1032
 1283POPC   NC315517   3.328  19.845  14.303 -0.0605 -0.1893 -0.1056
 1283POPC   PO415518   3.061  19.547  14.282  0.0917 -0.0502  0.1619
 1283POPC   GL115519   3.010  19.351  14.595 -0.0034  0.1620 -0.0479
 1283POPC   GL215520   2.794  19.478  14.700 -0.2131  0.3037  0.0106
 1283POPC   C1A15521   3.209  19.248  14.965 -0.3523  0.0461 -0.2654
 1283POPC   D2A15522   3.656  19.148  15.045 -0.0952 -0.2018  0.1837
 1283POPC   C3A15523   3.907  18.918  15.389  0.1303 -0.4008 -0.0793
 1283POPC   C4A15524   3.981  18.881  15.853 -0.1033 -0.3444  0.3804
 1283POPC   C1B15525   2.935  19.625  15.124  0.0818  0.1478 -0.1166
 1283POPC   C2B15526   3.181  19.516  15.507 -0.0254 -0.0691 -0.0547
 1283POPC   C3B15527   2.992  19.367  15.885  0.1175  0.0358  0.3196
 1283POPC   C4B15528   3.025  19.220  16.328  0.1223  0.0650 -0.0419
 1284POPC   NC315529   7.452  10.546  14.983  0.1265  0.0229 -0.0177
 1284POPC   PO415530   7.465  10.512  15.374 -0.2859  0.0225 -0.1233
 1284POPC   GL115531   7.601  10.438  15.736 -0.1394  0.0798  0.1079
 1284POPC   GL215532   7.395  10.433  15.871  0.2003  0.2248  0.1796
 1284POPC   C1A15533   7.769  10.715  16.072 -0.0633 -0.1911 -0.0089
 1284POPC   D2A15534   7.556  10.979  16.417  0.2968 -0.0557 -0.1082
 1284POPC   C3A15535   7.446  10.873  16.786  0.1254 -0.0991 -0.0464
 1284POPC   C4A15536   7.511  10.544  17.124  0.0235  0.2259  0.0092
 1284POPC   C1B15537   7.099  10.708  16.074  0.0411  0.1003 -0.1876
 1284POPC   C2B15538   7.105  10.703  16.506  0.0317  0.0395  0.0657
 1284POPC   C3B15539   6.894  10.814  16.871 -0.0264 -0.5063  0.0903
 1284POPC   C4B15540   6.548  10.903  17.039 -0.0148  0.0329 -0.0220
 1285POPC   NC315541   9.850  10.359  15.641 -0.0093 -0.4610 -0.0872
 1285POPC   PO415542   9.493  10.206  15.665 -0.1587  0.2603  0.1263
 1285POPC   GL115543   9.562  10.071  16.062 -0.1812  0.0365 -0.1739
 1285POPC   GL215544   9.802  10.311  16.164 -0.1212  0.2013  0.0502
 1285POPC   C1A15545   9.749   9.822  16.407 -0.0915 -0.2642 -0.0671
 1285POPC   D2A15546   9.624   9.560  16.746 -0.2221 -0.0451 -0.1780
 1285POPC   C3A15547   9.854   9.492  17.118 -0.1763  0.0490 -0.0032
 1285POPC   C4A15548  10.054   9.803  17.441 -0.1569  0.2460 -0.0077
 1285POPC   C1B15549   9.562  10.369  16.573 -0.0727 -0.0946  0.1923
 1285POPC   C2B15550   9.124  10.314  16.811 -0.1407  0.0325  0.1837
 1285POPC   C3B15551   8.942  10.606  17.134 -0.2560  0.1645 -0.0344
 1285POPC   C4B15552   8.614  10.615  17.460  0.2239  0.1091 -0.3018
 1286POPC   NC315553  15.613   8.574  15.415  0.3885 -0.1663 -0.1323
 1286POPC   PO415554  15.602   8.931  15.186 -0.1297 -0.1702  0.1855
 1286POPC   GL115555  15.319   8.919  15.500 -0.5606 -0.1853  0.1250
 1286POPC   GL215556  15.275   9.197  15.632  0.0432  0.1969 -0.0429
 1286POPC   C1A15557  15.376   8.849  15.975 -0.0251 -0.2867 -0.1894
 1286POPC   D2A15558  15.439   8.947  16.420  0.3577  0.0197  0.1343
 1286POPC   C3A15559  15.553   8.622  16.729 -0.4760  0.0379 -0.1020
 1286POPC   C4A15560  15.549   8.394  17.122 -0.1071 -0.2618 -0.1799
 1286POPC   C1B15561  15.407   9.335  16.032  0.0374  0.0737 -0.1463
 1286POPC   C2B15562  15.595   9.717  16.231 -0.2807 -0.3005 -0.0605
 1286POPC   C3B15563  15.443  10.027  16.552 -0.2373 -0.2334  0.1778
 1286POPC   C4B15564  15.260  10.334  16.869 -0.3913  0.0688  0.1431
 1287POPC   NC315565  11.734  27.981  15.342  0.0305 -0.2358  0.0174
 1287POPC   PO415566  12.076  27.890  15.388 -0.2985 -0.1416 -0.1927
 1287POPC   GL115567  11.892  28.121  15.753 -0.2034  0.1259 -0.2189
 1287POPC   GL215568  11.690  27.990  15.880  0.0121 -0.5059  0.1354
 1287POPC   C1A15569  11.923  28.428  16.130 -0.0231  0.3633 -0.1595
 1287POPC   D2A15570  11.665  28.714  16.404 -0.3028  0.3180  0.1405
 1287POPC   C3A15571  11.602  28.780  16.808  0.3805 -0.0757 -0.0469
 1287POPC   C4A15572  11.482  28.566  17.218  0.1926  0.0443  0.1617
 1287POPC   C1B15573  11.355  27.826  16.176 -0.0605 -0.1192 -0.0179
 1287POPC   C2B15574  11.283  27.869  16.642  0.1468 -0.1827  0.0218
 1287POPC   C3B15575  11.375  27.696  17.042 -0.0954  0.0491  0.1504
 1287POPC   C4B15576  11.309  27.265  17.198 -0.0064 -0.0175 -0.0925
 1288POPC   NC315577  14.299  25.949  15.531 -0.0519  0.1774 -0.1496
 1288POPC   PO415578  14.590  25.750  15.304  0.1422 -0.2667  0.1195
 1288POPC   GL115579  14.797  25.516  15.558 -0.2688 -0.0957 -0.5484
 1288POPC   GL215580  14.849  25.259  15.497  0.1347  0.0978  0.1491
 1288POPC   C1A15581  15.075  25.759  15.866 -0.2715 -0.2231  0.2036
 1288POPC   D2A15582  15.223  25.832  16.298 -0.1685  0.2549  0.1375
 1288POPC   C3A15583  15.582  25.935  16.596 -0.1211  0.1247  0.0616
 1288POPC   C4A15584  15.817  26.180  16.944  0.2373 -0.0689  0.1792
 1288POPC   C1B15585  14.969  25.293  15.951 -0.1627  0.1459  0.2479
 1288POPC   C2B15586  15.148  25.312  16.401  0.0055 -0.0210  0.2629
 1288POPC   C3B15587  15.433  25.401  16.688  0.0280  0.2731  0.3351
 1288POPC   C4B15588  15.540  25.676  17.009 -0.2395 -0.1247 -0.0131
 1289POPC   NC315589  10.799  22.902  15.633  0.0424 -0.0306 -0.0583
 1289POPC   PO415590  10.936  23.221  15.402  0.1202 -0.2498 -0.1874
 1289POPC   GL115591  10.642  23.495  15.612 -0.0624 -0.2433 -0.2855
 1289POPC   GL215592  10.337  23.586  15.499 -0.0097 -0.2368  0.1552
 1289POPC   C1A15593  10.492  23.371  16.026  0.2999 -0.0225  0.2649
 1289POPC   D2A15594  10.523  23.378  16.483 -0.0285  0.2777 -0.0188
 1289POPC   C3A15595  10.323  23.706  16.768  0.0382 -0.2054  0.0188
 1289POPC   C4A15596   9.969  23.863  17.053  0.0811 -0.0555 -0.3361
 1289POPC   C1B15597  10.291  23.843  15.859 -0.0404  0.2745  0.3552
 1289POPC   C2B15598  10.474  23.943  16.282  0.1366 -0.2287  0.1168
 1289POPC   C3B15599  10.746  23.875  16.636  0.1126  0.1816  0.0596
 1289POPC   C4B15600  10.871  23.573  16.938  0.2631  0.1540  0.1827
 1290POPC   NC315601   2.796  20.088  15.476 -0.1988 -0.1610 -0.0252
 1290POPC   PO415602   2.857  20.388  15.225  0.0015  0.2497 -0.0811
 1290POPC   GL115603   2.836  20.757  15.506 -0.1026 -0.0053 -0.0259
 1290POPC   GL215604   2.712  20.604  15.685 -0.2126  0.1050 -0.1369
 1290POPC   C1A15605   3.051  20.879  15.874 -0.2722  0.5171 -0.0469
 1290POPC   D2A15606   2.900  20.765  16.337 -0.1601  0.3098  0.0927
 1290POPC   C3A15607   2.987  20.569  16.763  0.1184  0.1682 -0.0416
 1290POPC   C4A15608   3.218  20.476  17.126  0.0471  0.0661 -0.1365
 1290POPC   C1B15609   2.795  20.295  15.961 -0.0108 -0.1980 -0.0518
 1290POPC   C2B15610   2.969  20.190  16.416  0.1661  0.0580  0.2926
 1290POPC   C3B15611   3.028  20.084  16.869 -0.0250  0.0923 -0.3756
 1290POPC   C4B15612   3.266  19.901  17.176  0.1415 -0.4370 -0.0309
 1291POPC   NC315613  12.743  23.926  14.813 -0.0184 -0.1004  0.2624
 1291POPC   PO415614  12.824  23.587  15.034  0.0875  0.0930 -0.1822
 1291POPC   GL115615  13.001  23.412  15.396  0.1708  0.2257  0.2340
 1291POPC   GL215616  13.174  23.625  15.487  0.0124  0.1499 -0.2318
 1291POPC   C1A15617  13.194  23.329  15.870  0.2135 -0.0059  0.1049
 1291POPC   D2A15618  13.633  23.163  16.110 -0.1171  0.0124 -0.0951
 1291POPC   C3A15619  13.443  23.068  16.517  0.1378  0.1412  0.1175
 1291POPC   C4A15620  13.541  22.872  16.907  0.3065  0.2286 -0.0606
 1291POPC   C1B15621  12.866  23.782  15.875  0.0557  0.0868 -0.0486
 1291POPC   C2B15622  12.785  23.688  16.270  0.0632  0.2563  0.1142
 1291POPC   C3B15623  12.719  23.709  16.745 -0.0948  0.2083  0.0448
 1291POPC   C4B15624  12.844  23.521  17.127 -0.1197  0.0243  0.1694
 1292POPC   NC315625  10.710  17.054  14.536  0.1666 -0.3401  0.0593
 1292POPC   PO415626  10.823  16.958  14.939 -0.1282 -0.2292  0.1077
 1292POPC   GL115627  10.670  16.844  15.350 -0.1746  0.0703  0.0545
 1292POPC   GL215628  10.924  16.859  15.442  0.0641 -0.2253  0.1960
 1292POPC   C1A15629  10.454  16.569  15.681 -0.0613 -0.3349  0.1379
 1292POPC   D2A15630  10.477  16.469  16.164  0.3591  0.3295  0.0683
 1292POPC   C3A15631  10.549  16.058  16.437  0.3745  0.1328  0.1086
 1292POPC   C4A15632  10.851  15.720  16.361  0.4521 -0.4111 -0.0284
 1292POPC   C1B15633  10.915  16.669  15.901  0.1896  0.0627 -0.0443
 1292POPC   C2B15634  10.941  16.235  16.081  0.0037  0.0042 -0.0442
 1292POPC   C3B15635  11.293  15.891  16.143 -0.0704  0.0882  0.0308
 1292POPC   C4B15636  11.289  15.447  16.349  0.1823 -0.0733 -0.2650
 1293POPC   NC315637  13.546  13.436  14.845 -0.1213 -0.1015  0.3404
 1293POPC   PO415638  13.416  13.801  14.967  0.1167  0.0710 -0.1993
 1293POPC   GL115639  13.459  13.751  15.271  0.0316 -0.3895  0.1798
 1293POPC   GL215640  13.667  13.636  15.363  0.0228 -0.4516  0.1526
 1293POPC   C1A15641  13.448  14.045  15.638  0.0861  0.0186 -0.0993
 1293POPC   D2A15642  13.513  14.308  16.015 -0.0872  0.0847 -0.0544
 1293POPC   C3A15643  13.900  14.257  16.285  0.2736  0.0558 -0.1095
 1293POPC   C4A15644  14.261  14.088  16.523  0.0359 -0.2505 -0.1864
 1293POPC   C1B15645  13.616  13.512  15.765 -0.2567  0.0200 -0.1962
 1293POPC   C2B15646  13.279  13.694  15.983  0.0561 -0.0585  0.1475
 1293POPC   C3B15647  12.985  13.830  16.315 -0.1747 -0.2122 -0.0503
 1293POPC   C4B15648  12.863  13.932  16.765  0.1741 -0.0460  0.2930
 1294POPC   NC315649  10.174  19.370  15.467  0.0798  0.2720 -0.0704
 1294POPC   PO415650  10.356  19.339  15.111  0.1401  0.2750  0.1273
 1294POPC   GL115651  10.626  19.479  15.400  0.1519 -0.1173 -0.2808
 1294POPC   GL215652  10.516  19.724  15.541  0.2853 -0.1499  0.3451
 1294POPC   C1A15653  10.766  19.336  15.835  0.0161 -0.0934  0.1704
 1294POPC   D2A15654  10.661  19.234  16.271  0.2857  0.0959  0.0902
 1294POPC   C3A15655  10.803  18.902  16.504 -0.2029  0.0277 -0.0386
 1294POPC   C4A15656  10.694  18.505  16.712 -0.0985  0.1164 -0.4011
 1294POPC   C1B15657  10.408  19.627  16.009 -0.3049 -0.2471 -0.0718
 1294POPC   C2B15658  10.511  19.628  16.484 -0.1849  0.0422  0.1545
 1294POPC   C3B15659  10.698  19.756  16.931  0.1723 -0.1005 -0.1875
 1294POPC   C4B15660  10.536  19.839  17.390  0.1864 -0.2069 -0.3480
 1295POPC   NC315661  14.549  18.193  15.323  0.1189  0.0986 -0.0068
 1295POPC   PO415662  14.710  18.089  15.628 -0.2516  0.1009 -0.1057
 1295POPC   GL115663  14.529  17.928  15.997  0.2229  0.1884 -0.0516
 1295POPC   GL215664  14.461  17.673  15.886  0.1558  0.0239  0.0214
 1295POPC   C1A15665  14.633  17.933  16.442 -0.0188  0.0240 -0.3192
 1295POPC   D2A15666  14.552  18.135  16.881 -0.2530 -0.1778  0.3410
 1295POPC   C3A15667  14.414  17.928  17.242  0.0009  0.0999 -0.0639
 1295POPC   C4A15668  14.326  17.513  17.500  0.0906  0.0288  0.1551
 1295POPC   C1B15669  14.334  17.596  16.299  0.1082  0.1333 -0.1877
 1295POPC   C2B15670  14.393  17.624  16.795  0.4207  0.3500  0.0579
 1295POPC   C3B15671  14.131  17.336  17.026 -0.1930 -0.4996 -0.4682
 1295POPC   C4B15672  14.111  16.979  17.346  0.0515  0.1723 -0.0005
 1296POPC   NC315673   7.211  26.619  14.260 -0.0267  0.3937 -0.3654
 1296POPC   PO415674   6.953  26.559  14.535 -0.2103  0.0081  0.0033
 1296POPC   GL115675   6.978  26.322  14.845 -0.1989 -0.1567 -0.5008
 1296POPC   GL215676   7.105  26.519  15.060  0.2591 -0.2764  0.1604
 1296POPC   C1A15677   7.215  26.017  15.079  0.1203  0.1764  0.2440
 1296POPC   D2A15678   7.474  25.878  15.393  0.3731  0.2759 -0.1069
 1296POPC   C3A15679   7.759  26.071  15.706 -0.2262 -0.1736  0.2730
 1296POPC   C4A15680   8.096  25.817  15.757 -0.1426  0.2228 -0.1959
 1296POPC   C1B15681   7.343  26.521  15.459 -0.0832  0.2121 -0.1912
 1296POPC   C2B15682   7.635  26.605  15.814  0.0647  0.1562  0.1963
 1296POPC   C3B15683   7.788  26.445  16.229  0.1714 -0.0897 -0.0351
 1296POPC   C4B15684   7.709  26.384  16.661 -0.1929 -0.0181 -0.1419
 1297POPC   NC315685   4.589  21.138  14.761 -0.0939 -0.0850  0.2482
 1297POPC   PO415686   4.846  21.497  14.753  0.2659 -0.0479 -0.2600
 1297POPC   GL115687   4.742  21.453  15.164 -0.1813 -0.0976  0.0593
 1297POPC   GL215688   4.471  21.399  15.191  0.4300 -0.0469 -0.2030
 1297POPC   C1A15689   4.715  21.663  15.596 -0.0322 -0.1735  0.0482
 1297POPC   D2A15690   4.505  21.568  15.991 -0.1569  0.0831 -0.0177
 1297POPC   C3A15691   4.238  21.368  16.290  0.1331  0.2889  0.0149
 1297POPC   C4A15692   4.056  21.246  16.659  0.1594  0.1994 -0.0799
 1297POPC   C1B15693   4.638  20.951  15.253 -0.1617  0.0963 -0.1855
 1297POPC   C2B15694   4.704  20.589  15.509 -0.4026  0.0370 -0.1895
 1297POPC   C3B15695   4.973  20.448  15.830  0.0346  0.0098  0.0682
 1297POPC   C4B15696   5.123  20.243  16.147  0.3643 -0.1234 -0.3119
 1298POPC   NC315697   9.479   5.187  14.929  0.2281 -0.1552 -0.1202
 1298POPC   PO415698   9.431   5.117  15.293 -0.2477 -0.1571  0.0590
 1298POPC   GL115699   9.483   5.229  15.587  0.2364  0.1265 -0.1647
 1298POPC   GL215700   9.758   5.349  15.713 -0.0808 -0.0350  0.1507
 1298POPC   C1A15701   9.325   5.436  15.991 -0.1390  0.2751 -0.0987
 1298POPC   D2A15702   9.435   5.748  16.278  0.0039 -0.1888 -0.1494
 1298POPC   C3A15703   9.508   5.671  16.702  0.2000 -0.2317  0.0170
 1298POPC   C4A15704   9.466   5.810  17.219 -0.0375 -0.0671  0.3777
 1298POPC   C1B15705   9.917   5.379  16.146  0.0367 -0.1303 -0.0104
 1298POPC   C2B15706  10.049   5.495  16.541  0.1973  0.4196  0.1450
 1298POPC   C3B15707   9.961   5.564  17.026  0.1883 -0.0640 -0.1054
 1298POPC   C4B15708  10.075   5.803  17.370  0.1757 -0.1883  0.0588
 1299POPC   NC315709  12.318  28.364  15.846 -0.2311 -0.1135 -0.1461
 1299POPC   PO415710  12.470  28.701  15.663  0.2648  0.0940  0.0424
 1299POPC   GL115711  12.484  28.756  16.094  0.1389  0.0341  0.0732
 1299POPC   GL215712  12.799  28.822  16.107  0.2215  0.2179 -0.3575
 1299POPC   C1A15713  12.232  28.832  16.475  0.4878 -0.3237  0.1344
 1299POPC   D2A15714  12.023  29.164  16.726 -0.3662 -0.2211 -0.3469
 1299POPC   C3A15715  11.913  29.492  17.055 -0.1247  0.1177 -0.0724
 1299POPC   C4A15716  12.205  29.867  17.157  0.1798  0.2432 -0.0060
 1299POPC   C1B15717  12.681  28.705  16.524  0.1999 -0.0388 -0.2410
 1299POPC   C2B15718  12.415  28.562  16.867 -0.2955  0.1485  0.1791
 1299POPC   C3B15719  12.049  28.707  17.079  0.0188  0.0916  0.0089
 1299POPC   C4B15720  11.823  29.010  17.336  0.1185 -0.1292  0.1443
 1300POPC   NC315721  12.613  25.443  15.484 -0.0888 -0.1742 -0.0942
 1300POPC   PO415722  12.237  25.408  15.459  0.1066 -0.4104 -0.0894
 1300POPC   GL115723  12.429  25.548  15.881  0.1335  0.0776  0.1171
 1300POPC   GL215724  12.119  25.422  15.953 -0.1409 -0.3088  0.1615
 1300POPC   C1A15725  12.404  25.604  16.361 -0.3858 -0.0604  0.0325
 1300POPC   D2A15726  12.361  25.507  16.815 -0.4104 -0.1502  0.0135
 1300POPC   C3A15727  12.588  25.512  17.196 -0.4525 -0.0415  0.2079
 1300POPC   C4A15728  12.369  25.647  17.566  0.1137 -0.1135 -0.1130
 1300POPC   C1B15729  11.988  25.305  16.339  0.3018 -0.2551 -0.1064
 1300POPC   C2B15730  11.898  25.216  16.797  0.0833 -0.0817 -0.0904
 1300POPC   C3B15731  11.618  25.238  17.188  0.1064  0.2270 -0.5416
 1300POPC   C4B15732  11.795  25.370  17.619  0.7068 -0.1543  0.1286
 1301POPC   NC315733   8.259  15.551  15.106 -0.3201 -0.3003 -0.0747
 1301POPC   PO415734   8.019  15.736  15.389  0.1324 -0.2391  0.0731
 1301POPC   GL115735   8.147  15.829  15.752 -0.1457 -0.1820  0.0553
 1301POPC   GL215736   8.387  15.610  15.789 -0.0825  0.0636 -0.1967
 1301POPC   C1A15737   8.040  15.572  16.139 -0.0304 -0.1214  0.0257
 1301POPC   D2A15738   7.742  15.487  16.476  0.3191  0.1156  0.0591
 1301POPC   C3A15739   7.843  15.348  16.911 -0.2525  0.0671 -0.0423
 1301POPC   C4A15740   8.073  15.059  17.226  0.1511 -0.0886 -0.1369
 1301POPC   C1B15741   8.382  15.228  15.960 -0.1989 -0.1447  0.3257
 1301POPC   C2B15742   8.527  14.975  16.275  0.0624  0.1946 -0.0717
 1301POPC   C3B15743   8.275  14.604  16.469 -0.0769 -0.0073  0.1375
 1301POPC   C4B15744   8.129  14.189  16.490 -0.0967  0.3827  0.0894
 1302POPC   NC315745   9.977  14.162  15.186 -0.4357  0.0623 -0.1765
 1302POPC   PO415746  10.090  14.542  15.062 -0.1079 -0.0045  0.2814
 1302POPC   GL115747  10.423  14.376  15.104 -0.0869 -0.0629  0.2872
 1302POPC   GL215748  10.478  14.399  15.395 -0.2556  0.0239  0.3748
 1302POPC   C1A15749  10.457  13.952  15.340 -0.0297  0.0574  0.0828
 1302POPC   D2A15750  10.058  13.845  15.587 -0.1092 -0.0901  0.2059
 1302POPC   C3A15751  10.149  13.772  16.037 -0.2200  0.1261 -0.0072
 1302POPC   C4A15752  10.147  13.830  16.482  0.1829 -0.1463  0.0562
 1302POPC   C1B15753  10.117  14.350  15.725 -0.0537  0.1849 -0.0003
 1302POPC   C2B15754  10.024  14.215  16.122 -0.2923 -0.0047  0.2081
 1302POPC   C3B15755  10.005  14.282  16.604 -0.0076  0.2707 -0.1763
 1302POPC   C4B15756  10.012  14.031  17.014  0.1626 -0.1219  0.3411
 1303POPC   NC315757   0.360  27.731  15.559 -0.0528  0.1997 -0.2814
 1303POPC   PO415758   0.068  27.468  15.419 -0.2073  0.0038  0.0275
 1303POPC   GL115759   0.104  27.374  15.813 -0.0295 -0.1661 -0.3644
 1303POPC   GL215760   0.364  27.386  15.929 -0.1470  0.3010  0.1117
 1303POPC   C1A15761   0.212  26.925  15.944 -0.1554 -0.0436  0.1227
 1303POPC   D2A15762   0.199  26.613  16.372 -0.0440 -0.0601 -0.2726
 1303POPC   C3A15763   0.539  26.497  16.603  0.0866  0.2679 -0.1114
 1303POPC   C4A15764   0.958  26.270  16.565 -0.0214  0.1669 -0.0299
 1303POPC   C1B15765   0.546  27.716  16.215  0.2188  0.0068 -0.0451
 1303POPC   C2B15766   0.676  27.832  16.629  0.1628 -0.3681 -0.2173
 1303POPC   C3B15767   0.760  28.106  17.026  0.1700 -0.3523  0.3326
 1303POPC   C4B15768   0.687  28.113  17.432 -0.0097  0.2495 -0.2327
 1304POPC   NC315769   4.547  30.006  15.218 -0.0403 -0.0249 -0.0822
 1304POPC   PO415770   4.896  30.056  15.029  0.0411 -0.0547  0.0833
 1304POPC   GL115771   5.113  30.083  15.370 -0.1386 -0.2515 -0.4412
 1304POPC   GL215772   4.953  29.996  15.625 -0.2449  0.0568  0.1801
 1304POPC   C1A15773   5.026  30.476  15.629  0.0809 -0.0512  0.1371
 1304POPC   D2A15774   5.112  30.712  15.981 -0.3382  0.1389  0.1650
 1304POPC   C3A15775   5.062  30.650  16.478  0.0189 -0.1282 -0.2587
 1304POPC   C4A15776   4.949  30.549  16.908 -0.2765  0.1488  0.1492
 1304POPC   C1B15777   5.305  29.869  15.917 -0.0937 -0.2687  0.3301
 1304POPC   C2B15778   5.602  30.034  16.242  0.2056  0.3013  0.1668
 1304POPC   C3B15779   5.858  30.204  16.585  0.2821  0.0193 -0.1170
 1304POPC   C4B15780   5.983  30.511  16.900 -0.0331  0.1243  0.1435
 1305POPC   NC315781   4.023  25.600  15.315  0.0616  0.2365 -0.2084
 1305POPC   PO415782   4.223  25.923  15.382 -0.0895 -0.0300  0.0691
 1305POPC   GL115783   4.133  25.877  15.796 -0.1208 -0.1923  0.4035
 1305POPC   GL215784   4.374  25.676  15.811  0.0934  0.1004 -0.0018
 1305POPC   C1A15785   4.271  26.056  16.218 -0.0191 -0.1779 -0.1640
 1305POPC   D2A15786   4.496  26.096  16.607  0.2169  0.4391  0.1487
 1305POPC   C3A15787   4.332  25.894  17.012 -0.0639 -0.1396  0.2030
 1305POPC   C4A15788   4.504  25.655  17.379  0.1497  0.0823 -0.1529
 1305POPC   C1B15789   4.474  25.606  16.265 -0.0176 -0.0663  0.1759
 1305POPC   C2B15790   4.167  25.705  16.590 -0.0967 -0.2877  0.3588
 1305POPC   C3B15791   3.885  25.725  16.930  0.1456 -0.1254  0.1855
 1305POPC   C4B15792   3.476  25.871  17.208  0.1973 -0.1567  0.0065
 1306POPC   NC315793  14.086  23.464  15.113  0.0137 -0.2845 -0.0831
 1306POPC   PO415794  14.271  23.210  15.365  0.0442 -0.1023  0.0064
 1306POPC   GL115795  14.398  22.908  15.597  0.3117 -0.4840  0.2527
 1306POPC   GL215796  14.574  23.172  15.769  0.1383  0.1545 -0.0698
 1306POPC   C1A15797  14.307  22.804  16.038  0.1063  0.1055 -0.0830
 1306POPC   D2A15798  14.370  22.638  16.494 -0.1789  0.0665 -0.4370
 1306POPC   C3A15799  14.242  22.163  16.595 -0.4037  0.1360 -0.2863
 1306POPC   C4A15800  14.047  21.765  16.729  0.0338  0.1636  0.1303
 1306POPC   C1B15801  14.570  23.424  16.086  0.1244  0.0902  0.1211
 1306POPC   C2B15802  14.442  23.310  16.521  0.0345 -0.1526  0.1309
 1306POPC   C3B15803  14.204  23.653  16.805 -0.0059 -0.0803 -0.3574
 1306POPC   C4B15804  14.117  23.869  17.166  0.0372  0.2409 -0.1780
 1307POPC   NC315805  11.236  17.176  15.179 -0.3965 -0.0972  0.2193
 1307POPC   PO415806  11.415  17.509  15.068 -0.0182  0.0693  0.4317
 1307POPC   GL115807  11.696  17.396  15.301 -0.3297 -0.1679 -0.1402
 1307POPC   GL215808  11.611  17.328  15.575  0.1809  0.1868  0.1388
 1307POPC   C1A15809  11.984  17.663  15.500 -0.0030  0.1122  0.3783
 1307POPC   D2A15810  12.395  17.866  15.621 -0.0579  0.3358  0.3568
 1307POPC   C3A15811  12.495  17.894  16.015 -0.1320 -0.1500 -0.0862
 1307POPC   C4A15812  12.543  17.889  16.469  0.0448 -0.0103  0.0123
 1307POPC   C1B15813  11.637  17.157  16.040 -0.3739  0.0703 -0.1905
 1307POPC   C2B15814  12.016  17.065  16.295  0.1043 -0.2266 -0.1058
 1307POPC   C3B15815  11.999  17.170  16.765  0.4335 -0.1021 -0.0653
 1307POPC   C4B15816  11.949  17.365  17.149 -0.1726  0.1183  0.0936
 1308POPC   NC315817  14.284  18.697  15.305 -0.0502  0.0046 -0.0376
 1308POPC   PO415818  13.985  18.437  15.300  0.3227 -0.1875 -0.4437
 1308POPC   GL115819  13.727  18.331  15.578 -0.0428 -0.4623 -0.2556
 1308POPC   GL215820  13.473  18.188  15.543  0.0590 -0.0097  0.1054
 1308POPC   C1A15821  13.699  18.446  16.030  0.0155 -0.1126 -0.0885
 1308POPC   D2A15822  13.552  18.471  16.440 -0.1148  0.0702  0.3545
 1308POPC   C3A15823  13.827  18.732  16.687  0.0134  0.0651 -0.1730
 1308POPC   C4A15824  14.145  19.062  16.821  0.0873 -0.0211 -0.0628
 1308POPC   C1B15825  13.402  18.051  15.966 -0.0880 -0.2293 -0.0020
 1308POPC   C2B15826  13.514  17.897  16.358 -0.0420 -0.2923 -0.3342
 1308POPC   C3B15827  13.480  17.875  16.757  0.0994 -0.3307  0.0548
 1308POPC   C4B15828  13.501  17.563  17.069  0.1789  0.1543 -0.0385
 1309POPC   NC315829   3.092   9.091  15.074 -0.0044 -0.1630 -0.4593
 1309POPC   PO415830   3.008   9.499  15.126 -0.1825  0.3795 -0.0035
 1309POPC   GL115831   2.867   9.469  15.597 -0.0441  0.1393 -0.0710
 1309POPC   GL215832   2.996   9.678  15.755  0.3242 -0.0556 -0.1087
 1309POPC   C1A15833   2.618   9.253  15.939  0.1643 -0.1892 -0.2360
 1309POPC   D2A15834   2.482   9.450  16.339  0.1329 -0.0797 -0.1192
 1309POPC   C3A15835   2.617   9.194  16.740 -0.2754 -0.1295 -0.2711
 1309POPC   C4A15836   2.990   9.214  17.018 -0.1530  0.1566  0.1358
 1309POPC   C1B15837   2.865   9.776  16.172  0.1918  0.1177  0.1261
 1309POPC   C2B15838   2.657   9.920  16.479 -0.0794  0.2177 -0.1012
 1309POPC   C3B15839   2.463   9.646  16.760  0.0935  0.2934  0.0685
 1309POPC   C4B15840   2.128   9.371  16.807  0.2317 -0.1632 -0.0910
 1310POPC   NC315841   0.132   6.659  15.851 -0.0995 -0.0901  0.1616
 1310POPC   PO415842   0.280   6.296  16.003  0.0795  0.3877 -0.3173
 1310POPC   GL115843   0.147   5.962  16.318  0.1834  0.6821 -0.0633
 1310POPC   GL215844   0.433   5.882  16.433  0.3246  0.3055 -0.1400
 1310POPC   C1A15845   0.063   5.707  16.723 -0.0379  0.1828 -0.0537
 1310POPC   D2A15846   0.283   5.660  17.071 -0.1974  0.2488 -0.0898
 1310POPC   C3A15847   0.583   6.036  17.251 -0.0728  0.2571 -0.0739
 1310POPC   C4A15848   0.963   6.183  17.412 -0.0009  0.2132  0.3993
 1310POPC   C1B15849   0.301   6.168  16.815  0.2727  0.0871  0.1148
 1310POPC   C2B15850   0.109   6.157  17.268  0.3286 -0.2926  0.2150
 1310POPC   C3B15851   0.062   6.366  17.706  0.4454 -0.1803  0.0088
 1310POPC   C4B15852  -0.220   6.209  18.052 -0.2932  0.0411 -0.1129
 1311POPC   NC315853  15.816  19.025  15.303 -0.1438 -0.1964  0.1128
 1311POPC   PO415854  15.446  19.237  15.291 -0.0156  0.3121  0.0042
 1311POPC   GL115855  15.214  19.169  15.668  0.0628 -0.0773  0.0861
 1311POPC   GL215856  15.068  18.876  15.828  0.1643 -0.3352 -0.1300
 1311POPC   C1A15857  15.130  19.336  16.138  0.1362  0.0840 -0.0548
 1311POPC   D2A15858  14.926  19.600  16.462  0.3203 -0.2166 -0.1699
 1311POPC   C3A15859  15.166  19.814  16.768  0.3423 -0.1371 -0.2287
 1311POPC   C4A15860  15.567  19.872  17.003  0.2867  0.1766  0.0251
 1311POPC   C1B15861  14.949  18.783  16.230  0.1027 -0.1370 -0.1224
 1311POPC   C2B15862  14.774  19.136  16.466 -0.2146 -0.0639 -0.3263
 1311POPC   C3B15863  14.613  19.387  16.803  0.2096 -0.3837 -0.0685
 1311POPC   C4B15864  14.812  19.626  17.082 -0.1937 -0.0779 -0.0027
 1312POPC   NC315865  10.590   8.997  15.605  0.2847 -0.0288  0.1435
 1312POPC   PO415866  10.222   8.947  15.798 -0.0572 -0.1274 -0.4703
 1312POPC   GL115867  10.367   9.021  16.229  0.1889  0.0477  0.0913
 1312POPC   GL215868  10.573   8.875  16.193 -0.1477  0.2064 -0.1819
 1312POPC   C1A15869  10.213   8.743  16.583  0.0046  0.0371 -0.1552
 1312POPC   D2A15870  10.208   8.549  16.982  0.0872  0.1085 -0.4822
 1312POPC   C3A15871   9.965   8.616  17.423  0.1379  0.2141 -0.0198
 1312POPC   C4A15872   9.908   8.796  17.783 -0.1304  0.2071 -0.0711
 1312POPC   C1B15873  10.426   8.442  16.171  0.0781  0.1207 -0.0120
 1312POPC   C2B15874  10.185   8.181  16.449 -0.1168 -0.1466 -0.2769
 1312POPC   C3B15875  10.122   7.845  16.788 -0.2756 -0.0583 -0.1491
 1312POPC   C4B15876  10.015   7.571  17.097 -0.0801  0.2997  0.1332
 1313POPC   NC315877   9.687   7.709  15.400 -0.0069 -0.0336  0.0303
 1313POPC   PO415878   9.327   7.578  15.486 -0.0265  0.1383  0.1139
 1313POPC   GL115879   9.196   7.229  15.701  0.3434  0.1228 -0.0228
 1313POPC   GL215880   9.438   7.095  15.718  0.3942 -0.2298  0.1735
 1313POPC   C1A15881   9.088   7.255  16.107  0.5458 -0.2822  0.0756
 1313POPC   D2A15882   9.016   7.068  16.483  0.0218  0.1515  0.1982
 1313POPC   C3A15883   8.769   7.139  16.840  0.1982 -0.0701  0.1013
 1313POPC   C4A15884   8.575   7.386  17.203 -0.2060  0.3306  0.1697
 1313POPC   C1B15885   9.503   6.881  16.096 -0.0982  0.2169  0.1799
 1313POPC   C2B15886   9.532   6.786  16.561 -0.1790 -0.1442  0.0468
 1313POPC   C3B15887   9.196   6.760  16.877 -0.0353  0.0259  0.0793
 1313POPC   C4B15888   8.972   6.619  17.297  0.0451  0.0906 -0.0228
 1314POPC   NC315889  11.988  15.312  15.073 -0.1265 -0.0262 -0.0850
 1314POPC   PO415890  12.370  15.345  14.980 -0.3290 -0.1394 -0.1771
 1314POPC   GL115891  12.394  15.565  15.307 -0.0106  0.2468  0.0783
 1314POPC   GL215892  12.172  15.826  15.163  0.1720  0.0585 -0.1388
 1314POPC   C1A15893  12.383  15.524  15.766 -0.0689  0.0239 -0.2654
 1314POPC   D2A15894  12.231  15.557  16.228  0.0736 -0.0373 -0.0415
 1314POPC   C3A15895  12.139  15.697  16.683  0.2835 -0.2783  0.2405
 1314POPC   C4A15896  11.825  15.636  17.006 -0.1879 -0.3285 -0.0957
 1314POPC   C1B15897  11.983  15.734  15.606  0.2721 -0.0508 -0.1829
 1314POPC   C2B15898  11.779  15.706  16.002 -0.2751  0.1609 -0.1729
 1314POPC   C3B15899  11.690  15.889  16.473 -0.0539 -0.1110  0.0164
 1314POPC   C4B15900  11.287  16.079  16.626 -0.0089  0.0654 -0.1205
 1315POPC   NC315901   2.118  26.133  14.116  0.0622 -0.2243 -0.2288
 1315POPC   PO415902   1.800  26.284  14.294  0.1853  0.1274 -0.0519
 1315POPC   GL115903   2.045  26.118  14.617  0.1443  0.2443  0.5714
 1315POPC   GL215904   2.159  25.905  14.642 -0.0053 -0.0097 -0.0945
 1315POPC   C1A15905   2.067  26.052  15.073 -0.0457  0.0128  0.1391
 1315POPC   D2A15906   1.826  25.836  15.427  0.0440  0.3740 -0.0085
 1315POPC   C3A15907   1.993  25.738  15.887 -0.1484  0.0848  0.1798
 1315POPC   C4A15908   2.047  25.510  16.299 -0.2990  0.4142 -0.1847
 1315POPC   C1B15909   1.940  25.492  14.566 -0.2085 -0.3367  0.0647
 1315POPC   C2B15910   2.001  25.181  14.297 -0.1617  0.2470  0.4193
 1315POPC   C3B15911   2.102  24.777  14.174 -0.1205 -0.0921 -0.0961
 1315POPC   C4B15912   1.868  24.372  14.292  0.3903  0.0582  0.0591
 1316POPC   NC315913  15.022  11.116  14.900 -0.0768  0.0908 -0.0794
 1316POPC   PO415914  15.215  10.747  14.966 -0.2175 -0.1820  0.0423
 1316POPC   GL115915  15.466  10.921  15.349  0.3111  0.3713  0.1032
 1316POPC   GL215916  15.429  10.643  15.405  0.0429 -0.0817 -0.0700
 1316POPC   C1A15917  15.386  10.980  15.790 -0.1101  0.0850  0.0016
 1316POPC   D2A15918  15.249  10.804  16.185 -0.0051 -0.2100  0.0860
 1316POPC   C3A15919  15.312  10.834  16.674  0.0902  0.1010 -0.1804
 1316POPC   C4A15920  15.450  10.995  17.051  0.2048  0.0042 -0.1945
 1316POPC   C1B15921  15.610  10.536  15.819  0.1521 -0.1869  0.0917
 1316POPC   C2B15922  15.739  10.601  16.252  0.1531 -0.2698  0.1332
 1316POPC   C3B15923  15.714  10.500  16.703  0.2466  0.2439 -0.0823
 1316POPC   C4B15924  15.806  10.487  17.099 -0.0961  0.2131  0.1300
 1317POPC   NC315925   8.592  30.923  15.579  0.0009  0.3236 -0.1493
 1317POPC   PO415926   8.632  30.623  15.338  0.0806  0.1042  0.0887
 1317POPC   GL115927   8.491  30.493  15.769  0.1226 -0.0317  0.2048
 1317POPC   GL215928   8.656  30.234  15.802 -0.0239 -0.0995 -0.0742
 1317POPC   C1A15929   8.531  30.668  16.229 -0.2061  0.2769  0.1529
 1317POPC   D2A15930   8.439  30.839  16.630 -0.1699  0.0549 -0.0703
 1317POPC   C3A15931   8.722  30.773  17.035  0.2194  0.1835  0.3502
 1317POPC   C4A15932   9.077  30.527  17.209 -0.0193  0.2425  0.0432
 1317POPC   C1B15933   8.810  30.184  16.222 -0.0788  0.2649  0.1504
 1317POPC   C2B15934   9.136  30.144  16.497  0.4814 -0.4371  0.1923
 1317POPC   C3B15935   9.239  29.969  16.923 -0.5544 -0.2477  0.2197
 1317POPC   C4B15936   9.324  30.150  17.333  0.0603  0.1681 -0.3418
 1318POPC   NC315937   6.716  10.934  15.000  0.1112  0.0522  0.1632
 1318POPC   PO415938   6.507  10.616  15.129  0.0590  0.0636  0.0694
 1318POPC   GL115939   6.637  10.452  15.443  0.0936  0.1320 -0.2438
 1318POPC   GL215940   6.343  10.458  15.631 -0.1637  0.0554  0.2022
 1318POPC   C1A15941   6.791  10.308  15.865  0.3054 -0.4453 -0.1780
 1318POPC   D2A15942   6.993  10.087  16.220 -0.2440 -0.0714 -0.0585
 1318POPC   C3A15943   7.284   9.816  16.406  0.1876  0.2123  0.3105
 1318POPC   C4A15944   7.659   9.577  16.495  0.1426 -0.0138  0.4066
 1318POPC   C1B15945   6.327  10.232  16.068  0.0338  0.0246  0.0208
 1318POPC   C2B15946   6.543  10.074  16.430 -0.1617 -0.4189  0.0130
 1318POPC   C3B15947   6.774   9.881  16.780 -0.0709 -0.0119 -0.1083
 1318POPC   C4B15948   7.087   9.809  17.099  0.0208  0.0138 -0.0758
 1319POPC   NC315949   3.545   1.599  14.813 -0.1022 -0.0154 -0.0499
 1319POPC   PO415950   3.362   1.764  15.093  0.2484 -0.0530  0.0659
 1319POPC   GL115951   3.056   1.788  15.393  0.1892 -0.3066 -0.2197
 1319POPC   GL215952   3.285   1.605  15.588  0.1354 -0.1502 -0.0101
 1319POPC   C1A15953   2.808   1.623  15.748  0.2241  0.1711 -0.0431
 1319POPC   D2A15954   2.498   1.748  16.010  0.1780 -0.2294  0.0698
 1319POPC   C3A15955   2.425   1.445  16.353  0.0202 -0.2376 -0.1035
 1319POPC   C4A15956   2.508   1.082  16.636 -0.0166  0.2281  0.0599
 1319POPC   C1B15957   3.378   1.408  15.981  0.1115 -0.4465 -0.0920
 1319POPC   C2B15958   3.670   1.269  16.261 -0.0564 -0.1366  0.1015
 1319POPC   C3B15959   3.858   1.333  16.656  0.2676  0.0331  0.2183
 1319POPC   C4B15960   4.072   1.458  16.990  0.2894 -0.0894  0.1135
 1320POPC   NC315961   7.798  11.480  15.030 -0.3684 -0.3680  0.0289
 1320POPC   PO415962   7.469  11.402  15.253  0.0760  0.1921  0.0222
 1320POPC   GL115963   7.363  11.505  15.644  0.3262  0.0042 -0.1604
 1320POPC   GL215964   7.107  11.605  15.680  0.1186  0.1770  0.1636
 1320POPC   C1A15965   7.415  11.780  15.997 -0.0155 -0.0449  0.1436
 1320POPC   D2A15966   7.755  12.066  16.245 -0.1040 -0.0282  0.4932
 1320POPC   C3A15967   7.940  12.077  16.691  0.0878  0.2524  0.1375
 1320POPC   C4A15968   8.100  11.770  16.954  0.2091  0.0235  0.2219
 1320POPC   C1B15969   6.858  11.594  16.029 -0.1780  0.0009  0.0964
 1320POPC   C2B15970   6.707  11.723  16.449  0.0157  0.1149 -0.2471
 1320POPC   C3B15971   6.974  11.843  16.799 -0.2369 -0.0990 -0.0119
 1320POPC   C4B15972   7.350  11.899  17.040 -0.0438  0.0258  0.1994
 1321POPC   NC315973  10.650  26.836  15.261  0.2423 -0.0678 -0.0602
 1321POPC   PO415974  10.923  26.997  15.463 -0.1683  0.1062 -0.3125
 1321POPC   GL115975  10.743  27.068  15.770 -0.3264 -0.0498 -0.0587
 1321POPC   GL215976  10.868  27.034  16.062  0.0254  0.0290 -0.0221
 1321POPC   C1A15977  10.366  26.844  15.963  0.4156 -0.1367 -0.0523
 1321POPC   D2A15978  10.080  26.703  16.308  0.1287 -0.0667 -0.1719
 1321POPC   C3A15979  10.164  26.973  16.672  0.1338  0.1642 -0.1416
 1321POPC   C4A15980  10.095  27.025  17.131 -0.1847  0.1893  0.1016
 1321POPC   C1B15981  11.087  26.921  16.459  0.0592  0.0108 -0.0584
 1321POPC   C2B15982  11.157  26.914  16.923  0.1482 -0.0446 -0.1982
 1321POPC   C3B15983  11.127  26.765  17.368  0.3541  0.0452 -0.1029
 1321POPC   C4B15984  10.860  26.843  17.745  0.0057 -0.0389  0.1799
 1322POPC   NC315985   1.559  10.322  14.756 -0.0373  0.0663 -0.0063
 1322POPC   PO415986   1.936  10.316  14.914  0.1229 -0.0057  0.1978
 1322POPC   GL115987   1.851  10.246  15.320 -0.2718 -0.1187  0.0842
 1322POPC   GL215988   1.791   9.954  15.321 -0.0809  0.2539  0.1685
 1322POPC   C1A15989   2.012  10.475  15.698  0.0046 -0.0450 -0.0243
 1322POPC   D2A15990   1.879  10.809  16.061 -0.2065 -0.1054  0.2486
 1322POPC   C3A15991   2.153  10.841  16.449 -0.1408 -0.0234  0.0367
 1322POPC   C4A15992   2.370  11.167  16.746  0.1363 -0.1359  0.0159
 1322POPC   C1B15993   1.893   9.987  15.760 -0.0033 -0.5045 -0.1466
 1322POPC   C2B15994   1.764   9.770  16.196 -0.2869 -0.0285 -0.4002
 1322POPC   C3B15995   1.659   9.637  16.683  0.2960 -0.1842 -0.2672
 1322POPC   C4B15996   1.676   9.566  17.130 -0.0151 -0.0338  0.0057
 1323POPC   NC315997  10.696  20.080  15.244  0.0133  0.1895 -0.2589
 1323POPC   PO415998  10.649  20.203  15.625 -0.1643 -0.0650 -0.1481
 1323POPC   GL115999  10.820  20.358  15.954  0.4220 -0.2956 -0.4620
 1323POPC   GL216000  10.612  20.260  16.147 -0.3460 -0.0822 -0.0232
 1323POPC   C1A16001  11.097  20.220  16.300  0.2667  0.2227  0.2860
 1323POPC   D2A16002  11.519  20.204  16.475  0.1576 -0.1482 -0.0149
 1323POPC   C3A16003  11.722  20.358  16.840 -0.0626 -0.4570 -0.2757
 1323POPC   C4A16004  12.113  20.425  16.975 -0.2108 -0.0559 -0.0507
 1323POPC   C1B16005  10.570  20.198  16.626  0.2573 -0.2503 -0.2116
 1323POPC   C2B16006  10.209  20.340  16.939  0.4074  0.1143 -0.2850
 1323POPC   C3B16007   9.951  20.377  17.330  0.0186  0.0307 -0.2446
 1323POPC   C4B16008   9.753  20.192  17.735  0.2215 -0.1347  0.1180
 1324POPC   NC316009   5.404   9.615  14.347 -0.1323  0.0069 -0.2659
 1324POPC   PO416010   5.468   9.829  14.666 -0.3304 -0.2302  0.0045
 1324POPC   GL116011   5.681   9.528  14.799  0.2776 -0.2988  0.0648
 1324POPC   GL216012   5.690   9.261  14.631  0.0666 -0.3671  0.1754
 1324POPC   C1A16013   5.810   9.254  15.129 -0.3497 -0.0429  0.1330
 1324POPC   D2A16014   5.951   8.812  15.250 -0.0977  0.0335  0.0153
 1324POPC   C3A16015   5.686   8.847  15.637  0.0592  0.0288  0.2097
 1324POPC   C4A16016   5.641   8.785  16.078  0.0761  0.1687  0.1926
 1324POPC   C1B16017   6.056   9.062  14.751 -0.2403 -0.1685  0.0840
 1324POPC   C2B16018   6.405   9.061  15.067  0.1782 -0.0248  0.1926
 1324POPC   C3B16019   6.784   9.259  15.134 -0.3830  0.1546  0.2868
 1324POPC   C4B16020   7.104   9.573  15.317  0.1684  0.1828 -0.1974
 1325POPC   NC316021   0.954   6.745  15.777  0.3183  0.1491  0.0474
 1325POPC   PO416022   0.584   6.872  15.814 -0.1314  0.0918  0.0670
 1325POPC   GL116023   0.739   7.086  16.194  0.0608 -0.1087 -0.2157
 1325POPC   GL216024   0.785   6.877  16.378  0.1303 -0.2200  0.0460
 1325POPC   C1A16025   0.545   7.372  16.505 -0.0300 -0.4166  0.0055
 1325POPC   D2A16026   0.360   7.287  16.902 -0.1063  0.3513 -0.0796
 1325POPC   C3A16027   0.563   7.025  17.240 -0.0675  0.0293 -0.0173
 1325POPC   C4A16028   0.794   7.171  17.593 -0.1313 -0.2152  0.2327
 1325POPC   C1B16029   0.802   7.009  16.831  0.1960 -0.1529 -0.4475
 1325POPC   C2B16030   1.056   7.069  17.212 -0.0303  0.1212  0.0455
 1325POPC   C3B16031   1.380   7.276  17.468  0.2672 -0.2861 -0.1135
 1325POPC   C4B16032   1.800   7.331  17.375 -0.0429 -0.0906 -0.0483
 1326POPC   NC316033   8.956   0.216  14.929 -0.4062 -0.0438 -0.3453
 1326POPC   PO416034   8.600   0.239  15.073  0.2003  0.2796  0.0179
 1326POPC   GL116035   8.623   0.172  15.458 -0.2081  0.2500 -0.0768
 1326POPC   GL216036   8.430   0.375  15.600 -0.0360  0.1260 -0.2099
 1326POPC   C1A16037   8.648  -0.309  15.625 -0.0080  0.4430  0.0261
 1326POPC   D2A16038   8.915  -0.552  15.947  0.2210  0.3478 -0.3675
 1326POPC   C3A16039   8.958  -1.011  16.059 -0.1364 -0.2366  0.0308
 1326POPC   C4A16040   9.234  -1.337  16.091 -0.1415  0.0969  0.0669
 1326POPC   C1B16041   8.386   0.518  16.045  0.1442 -0.1051 -0.0806
 1326POPC   C2B16042   8.348   0.609  16.498 -0.1922  0.0702  0.1829
 1326POPC   C3B16043   8.399   0.848  16.948 -0.3845 -0.3275  0.0120
 1326POPC   C4B16044   8.123   0.761  17.333 -0.0308  0.0971  0.1729
 1327POPC   NC316045  14.005   5.196  15.672  0.2011 -0.0710 -0.0234
 1327POPC   PO416046  13.730   5.314  15.420  0.0002  0.2453 -0.2833
 1327POPC   GL116047  13.431   5.385  15.700 -0.2614  0.0952  0.0259
 1327POPC   GL216048  13.608   5.569  15.849  0.1596 -0.1371  0.1770
 1327POPC   C1A16049  13.130   5.742  15.785  0.2863  0.0548  0.5072
 1327POPC   D2A16050  13.091   6.203  15.715 -0.3090  0.1089  0.3596
 1327POPC   C3A16051  13.017   6.612  15.948  0.0623 -0.1323  0.3552
 1327POPC   C4A16052  12.824   6.537  16.295  0.0806 -0.0995 -0.0428
 1327POPC   C1B16053  13.394   5.797  16.154  0.4993  0.0119 -0.2278
 1327POPC   C2B16054  13.274   5.873  16.617 -0.2150  0.1208  0.0311
 1327POPC   C3B16055  13.163   5.716  17.026  0.0142  0.1179  0.2121
 1327POPC   C4B16056  13.161   5.444  17.419 -0.0472 -0.1601 -0.1660
 1328POPC   NC316057   9.527  18.080  15.211 -0.0498  0.1607 -0.1665
 1328POPC   PO416058   9.736  17.799  15.387  0.3418 -0.0880 -0.1207
 1328POPC   GL116059   9.720  17.690  15.826 -0.0555 -0.1785  0.3126
 1328POPC   GL216060   9.446  17.744  15.828 -0.0459 -0.0538 -0.0433
 1328POPC   C1A16061   9.771  17.873  16.207 -0.2074  0.4504  0.0441
 1328POPC   D2A16062  10.064  17.870  16.590  0.0292  0.0949  0.0162
 1328POPC   C3A16063  10.244  17.709  16.954  0.2589  0.0837 -0.1562
 1328POPC   C4A16064  10.547  17.634  17.342 -0.0123 -0.1346 -0.0592
 1328POPC   C1B16065   9.326  17.458  16.149 -0.1809 -0.0872  0.4380
 1328POPC   C2B16066   9.271  17.474  16.583  0.1203  0.2736 -0.0932
 1328POPC   C3B16067   8.878  17.204  16.720  0.3051 -0.2781 -0.0667
 1328POPC   C4B16068   8.477  17.212  16.912  0.2247  0.0384  0.1093
 1329POPC   NC316069   5.980  20.981  15.108 -0.2532 -0.1025 -0.2336
 1329POPC   PO416070   6.179  20.883  14.801 -0.2388 -0.1493 -0.1578
 1329POPC   GL116071   6.409  20.779  15.068 -0.0077 -0.0560 -0.1554
 1329POPC   GL216072   6.597  20.925  15.056 -0.0407  0.1937 -0.1213
 1329POPC   C1A16073   6.235  20.643  15.472 -0.0541 -0.2311 -0.1875
 1329POPC   D2A16074   6.199  20.392  15.832  0.3358  0.1028  0.3219
 1329POPC   C3A16075   6.374  20.164  16.110  0.0365  0.2328 -0.3574
 1329POPC   C4A16076   6.522  20.204  16.528 -0.1024  0.1829 -0.3894
 1329POPC   C1B16077   6.699  20.833  15.464  0.1350 -0.0585 -0.1811
 1329POPC   C2B16078   6.804  20.577  15.840 -0.1053 -0.0899 -0.1447
 1329POPC   C3B16079   6.982  20.674  16.210  0.0662  0.0190 -0.0444
 1329POPC   C4B16080   6.860  20.568  16.645  0.2941 -0.2563  0.2560
 1330POPC   NC316081   4.041  28.735  15.155 -0.3826 -0.0700 -0.2387
 1330POPC   PO416082   4.219  28.990  15.305 -0.2701  0.2001  0.0480
 1330POPC   GL116083   4.389  28.915  15.675  0.4509  0.0937 -0.2082
 1330POPC   GL216084   4.601  28.966  15.722  0.1205 -0.0720  0.2231
 1330POPC   C1A16085   4.334  29.016  16.159  0.1115  0.4844  0.2404
 1330POPC   D2A16086   4.492  28.969  16.604 -0.0420 -0.0119 -0.1882
 1330POPC   C3A16087   4.543  29.312  16.949 -0.0932 -0.0224  0.1429
 1330POPC   C4A16088   4.409  29.305  17.394 -0.2130  0.0764 -0.0770
 1330POPC   C1B16089   4.807  29.065  16.154 -0.1344 -0.1342 -0.1337
 1330POPC   C2B16090   4.945  29.115  16.634 -0.1628 -0.1917 -0.2173
 1330POPC   C3B16091   5.124  29.144  17.089  0.3216  0.1030 -0.2016
 1330POPC   C4B16092   4.882  29.126  17.485 -0.0967 -0.1619  0.0662
 1331POPC   NC316093  13.493  24.019  15.301  0.2909 -0.0408  0.1453
 1331POPC   PO416094  13.360  24.347  15.173 -0.0041  0.0125 -0.2120
 1331POPC   GL116095  13.316  24.356  15.524 -0.1231  0.2079  0.0085
 1331POPC   GL216096  13.117  24.213  15.680 -0.2833  0.0884  0.1121
 1331POPC   C1A16097  13.248  24.575  15.919 -0.2122 -0.0450 -0.0421
 1331POPC   D2A16098  13.413  24.577  16.377  0.1026 -0.0014 -0.0589
 1331POPC   C3A16099  13.592  24.225  16.571 -0.3480 -0.0333 -0.3513
 1331POPC   C4A16100  13.747  23.847  16.818  0.4043  0.2096 -0.2230
 1331POPC   C1B16101  12.933  24.182  16.116  0.0585 -0.2931  0.0377
 1331POPC   C2B16102  13.064  24.133  16.536 -0.2158  0.0953  0.2154
 1331POPC   C3B16103  13.186  23.978  16.956 -0.1713  0.1721  0.3374
 1331POPC   C4B16104  13.346  23.599  17.140 -0.1679 -0.3436 -0.2123
 1332POPC   NC316105  12.296   3.775  15.140  0.0993  0.0138  0.1925
 1332POPC   PO416106  12.407   4.125  15.286  0.1071 -0.0072 -0.0702
 1332POPC   GL116107  12.587   3.869  15.466 -0.2781  0.0125 -0.1411
 1332POPC   GL216108  12.764   4.040  15.588 -0.1178  0.1093  0.2470
 1332POPC   C1A16109  12.686   3.647  15.890  0.3414 -0.1511  0.0878
 1332POPC   D2A16110  12.857   3.362  16.204 -0.1042  0.0119  0.0395
 1332POPC   C3A16111  12.688   3.202  16.576 -0.1206  0.0272  0.1556
 1332POPC   C4A16112  12.442   3.074  16.988 -0.1181 -0.0984  0.1447
 1332POPC   C1B16113  12.888   4.167  15.992 -0.1388  0.1799 -0.0569
 1332POPC   C2B16114  12.721   4.462  16.324  0.1884  0.3061  0.0380
 1332POPC   C3B16115  12.673   4.480  16.773 -0.1781 -0.0049  0.0965
 1332POPC   C4B16116  13.024   4.706  16.992  0.0767  0.1917 -0.0427
 1333POPC   NC316117   4.770  30.569  14.620 -0.1221 -0.1856 -0.3162
 1333POPC   PO416118   5.081  30.512  14.923  0.0583 -0.0532 -0.0169
 1333POPC   GL116119   4.835  30.647  15.157  0.3326  0.1239 -0.0415
 1333POPC   GL216120   4.484  30.489  15.147  0.2001 -0.4047 -0.0458
 1333POPC   C1A16121   4.738  30.894  15.491  0.0019 -0.0017 -0.0442
 1333POPC   D2A16122   4.568  30.974  15.893 -0.1230  0.1020  0.1077
 1333POPC   C3A16123   4.769  30.949  16.300  0.1855  0.3332 -0.0218
 1333POPC   C4A16124   4.875  31.016  16.741  0.1011 -0.1926  0.0308
 1333POPC   C1B16125   4.511  30.395  15.638 -0.1236 -0.2905  0.1038
 1333POPC   C2B16126   4.710  30.459  16.031  0.2166  0.0939  0.1071
 1333POPC   C3B16127   4.674  30.287  16.443 -0.0406  0.0816 -0.2297
 1333POPC   C4B16128   4.883  30.053  16.739  0.2680  0.0746  0.3153
 1334POPC   NC316129   2.646  14.582  15.079  0.1098  0.0989 -0.1095
 1334POPC   PO416130   2.609  14.487  15.455 -0.1053  0.0586  0.0857
 1334POPC   GL116131   2.620  14.561  15.893  0.5901  0.2785 -0.1210
 1334POPC   GL216132   2.806  14.432  16.089  0.0662 -0.2608 -0.0686
 1334POPC   C1A16133   2.322  14.803  16.100 -0.3299  0.3675 -0.0469
 1334POPC   D2A16134   1.900  15.006  16.068 -0.1445  0.1097  0.1972
 1334POPC   C3A16135   1.804  15.013  16.549 -0.1147  0.1858  0.1964
 1334POPC   C4A16136   1.745  15.083  17.016 -0.0114 -0.0281 -0.1413
 1334POPC   C1B16137   2.621  14.602  16.483  0.1692  0.1606  0.2227
 1334POPC   C2B16138   2.643  14.708  16.894  0.0539 -0.1388 -0.0364
 1334POPC   C3B16139   2.605  14.982  17.218  0.1006 -0.0367  0.0677
 1334POPC   C4B16140   2.392  15.282  17.535  0.0270 -0.3733 -0.0802
 1335POPC   NC316141   7.003  31.234  15.066  0.0225  0.1516 -0.4042
 1335POPC   PO416142   7.409  31.291  14.978 -0.0991 -0.0356 -0.1936
 1335POPC   GL116143   7.426  31.054  15.283 -0.0577  0.2627  0.3533
 1335POPC   GL216144   7.325  31.223  15.456  0.2251 -0.1152  0.0228
 1335POPC   C1A16145   7.185  30.842  15.676  0.0446 -0.1406  0.2321
 1335POPC   D2A16146   6.791  30.806  15.859 -0.1301  0.3053  0.1407
 1335POPC   C3A16147   6.827  30.929  16.293  0.0160  0.3712  0.1668
 1335POPC   C4A16148   6.738  30.920  16.762  0.0485 -0.2653  0.0190
 1335POPC   C1B16149   7.311  31.308  15.936 -0.0744 -0.0001  0.1734
 1335POPC   C2B16150   7.268  31.410  16.407 -0.0673  0.2154 -0.1960
 1335POPC   C3B16151   7.234  31.744  16.774 -0.0807  0.3075 -0.1020
 1335POPC   C4B16152   7.064  32.014  17.099  0.0336 -0.0424 -0.0708
 1336POPC   NC316153   6.727  23.555  14.970  0.2295 -0.0236 -0.1795
 1336POPC   PO416154   6.885  23.791  15.205 -0.0988 -0.0792 -0.3225
 1336POPC   GL116155   6.663  23.545  15.479 -0.1732 -0.3278 -0.0010
 1336POPC   GL216156   6.541  23.320  15.363 -0.2080 -0.0367 -0.0423
 1336POPC   C1A16157   6.736  23.677  15.967  0.3971  0.0981  0.2354
 1336POPC   D2A16158   7.140  23.727  16.144  0.3761 -0.5220 -0.1366
 1336POPC   C3A16159   7.266  23.748  16.559 -0.1710 -0.2781  0.0159
 1336POPC   C4A16160   7.348  23.785  16.996  0.1774  0.0473 -0.0883
 1336POPC   C1B16161   6.491  23.199  15.776  0.0926  0.0242  0.0457
 1336POPC   C2B16162   6.496  23.024  16.171  0.0195 -0.0441 -0.0485
 1336POPC   C3B16163   6.266  23.001  16.554 -0.0352  0.0546 -0.2403
 1336POPC   C4B16164   5.981  22.703  16.840 -0.4693 -0.3571  0.0943
 1337POPC   NC316165   8.658  30.069  15.364 -0.0755 -0.1035 -0.0628
 1337POPC   PO416166   8.676  29.738  15.596  0.0757 -0.0091  0.1248
 1337POPC   GL116167   8.450  29.591  15.898 -0.1704 -0.2796  0.1847
 1337POPC   GL216168   8.485  29.878  16.042  0.1845  0.1203 -0.0134
 1337POPC   C1A16169   8.009  29.548  15.949  0.0080 -0.0398  0.1499
 1337POPC   D2A16170   7.789  29.920  16.123  0.1411 -0.0192  0.0878
 1337POPC   C3A16171   7.350  30.082  15.951 -0.4931 -0.2151 -0.2124
 1337POPC   C4A16172   7.115  30.451  16.039  0.1224  0.0475  0.1176
 1337POPC   C1B16173   8.477  30.044  16.522 -0.0568 -0.4543  0.0499
 1337POPC   C2B16174   8.330  29.885  16.912  0.2687  0.0708 -0.0943
 1337POPC   C3B16175   7.950  29.677  17.039 -0.1275 -0.1420  0.1224
 1337POPC   C4B16176   7.602  29.408  17.101  0.1899  0.1160  0.0598
 1338POPC   NC316177  15.151  29.524  15.019 -0.2986 -0.3319  0.3337
 1338POPC   PO416178  15.134  29.224  15.227  0.1814  0.1018 -0.0159
 1338POPC   GL116179  14.908  29.394  15.541  0.0330  0.3607 -0.1829
 1338POPC   GL216180  15.098  29.196  15.740 -0.2819  0.0694 -0.0981
 1338POPC   C1A16181  14.727  29.513  15.948  0.0809  0.1137 -0.0045
 1338POPC   D2A16182  14.517  29.725  16.302  0.3208 -0.1059  0.1153
 1338POPC   C3A16183  14.698  29.830  16.719  0.1977  0.2171  0.0500
 1338POPC   C4A16184  15.013  29.900  16.957  0.0568 -0.1733 -0.3986
 1338POPC   C1B16185  15.335  29.204  16.120 -0.0483  0.2137 -0.2636
 1338POPC   C2B16186  15.512  29.116  16.510 -0.1737  0.0741 -0.2582
 1338POPC   C3B16187  15.608  29.019  16.928  0.0707  0.0877  0.0105
 1338POPC   C4B16188  15.234  29.051  17.195 -0.0133 -0.0840 -0.1930
 1339POPC   NC316189   7.407   9.941  15.199 -0.0677  0.0404  0.0534
 1339POPC   PO416190   7.791   9.822  15.139 -0.1844  0.1208 -0.1893
 1339POPC   GL116191   7.757   9.613  15.504 -0.2803  0.0018 -0.3651
 1339POPC   GL216192   7.565   9.522  15.484 -0.6106  0.2273 -0.0506
 1339POPC   C1A16193   7.958   9.635  15.924  0.0983  0.0659  0.2585
 1339POPC   D2A16194   8.104   9.907  16.254 -0.1067  0.0312  0.1968
 1339POPC   C3A16195   7.840  10.100  16.596 -0.0510 -0.0072 -0.1468
 1339POPC   C4A16196   7.797  10.537  16.651 -0.1584  0.1634 -0.1451
 1339POPC   C1B16197   7.480   9.586  15.977 -0.0295 -0.2483  0.1682
 1339POPC   C2B16198   7.172   9.326  16.200  0.1088 -0.0496  0.2456
 1339POPC   C3B16199   6.968   9.190  16.620  0.2462 -0.1308 -0.0114
 1339POPC   C4B16200   6.833   8.971  16.978 -0.0187 -0.1345  0.0841
 1340POPC   NC316201  12.018  12.054  15.212 -0.0314 -0.1407  0.0911
 1340POPC   PO416202  12.281  12.336  15.167  0.1517  0.1397 -0.1990
 1340POPC   GL116203  12.212  12.372  15.514  0.0697 -0.1202 -0.0255
 1340POPC   GL216204  12.349  12.433  15.786  0.1332  0.0449 -0.0632
 1340POPC   C1A16205  11.875  12.560  15.834 -0.0440 -0.0338 -0.4833
 1340POPC   D2A16206  11.650  12.869  16.091  0.3595 -0.2027  0.1362
 1340POPC   C3A16207  11.669  12.854  16.550 -0.3245 -0.0984  0.1504
 1340POPC   C4A16208  11.914  13.220  16.708  0.0772  0.2201 -0.0286
 1340POPC   C1B16209  12.480  12.504  16.243 -0.2429  0.2707  0.2199
 1340POPC   C2B16210  12.866  12.692  16.538 -0.0703  0.1863 -0.1599
 1340POPC   C3B16211  13.078  12.944  16.852 -0.2491  0.1742  0.0341
 1340POPC   C4B16212  13.219  13.276  17.161 -0.1602 -0.0318 -0.0431
 1341POPC   NC316213   1.388   1.276  15.259  0.3250  0.1371 -0.0544
 1341POPC   PO416214   1.651   1.006  15.173 -0.1025 -0.0524 -0.2649
 1341POPC   GL116215   1.871   0.732  15.459  0.0212  0.2392  0.1173
 1341POPC   GL216216   1.716   0.678  15.663  0.1707  0.1645  0.3165
 1341POPC   C1A16217   2.178   0.920  15.728  0.2331  0.2434  0.0530
 1341POPC   D2A16218   2.280   0.894  16.165 -0.1337 -0.1131  0.2006
 1341POPC   C3A16219   2.015   0.726  16.507 -0.1443 -0.1645 -0.1731
 1341POPC   C4A16220   1.623   0.800  16.792 -0.0709  0.1395  0.0452
 1341POPC   C1B16221   1.699   0.696  16.099  0.0406  0.1583 -0.0238
 1341POPC   C2B16222   1.503   0.966  16.377 -0.2152 -0.3478  0.1166
 1341POPC   C3B16223   1.401   1.255  16.719 -0.0468  0.3653  0.4314
 1341POPC   C4B16224   1.169   1.655  16.759 -0.0831 -0.1187  0.1065
 1342POPC   NC316225   4.215  30.150  14.719 -0.3384  0.0173 -0.2159
 1342POPC   PO416226   4.128  30.154  15.112  0.0510  0.0146  0.0657
 1342POPC   GL116227   4.003  30.360  15.455 -0.2962  0.0611  0.1922
 1342POPC   GL216228   3.736  30.379  15.356  0.2154  0.1625 -0.1753
 1342POPC   C1A16229   4.021  30.503  15.941  0.0139 -0.0834  0.1292
 1342POPC   D2A16230   4.165  30.677  16.352 -0.3298 -0.1430 -0.0003
 1342POPC   C3A16231   4.459  30.610  16.739  0.1203 -0.1523 -0.0149
 1342POPC   C4A16232   4.522  30.237  16.962  0.1816  0.3455  0.0363
 1342POPC   C1B16233   3.550  30.486  15.761  0.0250  0.0193  0.3044
 1342POPC   C2B16234   3.311  30.338  16.140  0.0886 -0.1150 -0.2098
 1342POPC   C3B16235   3.188  30.214  16.603 -0.0172 -0.1125  0.0107
 1342POPC   C4B16236   3.022  30.171  17.040 -0.0603 -0.1374 -0.0551
 1343POPC   NC316237   0.390  16.691  15.381 -0.1247  0.0627 -0.0038
 1343POPC   PO416238   0.018  16.517  15.413  0.1287 -0.0628 -0.0725
 1343POPC   GL116239  -0.192  16.675  15.811  0.3626  0.2268  0.0699
 1343POPC   GL216240  -0.354  16.858  15.896  0.2248  0.0475  0.0209
 1343POPC   C1A16241   0.106  16.849  16.130  0.0039  0.1019  0.0594
 1343POPC   D2A16242   0.491  16.827  16.394  0.0987 -0.0948  0.1806
 1343POPC   C3A16243   0.451  16.879  16.847 -0.1535  0.1305  0.3094
 1343POPC   C4A16244   0.041  16.846  17.137  0.0466  0.1798  0.0448
 1343POPC   C1B16245  -0.308  16.665  16.321 -0.0115  0.0222 -0.0688
 1343POPC   C2B16246  -0.348  16.485  16.714 -0.0022 -0.0337  0.0569
 1343POPC   C3B16247  -0.244  16.450  17.189  0.1305  0.1990 -0.0192
 1343POPC   C4B16248  -0.059  16.577  17.557  0.0096  0.1108  0.0121
 1344POPC   NC316249   6.425  21.320  14.891  0.0658  0.0205  0.2816
 1344POPC   PO416250   6.825  21.379  14.963 -0.0143  0.1430 -0.0890
 1344POPC   GL116251   6.547  21.414  15.286 -0.0991  0.1027 -0.3225
 1344POPC   GL216252   6.495  21.706  15.274  0.0652 -0.2106 -0.0469
 1344POPC   C1A16253   6.144  21.278  15.477 -0.3707  0.0825  0.1180
 1344POPC   D2A16254   5.994  21.070  15.897  0.2915 -0.0570 -0.1755
 1344POPC   C3A16255   5.982  20.725  16.215  0.0107  0.0237 -0.1862
 1344POPC   C4A16256   5.982  20.303  16.421 -0.4993  0.1130 -0.1102
 1344POPC   C1B16257   6.285  21.714  15.700 -0.2913  0.0917 -0.1174
 1344POPC   C2B16258   6.343  21.456  16.128  0.3294 -0.1598  0.1162
 1344POPC   C3B16259   6.279  21.242  16.517 -0.2359  0.2480 -0.1066
 1344POPC   C4B16260   6.049  21.143  16.884 -0.0588  0.0259 -0.0387
 1345POPC   NC316261   4.822  14.990  15.301  0.1028 -0.3202  0.2246
 1345POPC   PO416262   5.239  14.938  15.368 -0.0744 -0.2145 -0.0589
 1345POPC   GL116263   5.050  15.057  15.647  0.0781 -0.2163 -0.0792
 1345POPC   GL216264   5.257  14.900  15.864 -0.1403  0.0651  0.2118
 1345POPC   C1A16265   5.096  15.382  15.982 -0.0858  0.2739  0.4016
 1345POPC   D2A16266   5.206  15.450  16.473  0.0276 -0.0238  0.0855
 1345POPC   C3A16267   5.399  15.073  16.677 -0.3121  0.2207 -0.0494
 1345POPC   C4A16268   5.531  15.078  17.159  0.1864  0.0948  0.4012
 1345POPC   C1B16269   5.490  15.153  16.198 -0.3846  0.1658  0.0399
 1345POPC   C2B16270   5.702  15.380  16.502  0.0847 -0.0740 -0.2165
 1345POPC   C3B16271   5.720  15.582  16.933  0.2106  0.0913 -0.1724
 1345POPC   C4B16272   5.964  15.626  17.325 -0.0089 -0.1907 -0.2378
 1346POPC   NC316273   0.168   5.236  15.305 -0.0813  0.3922  0.0299
 1346POPC   PO416274   0.294   4.826  15.369  0.1427 -0.3693  0.3991
 1346POPC   GL116275   0.506   5.030  15.693 -0.0294  0.4447 -0.1079
 1346POPC   GL216276   0.695   5.151  15.548  0.2032  0.1434  0.3193
 1346POPC   C1A16277   0.697   4.899  16.089  0.1254 -0.0871 -0.0088
 1346POPC   D2A16278   1.101   5.057  16.307 -0.0557 -0.0683 -0.1641
 1346POPC   C3A16279   0.976   5.114  16.714 -0.2051 -0.0629 -0.1957
 1346POPC   C4A16280   0.902   4.918  17.063 -0.0212 -0.1575 -0.0526
 1346POPC   C1B16281   0.911   5.323  15.935  0.0730 -0.2297  0.3292
 1346POPC   C2B16282   0.871   5.490  16.346  0.0779  0.4529 -0.2286
 1346POPC   C3B16283   0.661   5.454  16.766 -0.0272 -0.0544  0.0813
 1346POPC   C4B16284   0.658   5.407  17.249 -0.0061 -0.2492 -0.3248
 1347POPC   NC316285   8.042   7.363  15.185  0.1396 -0.1596  0.1004
 1347POPC   PO416286   8.375   7.475  15.392  0.2702 -0.1634 -0.0102
 1347POPC   GL116287   8.412   7.779  15.694  0.2377  0.3367  0.0595
 1347POPC   GL216288   8.527   8.066  15.681 -0.0419 -0.0981  0.1795
 1347POPC   C1A16289   8.231   7.885  16.129  0.2479 -0.0237  0.0390
 1347POPC   D2A16290   7.812   7.989  16.345 -0.0614  0.2485 -0.0927
 1347POPC   C3A16291   8.012   7.886  16.717 -0.1333 -0.2431  0.3276
 1347POPC   C4A16292   8.155   7.599  17.085  0.2885  0.0915 -0.2774
 1347POPC   C1B16293   8.185   8.327  15.920 -0.2304  0.1876  0.0513
 1347POPC   C2B16294   8.066   8.373  16.395  0.0136 -0.0562  0.2273
 1347POPC   C3B16295   7.783   8.371  16.766 -0.0657 -0.2527 -0.0454
 1347POPC   C4B16296   7.555   8.379  17.154 -0.2884  0.1952  0.1026
 1348POPC   NC316297  14.760  22.932  15.304 -0.1100 -0.1247 -0.4887
 1348POPC   PO416298  14.524  22.638  15.224 -0.2183 -0.3976  0.0198
 1348POPC   GL116299  14.207  22.566  15.497  0.1377  0.3939  0.2385
 1348POPC   GL216300  13.991  22.719  15.412  0.3823  0.0234 -0.0693
 1348POPC   C1A16301  14.050  22.340  15.848  0.0479 -0.0898  0.0346
 1348POPC   D2A16302  13.857  22.151  16.262  0.1568  0.0666  0.1153
 1348POPC   C3A16303  13.432  22.390  16.343 -0.1227  0.0302  0.1526
 1348POPC   C4A16304  13.154  22.672  16.561 -0.2116  0.0081 -0.0559
 1348POPC   C1B16305  13.858  22.800  15.848  0.0563  0.2687  0.1553
 1348POPC   C2B16306  13.840  22.651  16.284  0.0376 -0.3579 -0.0465
 1348POPC   C3B16307  13.868  22.466  16.727 -0.1296  0.1621  0.0208
 1348POPC   C4B16308  13.847  22.100  17.055 -0.2199 -0.0578  0.2340
 1349POPC   NC316309   6.672  19.164  15.121 -0.1276  0.2024  0.1029
 1349POPC   PO416310   6.358  19.377  15.045  0.0444  0.2447 -0.2067
 1349POPC   GL116311   6.080  19.460  15.261 -0.0131  0.2418 -0.0789
 1349POPC   GL216312   6.190  19.637  15.488 -0.0427 -0.2134  0.2358
 1349POPC   C1A16313   5.715  19.706  15.359  0.0008  0.2485 -0.1889
 1349POPC   D2A16314   5.426  19.903  15.755 -0.0869 -0.0562  0.0251
 1349POPC   C3A16315   5.062  19.784  15.996 -0.0248 -0.2114 -0.1081
 1349POPC   C4A16316   4.758  19.813  16.364  0.1335  0.1219  0.2041
 1349POPC   C1B16317   6.033  19.827  15.888  0.0963  0.0031  0.2705
 1349POPC   C2B16318   5.931  19.846  16.337  0.0276  0.2087  0.0933
 1349POPC   C3B16319   5.721  19.848  16.697  0.1028 -0.1857 -0.2002
 1349POPC   C4B16320   5.542  19.878  17.167 -0.1207  0.2524  0.1779
 1350POPC   NC316321   2.622  23.278  14.707  0.3703 -0.1408  0.0174
 1350POPC   PO416322   2.813  23.647  14.820 -0.0704 -0.1050  0.1174
 1350POPC   GL116323   2.782  23.951  15.159 -0.3380  0.1791 -0.2322
 1350POPC   GL216324   2.507  23.807  15.152  0.1329  0.1255  0.1833
 1350POPC   C1A16325   2.500  24.290  15.326 -0.0979 -0.1660 -0.0395
 1350POPC   D2A16326   2.303  24.392  15.692  0.2334 -0.2994  0.1014
 1350POPC   C3A16327   2.145  24.366  16.125 -0.3767 -0.0989  0.1250
 1350POPC   C4A16328   1.802  24.508  16.350  0.5055  0.1920 -0.0203
 1350POPC   C1B16329   2.278  23.856  15.514  0.1103  0.2776 -0.1236
 1350POPC   C2B16330   2.255  23.854  16.019  0.0334 -0.1061  0.3025
 1350POPC   C3B16331   2.050  23.856  16.471 -0.1724 -0.1512  0.0435
 1350POPC   C4B16332   1.892  23.566  16.883  0.0912  0.0073 -0.2621
 1351POPC   NC316333  15.656  18.166  14.995 -0.3887  0.2357 -0.0925
 1351POPC   PO416334  15.508  18.237  15.332  0.0659  0.1897  0.0472
 1351POPC   GL116335  15.593  18.269  15.681 -0.0558 -0.0973 -0.1061
 1351POPC   GL216336  15.749  18.160  15.829 -0.1219 -0.1402 -0.1153
 1351POPC   C1A16337  15.401  18.398  16.060 -0.3292 -0.3405 -0.2393
 1351POPC   D2A16338  14.985  18.214  16.207 -0.0754  0.0050  0.1703
 1351POPC   C3A16339  14.846  18.436  16.551 -0.1378  0.2610  0.0965
 1351POPC   C4A16340  15.065  18.668  16.915 -0.1724  0.1028  0.0307
 1351POPC   C1B16341  15.866  18.141  16.229  0.0874  0.1766 -0.3126
 1351POPC   C2B16342  15.599  17.867  16.519  0.2330 -0.0777  0.1439
 1351POPC   C3B16343  15.464  17.788  16.937  0.1939  0.1357 -0.1203
 1351POPC   C4B16344  15.263  17.675  17.342 -0.1631  0.0257 -0.0256
 1352POPC   NC316345   5.588  30.562  14.811 -0.1343 -0.2654  0.1624
 1352POPC   PO416346   5.935  30.403  14.845 -0.1262  0.5234  0.0966
 1352POPC   GL116347   5.873  30.409  15.270  0.0503  0.0849 -0.3551
 1352POPC   GL216348   6.150  30.303  15.373 -0.1917  0.0406  0.2794
 1352POPC   C1A16349   5.512  30.541  15.487  0.0181 -0.0799 -0.0348
 1352POPC   D2A16350   5.436  30.359  15.911 -0.0839 -0.1186 -0.1727
 1352POPC   C3A16351   5.511  30.516  16.348  0.2773 -0.0196 -0.0594
 1352POPC   C4A16352   5.515  30.795  16.677  0.1797 -0.0715  0.3324
 1352POPC   C1B16353   6.397  30.301  15.797  0.1585 -0.0706  0.1619
 1352POPC   C2B16354   6.591  30.482  16.227 -0.0335  0.1011  0.0618
 1352POPC   C3B16355   6.768  30.411  16.658  0.4832  0.2154 -0.1779
 1352POPC   C4B16356   7.032  30.436  17.039  0.2818 -0.0928 -0.0047
 1353POPC   NC316357  13.650  27.409  15.055 -0.1030  0.2098  0.0127
 1353POPC   PO416358  13.683  27.727  15.280  0.1900 -0.1891  0.1692
 1353POPC   GL116359  13.787  27.785  15.726 -0.0362 -0.0930  0.0774
 1353POPC   GL216360  14.067  27.843  15.593 -0.2457  0.0723 -0.3984
 1353POPC   C1A16361  13.682  28.181  15.914  0.0583  0.3942 -0.0121
 1353POPC   D2A16362  13.657  28.348  16.314  0.0742 -0.1998 -0.1274
 1353POPC   C3A16363  14.037  28.323  16.555 -0.2844  0.0940 -0.0140
 1353POPC   C4A16364  14.240  28.200  16.963  0.1233  0.1293 -0.2305
 1353POPC   C1B16365  14.154  28.099  15.992  0.2579  0.0385 -0.1978
 1353POPC   C2B16366  14.419  27.986  16.339 -0.3582  0.0079 -0.1395
 1353POPC   C3B16367  14.680  28.099  16.710 -0.1016  0.0789 -0.2839
 1353POPC   C4B16368  15.061  28.224  16.843  0.0202 -0.0929 -0.0978
 1354POPC   NC316369   6.121  17.558  15.374 -0.1327 -0.1625  0.0362
 1354POPC   PO416370   5.928  17.746  15.068  0.1929  0.0628 -0.1176
 1354POPC   GL116371   5.938  17.934  15.481 -0.1626  0.0046  0.1418
 1354POPC   GL216372   5.844  18.228  15.543 -0.1041  0.0157 -0.0339
 1354POPC   C1A16373   5.838  17.633  15.792  0.2410 -0.0538 -0.3446
 1354POPC   D2A16374   5.635  17.499  16.159 -0.0796  0.2631 -0.0588
 1354POPC   C3A16375   5.231  17.716  16.295 -0.1729  0.0075 -0.2347
 1354POPC   C4A16376   4.896  17.868  16.645  0.0137 -0.3712 -0.2467
 1354POPC   C1B16377   5.670  18.489  15.860  0.0794 -0.0434  0.0831
 1354POPC   C2B16378   5.400  18.610  16.211 -0.0023  0.0319  0.1249
 1354POPC   C3B16379   5.211  18.872  16.575  0.1632  0.2600 -0.2696
 1354POPC   C4B16380   4.938  19.031  16.862  0.2694 -0.0565 -0.1968
 1355POPC   NC316381   7.649   1.992  15.138  0.1052  0.3238  0.0147
 1355POPC   PO416382   7.537   2.300  15.291 -0.0643  0.1886 -0.1683
 1355POPC   GL116383   7.547   2.215  15.687  0.2030  0.1021  0.0755
 1355POPC   GL216384   7.368   2.210  15.921 -0.1482  0.1044  0.0347
 1355POPC   C1A16385   7.534   1.763  15.875  0.1844  0.0208 -0.0223
 1355POPC   D2A16386   7.457   1.450  16.193 -0.0683 -0.3968 -0.1994
 1355POPC   C3A16387   7.651   1.035  16.268 -0.0937  0.0030 -0.0507
 1355POPC   C4A16388   7.997   0.793  16.128  0.3714 -0.0084  0.0197
 1355POPC   C1B16389   7.565   2.543  16.107  0.1566 -0.2142  0.0874
 1355POPC   C2B16390   7.743   2.639  16.509  0.1020 -0.0166 -0.0779
 1355POPC   C3B16391   7.659   2.625  16.969  0.0978 -0.1064  0.0924
 1355POPC   C4B16392   7.742   2.345  17.292  0.0988 -0.0293 -0.0445
 1356POPC   NC316393   2.360  29.849  15.324 -0.1594  0.1667  0.1323
 1356POPC   PO416394   2.622  29.576  15.186 -0.0501 -0.0225 -0.0865
 1356POPC   GL116395   2.691  29.635  15.588  0.0226 -0.0984  0.0586
 1356POPC   GL216396   2.896  29.453  15.664 -0.3297  0.0238  0.0543
 1356POPC   C1A16397   2.475  30.073  15.790 -0.0154  0.2802  0.0185
 1356POPC   D2A16398   2.161  30.428  15.751  0.0803 -0.2854  0.1544
 1356POPC   C3A16399   2.110  30.759  16.065 -0.1592  0.0777  0.0270
 1356POPC   C4A16400   1.878  30.902  16.456 -0.3097  0.0191 -0.6103
 1356POPC   C1B16401   2.856  29.639  16.104  0.4060  0.0078 -0.0183
 1356POPC   C2B16402   2.970  29.773  16.568  0.0764  0.1422 -0.0842
 1356POPC   C3B16403   2.904  29.648  17.004  0.0347 -0.2419 -0.3492
 1356POPC   C4B16404   2.745  29.287  17.250  0.2032  0.0321  0.1472
 1357POPC   NC316405   2.683  30.578  15.070  0.1629 -0.0842 -0.0808
 1357POPC   PO416406   2.388  30.341  15.164 -0.0494 -0.1106 -0.1670
 1357POPC   GL116407   2.448  30.551  15.461  0.0699 -0.1789 -0.0273
 1357POPC   GL216408   2.676  30.512  15.571  0.1485 -0.0232 -0.3612
 1357POPC   C1A16409   2.213  30.951  15.625 -0.0986 -0.0644 -0.0888
 1357POPC   D2A16410   1.936  31.238  15.897 -0.2717  0.2116 -0.1161
 1357POPC   C3A16411   1.885  31.384  16.395  0.0185  0.1780 -0.0762
 1357POPC   C4A16412   1.775  31.571  16.785  0.1146  0.1629  0.1169
 1357POPC   C1B16413   2.569  30.515  16.033 -0.2266  0.2050 -0.2877
 1357POPC   C2B16414   2.568  30.761  16.420 -0.0159  0.0022 -0.3592
 1357POPC   C3B16415   2.723  30.947  16.798  0.3233 -0.2190 -0.0569
 1357POPC   C4B16416   3.061  31.072  17.139 -0.1863 -0.1177 -0.0917
 1358POPC   NC316417   5.177   4.370  14.855  0.1013  0.4987 -0.0679
 1358POPC   PO416418   5.425   4.389  15.125 -0.1644 -0.1957 -0.0182
 1358POPC   GL116419   5.693   4.512  15.422 -0.1632  0.1121 -0.1034
 1358POPC   GL216420   5.576   4.827  15.373  0.0818  0.0663 -0.1690
 1358POPC   C1A16421   5.974   4.431  15.783  0.0998  0.1169 -0.0109
 1358POPC   D2A16422   5.939   4.566  16.224  0.0265  0.3449 -0.1871
 1358POPC   C3A16423   6.209   4.669  16.593  0.1777  0.2989  0.0894
 1358POPC   C4A16424   6.280   4.505  17.018 -0.4835  0.0251  0.0690
 1358POPC   C1B16425   5.596   4.897  15.802 -0.1238 -0.2593 -0.1294
 1358POPC   C2B16426   5.552   4.900  16.280 -0.0253 -0.3712  0.0922
 1358POPC   C3B16427   5.492   4.960  16.747  0.1619  0.5751 -0.1546
 1358POPC   C4B16428   5.302   4.981  17.234 -0.0670 -0.0710  0.2922
 1359POPC   NC316429   6.455  16.276  15.376 -0.3665  0.3047  0.1874
 1359POPC   PO416430   6.086  16.355  15.253  0.0080 -0.0028  0.5319
 1359POPC   GL116431   6.001  16.224  15.685  0.4770 -0.0057  0.2211
 1359POPC   GL216432   6.225  16.139  15.820 -0.2189 -0.1077  0.0902
 1359POPC   C1A16433   5.823  16.040  16.064  0.4464 -0.2661 -0.2237
 1359POPC   D2A16434   5.896  15.885  16.548  0.2816 -0.3028  0.2658
 1359POPC   C3A16435   5.926  16.340  16.745 -0.0330 -0.0459  0.0442
 1359POPC   C4A16436   5.810  16.484  17.146  0.1711 -0.0750 -0.1566
 1359POPC   C1B16437   6.209  16.284  16.252 -0.0626 -0.1021  0.1262
 1359POPC   C2B16438   6.364  16.617  16.587  0.2407  0.0821  0.1917
 1359POPC   C3B16439   6.310  16.534  17.028 -0.1985  0.2572  0.0248
 1359POPC   C4B16440   6.252  16.437  17.496 -0.1390 -0.1093 -0.1213
 1360POPC   NC316441   9.884  29.724  15.039 -0.1053  0.0813  0.1246
 1360POPC   PO416442  10.114  29.962  15.247 -0.0668 -0.1993 -0.0035
 1360POPC   GL116443  10.154  29.573  15.457  0.0740  0.1630  0.4173
 1360POPC   GL216444  10.315  29.594  15.757 -0.2038  0.2486  0.3443
 1360POPC   C1A16445   9.920  29.402  15.862 -0.0439  0.2886 -0.0474
 1360POPC   D2A16446   9.836  29.296  16.332 -0.3192 -0.1034 -0.0541
 1360POPC   C3A16447   9.556  29.239  16.761  0.0908  0.1521 -0.1562
 1360POPC   C4A16448   9.177  29.145  16.967 -0.0907  0.3170 -0.0499
 1360POPC   C1B16449  10.347  30.001  16.011  0.2586  0.2678  0.3600
 1360POPC   C2B16450  10.352  30.089  16.493 -0.0031  0.3626  0.3463
 1360POPC   C3B16451  10.254  30.264  16.861  0.2325  0.2659 -0.0078
 1360POPC   C4B16452  10.097  30.556  17.215 -0.2781 -0.0156  0.0460
 1361POPC   NC316453   9.057   3.835  15.401  0.0184 -0.0042  0.2838
 1361POPC   PO416454   8.982   3.444  15.410 -0.0281 -0.2610 -0.1060
 1361POPC   GL116455   9.075   3.503  15.709  0.2499  0.0822 -0.2781
 1361POPC   GL216456   9.347   3.562  15.741 -0.0080 -0.0571  0.1421
 1361POPC   C1A16457   9.023   3.364  16.141 -0.0352 -0.0100 -0.0977
 1361POPC   D2A16458   8.818   3.097  16.477  0.2039 -0.1601 -0.1879
 1361POPC   C3A16459   8.524   3.260  16.859  0.0424 -0.0905 -0.1072
 1361POPC   C4A16460   8.176   3.532  16.922  0.0307 -0.1227  0.0331
 1361POPC   C1B16461   9.583   3.459  16.144  0.0051  0.0234 -0.0919
 1361POPC   C2B16462   9.566   3.661  16.529 -0.2131  0.0573  0.4303
 1361POPC   C3B16463   9.477   3.715  16.971 -0.2154  0.0133 -0.1300
 1361POPC   C4B16464   9.487   3.936  17.374  0.0416 -0.1579  0.3023
 1362POPC   NC316465   0.482  22.273  14.803 -0.2429 -0.3489  0.3542
 1362POPC   PO416466   0.819  22.453  14.849 -0.0162 -0.0143  0.1682
 1362POPC   GL116467   0.783  22.455  15.226  0.0023 -0.1662 -0.1401
 1362POPC   GL216468   0.540  22.418  15.309 -0.1453 -0.0614 -0.1812
 1362POPC   C1A16469   0.703  22.821  15.597 -0.2080  0.0273  0.2198
 1362POPC   D2A16470   0.628  23.277  15.764 -0.1428 -0.0377  0.1293
 1362POPC   C3A16471   0.978  23.576  15.872 -0.0766  0.2382 -0.2376
 1362POPC   C4A16472   1.179  23.938  16.168  0.0501  0.1302  0.0013
 1362POPC   C1B16473   0.499  22.291  15.763  0.0810  0.1861  0.0986
 1362POPC   C2B16474   0.484  22.371  16.218  0.4335 -0.0756 -0.0734
 1362POPC   C3B16475   0.531  22.739  16.551  0.2471  0.0227 -0.2252
 1362POPC   C4B16476   0.383  22.980  16.903 -0.2172 -0.1553  0.2683
 1363POPC   NC316477   9.495  24.582  15.298 -0.1782  0.1036  0.2006
 1363POPC   PO416478   9.469  24.789  14.975  0.2155 -0.2028  0.4607
 1363POPC   GL116479   9.425  25.068  15.266  0.0575 -0.3224 -0.0105
 1363POPC   GL216480   9.174  25.168  15.318  0.3695  0.0518  0.2331
 1363POPC   C1A16481   9.355  24.932  15.726 -0.0416 -0.1576  0.0937
 1363POPC   D2A16482   9.565  24.959  16.204  0.0396 -0.2387 -0.0681
 1363POPC   C3A16483   9.683  25.086  16.661  0.2194  0.0306  0.1403
 1363POPC   C4A16484   9.699  25.419  16.980 -0.3425  0.0011  0.3501
 1363POPC   C1B16485   8.843  25.350  15.574 -0.1062  0.0148 -0.0790
 1363POPC   C2B16486   8.536  25.542  15.904  0.0807 -0.0341 -0.1670
 1363POPC   C3B16487   8.329  25.807  16.263 -0.0476 -0.0157  0.3212
 1363POPC   C4B16488   7.957  25.967  16.474  0.1560 -0.0184  0.0785
 1364POPC   NC316489   4.147   9.739  14.820  0.1190  0.0699  0.0978
 1364POPC   PO416490   4.141  10.001  15.113  0.3349 -0.0217  0.2855
 1364POPC   GL116491   4.095   9.767  15.353 -0.0277 -0.2208  0.0311
 1364POPC   GL216492   4.305   9.577  15.339  0.1834  0.1373  0.3097
 1364POPC   C1A16493   4.073   9.695  15.799  0.3730 -0.0445  0.1246
 1364POPC   D2A16494   4.193   9.750  16.277 -0.0428 -0.1188  0.0964
 1364POPC   C3A16495   4.673   9.816  16.287 -0.0752  0.1569 -0.0947
 1364POPC   C4A16496   5.064   9.873  16.038  0.0711  0.0901 -0.0863
 1364POPC   C1B16497   4.377   9.271  15.707 -0.0554  0.0021  0.2000
 1364POPC   C2B16498   4.377   9.310  16.161  0.2793 -0.3322  0.2124
 1364POPC   C3B16499   4.569   9.427  16.557 -0.2145  0.1653  0.0979
 1364POPC   C4B16500   4.948   9.472  16.817  0.3314 -0.1979 -0.1712
 1365POPC   NC316501  12.393  30.261  15.209  0.3025 -0.0384 -0.4931
 1365POPC   PO416502  12.434  30.685  15.272 -0.0821  0.4077  0.2737
 1365POPC   GL116503  12.708  30.944  15.440  0.0672  0.0997  0.0764
 1365POPC   GL216504  12.602  31.171  15.254  0.2900 -0.0605  0.0458
 1365POPC   C1A16505  12.662  30.915  15.928  0.0368  0.1534  0.2262
 1365POPC   D2A16506  12.822  30.914  16.385  0.1625 -0.1391  0.2605
 1365POPC   C3A16507  12.838  31.225  16.708 -0.2019 -0.1852  0.3290
 1365POPC   C4A16508  13.157  31.405  16.939  0.0629 -0.0077 -0.0039
 1365POPC   C1B16509  13.037  31.279  15.151  0.2068  0.1745  0.3011
 1365POPC   C2B16510  13.537  31.327  15.123 -0.0269 -0.0554 -0.1125
 1365POPC   C3B16511  13.891  31.544  15.029 -0.0315  0.0396 -0.1132
 1365POPC   C4B16512  14.303  31.396  15.234  0.0440 -0.1223  0.1891
 1366POPC   NC316513  14.058   6.921  14.945 -0.2409 -0.0780 -0.0748
 1366POPC   PO416514  13.786   6.909  15.229 -0.1730 -0.2358  0.2061
 1366POPC   GL116515  13.853   6.688  15.597 -0.0913  0.0994 -0.3202
 1366POPC   GL216516  13.992   6.879  15.795  0.3593 -0.0603 -0.0677
 1366POPC   C1A16517  13.500   6.835  15.945 -0.0117  0.1585  0.2447
 1366POPC   D2A16518  13.199   6.877  16.311 -0.1575 -0.0927  0.0235
 1366POPC   C3A16519  12.941   7.215  16.378  0.1413 -0.5150  0.0633
 1366POPC   C4A16520  12.560   7.381  16.121 -0.0863 -0.3797  0.3686
 1366POPC   C1B16521  14.010   7.052  16.236  0.3247 -0.0269 -0.1346
 1366POPC   C2B16522  13.858   7.115  16.687 -0.2316  0.4116  0.1383
 1366POPC   C3B16523  13.409   6.982  16.798  0.1379  0.1541  0.1026
 1366POPC   C4B16524  12.962   7.192  16.921 -0.0819 -0.0684  0.0286
 1367POPC   NC316525   4.117  13.006  15.411 -0.0590 -0.2233  0.0062
 1367POPC   PO416526   4.441  13.101  15.249  0.2029 -0.0570 -0.2857
 1367POPC   GL116527   4.413  13.418  15.459 -0.2603  0.1497 -0.3906
 1367POPC   GL216528   4.361  13.660  15.289  0.1673 -0.0953 -0.1574
 1367POPC   C1A16529   4.082  13.450  15.808  0.0718 -0.2792 -0.0537
 1367POPC   D2A16530   3.936  13.499  16.257  0.0364  0.2237  0.0866
 1367POPC   C3A16531   3.796  13.333  16.653  0.1056  0.0603  0.2755
 1367POPC   C4A16532   3.683  13.374  17.127  0.2033 -0.0561  0.0172
 1367POPC   C1B16533   4.346  13.811  15.747  0.1573 -0.0335  0.1190
 1367POPC   C2B16534   4.342  13.774  16.189  0.1178  0.1278 -0.1035
 1367POPC   C3B16535   4.088  13.806  16.618 -0.1334  0.0627 -0.0370
 1367POPC   C4B16536   3.792  13.860  16.960 -0.0376  0.1653 -0.1025
 1368POPC   NC316537   7.264  18.692  14.683 -0.1949 -0.0557  0.0882
 1368POPC   PO416538   7.086  18.844  15.026  0.2922  0.4540 -0.2055
 1368POPC   GL116539   7.016  18.947  15.476 -0.0085 -0.0854 -0.0708
 1368POPC   GL216540   6.746  18.824  15.476  0.1468  0.0337  0.0665
 1368POPC   C1A16541   6.845  18.758  15.917 -0.2911 -0.0099 -0.1564
 1368POPC   D2A16542   7.061  18.715  16.390  0.2465  0.0610  0.1111
 1368POPC   C3A16543   7.292  18.931  16.670  0.0536  0.1997 -0.0947
 1368POPC   C4A16544   7.502  19.085  17.078 -0.0800 -0.0911  0.0065
 1368POPC   C1B16545   6.333  18.802  15.822  0.2127  0.3443  0.0202
 1368POPC   C2B16546   5.969  18.760  16.178 -0.0233  0.2560 -0.0068
 1368POPC   C3B16547   5.830  18.516  16.548 -0.1840  0.2147 -0.2858
 1368POPC   C4B16548   5.539  18.497  16.907  0.1837  0.0368 -0.0307
 1369POPC   NC316549   1.158  27.117  15.218 -0.2174  0.2914 -0.0520
 1369POPC   PO416550   1.316  26.809  15.061 -0.2390  0.0749  0.1524
 1369POPC   GL116551   1.287  26.627  15.449  0.0570  0.2728 -0.3189
 1369POPC   GL216552   1.404  26.887  15.587  0.2643 -0.2784  0.1680
 1369POPC   C1A16553   1.558  26.209  15.637 -0.1647 -0.0137  0.1623
 1369POPC   D2A16554   1.524  25.856  15.894 -0.1004 -0.6020 -0.1876
 1369POPC   C3A16555   1.577  25.596  16.291 -0.0560 -0.1743  0.0890
 1369POPC   C4A16556   1.622  25.639  16.748 -0.1008  0.0136 -0.0830
 1369POPC   C1B16557   1.375  26.650  16.016  0.1295  0.0651  0.0847
 1369POPC   C2B16558   1.599  26.332  16.243 -0.2025  0.1136  0.0842
 1369POPC   C3B16559   1.393  26.033  16.505  0.0008  0.1745  0.2144
 1369POPC   C4B16560   1.073  25.714  16.358 -0.0698  0.1484  0.0063
 1370POPC   NC316561   5.491   3.162  15.284 -0.0986 -0.2322 -0.1625
 1370POPC   PO416562   5.752   3.337  15.550  0.1746 -0.1738  0.0785
 1370POPC   GL116563   5.827   3.207  15.892 -0.2540  0.1949  0.2588
 1370POPC   GL216564   6.089   3.196  16.021  0.1025 -0.2575 -0.1028
 1370POPC   C1A16565   5.753   3.537  16.258 -0.0586  0.2783  0.0424
 1370POPC   D2A16566   5.609   3.809  16.640  0.2198  0.1555  0.2490
 1370POPC   C3A16567   5.537   3.869  17.092  0.0947  0.0759 -0.0226
 1370POPC   C4A16568   5.380   3.747  17.520  0.0501 -0.2778  0.1091
 1370POPC   C1B16569   6.168   3.091  16.429  0.2237  0.0065  0.0753
 1370POPC   C2B16570   6.329   2.828  16.793  0.1222  0.1295  0.0208
 1370POPC   C3B16571   6.277   2.403  17.007  0.3373 -0.0110  0.1320
 1370POPC   C4B16572   5.875   2.248  17.229  0.1709  0.4315 -0.3596
 1371POPC   NC316573  13.069  29.095  15.076  0.0539  0.0417  0.2185
 1371POPC   PO416574  13.382  29.039  15.298 -0.0490  0.1548 -0.2711
 1371POPC   GL116575  13.520  28.962  15.655 -0.0897 -0.0633 -0.1049
 1371POPC   GL216576  13.303  28.942  15.872  0.0373  0.0666 -0.2031
 1371POPC   C1A16577  13.785  28.696  15.896  0.4273 -0.2241  0.0099
 1371POPC   D2A16578  13.949  28.915  16.271  0.2102 -0.0474  0.2672
 1371POPC   C3A16579  13.748  29.141  16.638 -0.0915 -0.1946  0.0597
 1371POPC   C4A16580  13.384  29.369  16.848 -0.0840 -0.0058  0.0710
 1371POPC   C1B16581  13.424  28.804  16.297  0.3799  0.1934  0.0077
 1371POPC   C2B16582  13.613  28.663  16.698  0.0375  0.0291  0.2942
 1371POPC   C3B16583  14.061  28.714  16.907  0.0432  0.2034 -0.1695
 1371POPC   C4B16584  14.230  28.581  17.316 -0.2268 -0.1555  0.0812
 1372POPC   NC316585  10.415  20.579  15.847  0.3366  0.2172  0.0301
 1372POPC   PO416586  10.579  20.945  15.793 -0.0136 -0.3152  0.2079
 1372POPC   GL116587  10.585  21.087  16.117 -0.1999 -0.1252  0.2788
 1372POPC   GL216588  10.498  21.346  16.082 -0.1292  0.0315  0.1050
 1372POPC   C1A16589  10.597  21.231  16.585 -0.1160  0.3341  0.2047
 1372POPC   D2A16590  10.779  21.228  16.942  0.2863  0.4644 -0.2213
 1372POPC   C3A16591  10.811  20.872  17.245  0.1804  0.1059 -0.0657
 1372POPC   C4A16592  10.639  20.778  17.696  0.3057  0.2213  0.2794
 1372POPC   C1B16593  10.268  21.621  16.320  0.1838 -0.1285  0.0486
 1372POPC   C2B16594  10.166  21.495  16.810  0.0458 -0.1252  0.0901
 1372POPC   C3B16595  10.282  21.183  17.112 -0.5562  0.1340  0.1294
 1372POPC   C4B16596  10.343  21.137  17.612  0.0501  0.0967 -0.0792
 1373POPC   NC316597   3.829  20.823  14.087  0.1148  0.0395 -0.0479
 1373POPC   PO416598   3.645  20.948  14.416 -0.3691 -0.1091 -0.0014
 1373POPC   GL116599   3.957  20.738  14.649  0.1814 -0.1423  0.1678
 1373POPC   GL216600   3.759  20.571  14.788 -0.0601  0.0242 -0.0301
 1373POPC   C1A16601   4.106  20.286  14.646  0.0458 -0.0846 -0.2229
 1373POPC   D2A16602   3.780  20.009  14.597 -0.0265  0.1510  0.2391
 1373POPC   C3A16603   3.879  19.564  14.547 -0.0412 -0.0430 -0.0502
 1373POPC   C4A16604   4.266  19.324  14.562  0.0002 -0.1163  0.1047
 1373POPC   C1B16605   4.068  20.477  15.218  0.0906  0.3691 -0.0023
 1373POPC   C2B16606   4.246  20.586  15.643 -0.1933 -0.0807 -0.0692
 1373POPC   C3B16607   4.340  20.534  16.085 -0.0970  0.0025 -0.0414
 1373POPC   C4B16608   4.358  20.655  16.546  0.0778 -0.0288 -0.1041
 1374POPC   NC316609   9.819  23.208  15.436  0.3744 -0.1013  0.1081
 1374POPC   PO416610   9.433  23.194  15.342 -0.2128  0.0518  0.1333
 1374POPC   GL116611   9.442  23.415  15.686 -0.2464  0.0722 -0.1289
 1374POPC   GL216612   9.287  23.668  15.571  0.2582 -0.0623  0.0831
 1374POPC   C1A16613   9.856  23.454  15.894 -0.1277 -0.1148 -0.3379
 1374POPC   D2A16614  10.087  23.600  16.235 -0.0301 -0.0583 -0.1168
 1374POPC   C3A16615  10.058  23.300  16.606  0.1499 -0.2024 -0.2479
 1374POPC   C4A16616   9.952  23.301  17.076  0.0940  0.0821  0.0781
 1374POPC   C1B16617   9.046  23.944  15.816 -0.0359  0.1947  0.0352
 1374POPC   C2B16618   9.131  24.070  16.208 -0.0079  0.0047 -0.2215
 1374POPC   C3B16619   8.998  24.240  16.595  0.0423  0.0148  0.1134
 1374POPC   C4B16620   8.891  24.555  16.890  0.2856  0.2274  0.1182
 1375POPC   NC316621  14.504  25.249  15.064  0.0302 -0.0624 -0.0716
 1375POPC   PO416622  14.171  25.454  15.192  0.1094  0.2038 -0.2188
 1375POPC   GL116623  14.365  25.509  15.593 -0.0120  0.4079  0.2136
 1375POPC   GL216624  14.468  25.282  15.795  0.2992 -0.0844 -0.3082
 1375POPC   C1A16625  14.554  25.738  15.985 -0.1356  0.2973  0.0758
 1375POPC   D2A16626  14.770  25.747  16.347 -0.1657 -0.1085 -0.0186
 1375POPC   C3A16627  14.981  25.647  16.755 -0.2321  0.0415  0.0030
 1375POPC   C4A16628  15.093  25.593  17.206 -0.1282  0.2732 -0.0666
 1375POPC   C1B16629  14.558  25.315  16.262 -0.0121  0.0070  0.0127
 1375POPC   C2B16630  14.674  25.274  16.662 -0.1217  0.0226 -0.0137
 1375POPC   C3B16631  14.850  25.156  17.036 -0.0580  0.2581  0.3594
 1375POPC   C4B16632  14.793  24.737  17.089 -0.0760 -0.0689 -0.4172
 1376POPC   NC316633   5.637  23.246  15.161 -0.4785  0.2964 -0.3275
 1376POPC   PO416634   5.485  23.510  15.364 -0.0401  0.5324  0.0086
 1376POPC   GL116635   5.731  23.337  15.673 -0.1650 -0.1588  0.2980
 1376POPC   GL216636   5.974  23.184  15.577  0.1644  0.0122  0.1620
 1376POPC   C1A16637   5.545  23.523  16.042  0.0704  0.0752  0.0207
 1376POPC   D2A16638   5.486  23.723  16.441 -0.0680  0.2649 -0.3072
 1376POPC   C3A16639   5.478  23.421  16.818 -0.2087 -0.1902  0.3605
 1376POPC   C4A16640   5.324  23.127  17.113 -0.0528 -0.0590 -0.2185
 1376POPC   C1B16641   5.953  23.105  16.078 -0.1292 -0.0193  0.1070
 1376POPC   C2B16642   5.870  23.344  16.490  0.0004  0.0007  0.1857
 1376POPC   C3B16643   5.914  23.269  16.950  0.2827 -0.0543 -0.0033
 1376POPC   C4B16644   5.766  23.109  17.361 -0.0780 -0.1934  0.1084
 1377POPC   NC316645   9.183   2.035  14.885 -0.1543  0.1233  0.0826
 1377POPC   PO416646   9.017   2.071  15.241  0.1953 -0.2071  0.2454
 1377POPC   GL116647   8.962   1.988  15.645  0.0785 -0.5333  0.0119
 1377POPC   GL216648   8.771   1.783  15.714 -0.3042  0.0975  0.0771
 1377POPC   C1A16649   8.906   2.004  16.128  0.1170  0.0134  0.0260
 1377POPC   D2A16650   8.678   2.148  16.539  0.0167 -0.1943  0.0600
 1377POPC   C3A16651   8.434   2.023  16.826 -0.1760  0.0046  0.2755
 1377POPC   C4A16652   8.179   2.094  17.199  0.1279  0.0158 -0.2428
 1377POPC   C1B16653   8.510   1.454  15.880 -0.1413  0.2283 -0.3617
 1377POPC   C2B16654   8.347   1.177  16.205 -0.0950 -0.1957 -0.1833
 1377POPC   C3B16655   8.127   1.100  16.536  0.1744 -0.0187 -0.1150
 1377POPC   C4B16656   7.942   0.759  16.742  0.1451 -0.0437  0.1211
 1378POPC   NC316657   3.572  29.866  15.222  0.2107  0.1906  0.0641
 1378POPC   PO416658   3.887  29.706  15.018 -0.3616  0.3071  0.1360
 1378POPC   GL116659   3.977  29.812  15.421 -0.4623 -0.0435 -0.1989
 1378POPC   GL216660   3.814  29.541  15.522  0.0373  0.2848  0.0485
 1378POPC   C1A16661   3.734  30.009  15.735  0.0673 -0.6479  0.0301
 1378POPC   D2A16662   3.845  30.008  16.187  0.0352  0.1195 -0.0144
 1378POPC   C3A16663   3.607  30.051  16.540  0.0791 -0.0123  0.0763
 1378POPC   C4A16664   3.542  29.984  17.000 -0.1106 -0.1775  0.1010
 1378POPC   C1B16665   3.759  29.580  15.971 -0.2431  0.2464 -0.0201
 1378POPC   C2B16666   3.891  29.316  16.335 -0.0638  0.1612 -0.1542
 1378POPC   C3B16667   3.982  29.011  16.671  0.2691  0.0368  0.2189
 1378POPC   C4B16668   4.113  28.943  17.125 -0.1417  0.0632  0.3375
 1379POPC   NC316669   2.380   0.957  15.238  0.0819 -0.0719 -0.0298
 1379POPC   PO416670   2.558   1.321  15.142  0.2601 -0.1616 -0.0483
 1379POPC   GL116671   2.479   1.305  15.602 -0.0160 -0.2187  0.4002
 1379POPC   GL216672   2.714   1.112  15.607 -0.2243  0.0294 -0.0952
 1379POPC   C1A16673   2.190   1.338  15.934 -0.1386 -0.1508 -0.0990
 1379POPC   D2A16674   1.890   1.212  16.264  0.1702 -0.0444  0.2063
 1379POPC   C3A16675   1.882   1.196  16.734  0.2131 -0.0559 -0.4546
 1379POPC   C4A16676   2.043   0.914  17.099  0.1661 -0.2307  0.3435
 1379POPC   C1B16677   2.809   1.165  16.073 -0.1934 -0.3183 -0.4394
 1379POPC   C2B16678   3.062   1.316  16.436 -0.1765  0.1506 -0.1014
 1379POPC   C3B16679   3.368   1.585  16.591  0.0078  0.1794  0.1074
 1379POPC   C4B16680   3.576   1.580  16.986  0.3582  0.1077 -0.2205
 1380POPC   NC316681   1.571   3.184  15.173 -0.1211  0.0541  0.1561
 1380POPC   PO416682   1.691   2.826  15.100 -0.0249  0.1250 -0.0620
 1380POPC   GL116683   1.916   2.986  15.380 -0.3548 -0.0178 -0.1212
 1380POPC   GL216684   2.034   2.688  15.468 -0.0905 -0.1397 -0.1804
 1380POPC   C1A16685   1.914   3.164  15.823 -0.3095 -0.2211  0.0836
 1380POPC   D2A16686   1.746   3.488  16.110 -0.1500  0.2710  0.1843
 1380POPC   C3A16687   1.944   3.833  16.159  0.0746 -0.2454 -0.0739
 1380POPC   C4A16688   1.630   3.900  15.824 -0.1476  0.0492  0.2621
 1380POPC   C1B16689   2.275   2.647  15.843 -0.0619  0.1668 -0.3129
 1380POPC   C2B16690   2.455   2.796  16.215  0.0824 -0.0362  0.4120
 1380POPC   C3B16691   2.732   2.688  16.534  0.3260  0.1203  0.0532
 1380POPC   C4B16692   2.830   2.465  16.883 -0.0236  0.0141 -0.0032
 1381POPC   NC316693  14.252  30.624  14.761 -0.0606  0.2266 -0.1697
 1381POPC   PO416694  14.601  30.538  14.794 -0.1438  0.0231  0.0224
 1381POPC   GL116695  14.519  30.614  15.165  0.1174 -0.0910 -0.2195
 1381POPC   GL216696  14.292  30.425  15.284 -0.1431  0.0225  0.0532
 1381POPC   C1A16697  14.872  30.593  15.503 -0.1563  0.2156  0.1141
 1381POPC   D2A16698  14.939  30.510  15.935  0.2326  0.0016 -0.2690
 1381POPC   C3A16699  14.723  30.682  16.330 -0.3552 -0.2799  0.1470
 1381POPC   C4A16700  14.254  30.864  16.432 -0.1062 -0.0838 -0.2173
 1381POPC   C1B16701  14.460  30.395  15.742 -0.0961  0.2460 -0.1413
 1381POPC   C2B16702  14.364  30.385  16.188 -0.2986 -0.0070 -0.0629
 1381POPC   C3B16703  14.476  30.407  16.625  0.0200 -0.0400 -0.0413
 1381POPC   C4B16704  14.281  30.600  17.023  0.4534  0.1896  0.0991
 1382POPC   NC316705   7.169  10.911  15.216 -0.2255 -0.1253 -0.0601
 1382POPC   PO416706   6.934  11.233  15.336 -0.0002  0.0256 -0.4076
 1382POPC   GL116707   7.139  11.149  15.656 -0.2947  0.0001  0.0607
 1382POPC   GL216708   6.914  11.112  15.834 -0.1443  0.0390  0.1141
 1382POPC   C1A16709   7.398  11.216  16.025  0.2853 -0.4622 -0.2411
 1382POPC   D2A16710   7.286  11.385  16.460 -0.1071 -0.2216 -0.4775
 1382POPC   C3A16711   7.345  11.381  16.957 -0.0136  0.0479 -0.3868
 1382POPC   C4A16712   7.274  11.465  17.426  0.0653  0.1048  0.1975
 1382POPC   C1B16713   6.894  11.110  16.287  0.4550  0.1199  0.0146
 1382POPC   C2B16714   6.714  11.323  16.755 -0.1788  0.1138 -0.1599
 1382POPC   C3B16715   6.586  11.621  17.060  0.1168  0.1835  0.0429
 1382POPC   C4B16716   6.395  11.724  17.483 -0.2098  0.0024 -0.0039
 1383POPC   NC316717   7.411  17.774  15.751  0.0168  0.1699 -0.1123
 1383POPC   PO416718   7.810  17.814  15.632  0.2664  0.2425 -0.1742
 1383POPC   GL116719   7.828  17.745  15.964 -0.1406 -0.0483 -0.2999
 1383POPC   GL216720   7.662  17.499  16.109 -0.1174 -0.0941 -0.0516
 1383POPC   C1A16721   7.664  17.901  16.367  0.1376  0.0569 -0.1903
 1383POPC   D2A16722   7.354  17.734  16.659  0.0612  0.0663  0.0717
 1383POPC   C3A16723   6.967  17.633  16.545  0.0176  0.3486  0.1264
 1383POPC   C4A16724   6.565  17.469  16.368 -0.1462 -0.1241 -0.2767
 1383POPC   C1B16725   7.643  17.345  16.551 -0.4892 -0.1305  0.0894
 1383POPC   C2B16726   7.638  17.208  16.965 -0.0461  0.1199  0.0649
 1383POPC   C3B16727   7.468  17.071  17.430  0.2726  0.1522  0.2543
 1383POPC   C4B16728   7.325  17.051  17.875  0.2421 -0.1236 -0.0755
 1384POPC   NC316729   8.246  16.179  15.449 -0.2465 -0.1485 -0.0478
 1384POPC   PO416730   8.494  15.898  15.380 -0.0286  0.3431 -0.2573
 1384POPC   GL116731   8.605  16.030  15.820  0.0968 -0.0841 -0.0005
 1384POPC   GL216732   8.740  16.309  15.770 -0.0405  0.0122  0.2489
 1384POPC   C1A16733   8.531  15.805  16.238  0.0690  0.0439 -0.2347
 1384POPC   D2A16734   8.399  15.434  16.416  0.2087  0.0043 -0.0591
 1384POPC   C3A16735   8.571  15.283  16.797 -0.1132 -0.2055 -0.4754
 1384POPC   C4A16736   9.092  15.390  16.913 -0.0546 -0.3230  0.1759
 1384POPC   C1B16737   8.704  16.293  16.238 -0.3525  0.3673  0.0978
 1384POPC   C2B16738   8.953  16.166  16.633  0.0156 -0.1708  0.0077
 1384POPC   C3B16739   9.350  15.943  16.768  0.2284  0.2173 -0.0046
 1384POPC   C4B16740   9.637  15.604  16.844  0.2348 -0.0680 -0.1148
 1385POPC   NC316741   0.861  10.193  15.087 -0.4847 -0.2839 -0.0959
 1385POPC   PO416742   0.946  10.502  14.892  0.1117 -0.0925  0.1939
 1385POPC   GL116743   1.195  10.537  15.146 -0.2689 -0.2696 -0.1855
 1385POPC   GL216744   1.413  10.367  15.191  0.0724  0.1202  0.0106
 1385POPC   C1A16745   1.193  10.714  15.606  0.0991 -0.1516  0.1268
 1385POPC   D2A16746   1.390  10.944  15.967 -0.0434 -0.2247  0.2242
 1385POPC   C3A16747   1.336  10.619  16.273 -0.0969  0.2358  0.0284
 1385POPC   C4A16748   1.360  10.224  16.531 -0.1432 -0.0567 -0.0396
 1385POPC   C1B16749   1.548  10.363  15.612  0.1522  0.0594 -0.3633
 1385POPC   C2B16750   1.670  10.314  15.995 -0.0803  0.2645 -0.0126
 1385POPC   C3B16751   1.860  10.413  16.385 -0.0271 -0.2327  0.1500
 1385POPC   C4B16752   1.788  10.225  16.831 -0.0799  0.0937 -0.0946
 1386POPC   NC316753   5.254  14.217  14.819  0.2541 -0.0629 -0.2935
 1386POPC   PO416754   5.335  14.385  15.174 -0.0080 -0.1471  0.1097
 1386POPC   GL116755   5.413  14.283  15.580  0.1558  0.0254 -0.2235
 1386POPC   GL216756   5.498  14.534  15.679 -0.1147 -0.1910  0.2980
 1386POPC   C1A16757   5.177  14.279  16.007  0.0403 -0.2752  0.0746
 1386POPC   D2A16758   4.949  14.444  16.366  0.2312  0.1586 -0.0804
 1386POPC   C3A16759   4.599  14.729  16.518  0.3295  0.0832 -0.0473
 1386POPC   C4A16760   4.395  14.930  16.847 -0.3405  0.3107 -0.2062
 1386POPC   C1B16761   5.488  14.570  16.127 -0.1632  0.0082  0.1780
 1386POPC   C2B16762   5.544  14.530  16.607 -0.1937 -0.1322  0.3975
 1386POPC   C3B16763   5.517  14.560  17.046 -0.2840 -0.1327 -0.3880
 1386POPC   C4B16764   5.230  14.643  17.337 -0.0190  0.0120 -0.1795
 1387POPC   NC316765  12.798  22.125  15.081  0.1814 -0.1464  0.2066
 1387POPC   PO416766  12.927  21.821  15.297 -0.0056  0.0698  0.1155
 1387POPC   GL116767  12.809  21.782  15.632 -0.5092 -0.1234 -0.2322
 1387POPC   GL216768  13.025  21.743  15.807 -0.0337 -0.4368  0.2375
 1387POPC   C1A16769  12.602  21.985  15.986 -0.1976  0.0362 -0.1499
 1387POPC   D2A16770  12.451  22.173  16.337 -0.1903 -0.0478  0.0068
 1387POPC   C3A16771  12.359  22.471  16.697  0.2914  0.0139 -0.0108
 1387POPC   C4A16772  12.282  22.593  17.150  0.0455  0.0939 -0.0489
 1387POPC   C1B16773  12.897  21.678  16.254  0.1170 -0.2560  0.2917
 1387POPC   C2B16774  12.937  21.723  16.744 -0.0376 -0.1010 -0.0637
 1387POPC   C3B16775  12.739  21.705  17.155 -0.0081  0.1671  0.1547
 1387POPC   C4B16776  12.418  21.673  17.499  0.3239 -0.1489 -0.3888
 1388POPC   NC316777   3.403  15.815  14.946  0.0877  0.3647 -0.0662
 1388POPC   PO416778   3.125  15.642  15.178 -0.1789  0.1978  0.2150
 1388POPC   GL116779   3.178  15.721  15.611 -0.1249 -0.0392 -0.1355
 1388POPC   GL216780   3.019  15.427  15.713  0.0378  0.3150  0.2942
 1388POPC   C1A16781   3.496  15.861  15.905  0.3958 -0.0031  0.3412
 1388POPC   D2A16782   3.528  15.900  16.371 -0.3196 -0.2011  0.1448
 1388POPC   C3A16783   3.332  15.835  16.758  0.1040 -0.0575 -0.0059
 1388POPC   C4A16784   3.207  15.623  17.100 -0.1647  0.1651  0.0226
 1388POPC   C1B16785   3.294  15.271  16.080  0.1072 -0.0750 -0.2220
 1388POPC   C2B16786   3.422  15.336  16.511 -0.3420  0.1557 -0.1794
 1388POPC   C3B16787   3.514  15.255  16.962 -0.3382  0.0245 -0.0950
 1388POPC   C4B16788   3.599  15.372  17.380 -0.0993 -0.3890  0.3430
 1389POPC   NC316789  11.081   6.034  14.878  0.0710 -0.4944 -0.1245
 1389POPC   PO416790  10.804   5.754  14.837  0.2353 -0.0887 -0.1803
 1389POPC   GL116791  10.935   5.776  15.210 -0.2663 -0.1098  0.1268
 1389POPC   GL216792  10.646   5.859  15.288 -0.2890  0.0830  0.2561
 1389POPC   C1A16793  11.076   6.134  15.435 -0.0333 -0.0748 -0.0143
 1389POPC   D2A16794  11.138   6.541  15.573  0.0335  0.1510  0.0150
 1389POPC   C3A16795  11.431   6.714  15.946  0.0811  0.2499 -0.2486
 1389POPC   C4A16796  11.717   6.714  16.259 -0.0801  0.2251  0.2001
 1389POPC   C1B16797  10.686   5.993  15.721 -0.1066  0.1793  0.0346
 1389POPC   C2B16798  10.539   6.087  16.135  0.0353 -0.1559 -0.0818
 1389POPC   C3B16799  10.381   5.841  16.502 -0.0156  0.0184  0.1312
 1389POPC   C4B16800  10.365   5.913  16.946 -0.1436  0.2397 -0.1627
 1390POPC   NC316801   4.629  10.403  14.961 -0.4794 -0.1612 -0.1897
 1390POPC   PO416802   4.649  10.544  15.336 -0.1191  0.1139  0.1674
 1390POPC   GL116803   4.696  10.460  15.679 -0.1216 -0.1104 -0.1232
 1390POPC   GL216804   4.858  10.253  15.789  0.1428 -0.0695  0.3959
 1390POPC   C1A16805   4.615  10.686  16.085  0.0765 -0.0834 -0.1548
 1390POPC   D2A16806   4.531  10.700  16.527  0.0739 -0.1525  0.2619
 1390POPC   C3A16807   4.871  10.547  16.781 -0.0807 -0.0337 -0.0706
 1390POPC   C4A16808   5.248  10.799  16.854  0.0163 -0.1438 -0.0679
 1390POPC   C1B16809   4.862  10.278  16.263  0.0885 -0.0026  0.0350
 1390POPC   C2B16810   5.057  10.108  16.649  0.3561  0.0248 -0.1307
 1390POPC   C3B16811   5.237   9.902  16.994  0.0561 -0.1302 -0.2079
 1390POPC   C4B16812   5.250   9.557  17.286  0.1272 -0.1437  0.2817
 1391POPC   NC316813  14.068   1.306  15.149 -0.1062  0.3007 -0.0870
 1391POPC   PO416814  13.836   1.625  15.162  0.1017  0.5462 -0.0501
 1391POPC   GL116815  13.686   1.585  15.538 -0.2470  0.3065 -0.1443
 1391POPC   GL216816  13.543   1.343  15.451  0.1001 -0.2760 -0.2761
 1391POPC   C1A16817  13.882   1.813  15.880  0.0388  0.2330  0.0017
 1391POPC   D2A16818  13.875   1.788  16.361 -0.3451  0.1066  0.0070
 1391POPC   C3A16819  14.158   1.810  16.730 -0.2622  0.2137 -0.2406
 1391POPC   C4A16820  14.530   1.978  17.010 -0.0309 -0.0280 -0.0281
 1391POPC   C1B16821  13.647   1.188  15.834 -0.1795 -0.1380  0.1156
 1391POPC   C2B16822  13.836   0.870  16.098 -0.0267 -0.1488 -0.1610
 1391POPC   C3B16823  13.943   0.874  16.528 -0.0240  0.1612  0.0042
 1391POPC   C4B16824  13.838   0.997  16.954 -0.4231 -0.1141 -0.1743
 1392POPC   NC316825  10.234   4.693  15.279  0.1091  0.2864  0.3364
 1392POPC   PO416826  10.153   4.339  15.163 -0.1613 -0.1372  0.3365
 1392POPC   GL116827  10.083   4.268  15.519 -0.2573 -0.1437  0.0229
 1392POPC   GL216828   9.766   4.218  15.618  0.0789  0.2901  0.1089
 1392POPC   C1A16829  10.111   4.342  15.988  0.0601  0.0891 -0.2815
 1392POPC   D2A16830  10.056   4.258  16.425 -0.1374 -0.1301 -0.0557
 1392POPC   C3A16831  10.068   3.936  16.769 -0.0407 -0.0788  0.2076
 1392POPC   C4A16832   9.993   3.786  17.228 -0.0509 -0.1658 -0.1950
 1392POPC   C1B16833   9.653   4.492  15.952  0.1147 -0.1094  0.3643
 1392POPC   C2B16834   9.557   4.630  16.364 -0.0066 -0.1425  0.1312
 1392POPC   C3B16835   9.344   4.821  16.710  0.0856 -0.1986  0.2378
 1392POPC   C4B16836   9.396   5.224  17.051  0.2878  0.0616  0.0112
 1393POPC   NC316837  15.305   9.336  15.149 -0.0663  0.0274 -0.2307
 1393POPC   PO416838  15.566   9.479  15.335 -0.2380  0.3273 -0.0478
 1393POPC   GL116839  15.593   9.488  15.670  0.0441 -0.4346  0.1321
 1393POPC   GL216840  15.490   9.770  15.732  0.1475 -0.1537  0.0190
 1393POPC   C1A16841  15.984   9.533  15.899 -0.3348  0.2659  0.2055
 1393POPC   D2A16842  16.219   9.653  16.275  0.3714 -0.1024 -0.1272
 1393POPC   C3A16843  15.953   9.742  16.636 -0.0037  0.1752  0.0456
 1393POPC   C4A16844  15.774  10.027  16.945 -0.1911 -0.2023 -0.0328
 1393POPC   C1B16845  15.910  10.047  15.858 -0.2078 -0.0623  0.0143
 1393POPC   C2B16846  15.935  10.181  16.309 -0.1948  0.0335  0.2890
 1393POPC   C3B16847  16.172  10.246  16.717 -0.0918 -0.0646 -0.1263
 1393POPC   C4B16848  16.225  10.113  17.157  0.2860  0.0443 -0.2597
 1394POPC   NC316849   9.071  16.310  15.415 -0.1777  0.3341  0.0230
 1394POPC   PO416850   9.337  16.508  15.160  0.0923  0.0400 -0.1591
 1394POPC   GL116851   9.407  16.743  15.488 -0.3757  0.3764 -0.5766
 1394POPC   GL216852   9.319  16.967  15.435 -0.0593 -0.3025 -0.0630
 1394POPC   C1A16853   9.441  16.996  15.936 -0.0582  0.0632  0.1580
 1394POPC   D2A16854   9.115  17.019  16.201  0.0530  0.0338  0.3127
 1394POPC   C3A16855   9.263  16.899  16.625 -0.0415 -0.3232  0.1009
 1394POPC   C4A16856   9.310  17.122  17.044 -0.1642  0.0290 -0.1380
 1394POPC   C1B16857   9.131  17.270  15.667 -0.2405 -0.0611 -0.1539
 1394POPC   C2B16858   8.860  17.530  15.956 -0.1314  0.2036 -0.0670
 1394POPC   C3B16859   8.667  17.697  16.332  0.1897 -0.0776  0.0212
 1394POPC   C4B16860   8.688  17.714  16.813 -0.0732 -0.2710  0.0158
 1395POPC   NC316861   8.412  21.550  14.769  0.2730 -0.0373 -0.2502
 1395POPC   PO416862   8.481  21.654  15.164  0.1466  0.2932 -0.1305
 1395POPC   GL116863   8.084  21.637  15.350 -0.4333 -0.0542  0.1581
 1395POPC   GL216864   8.072  21.951  15.412  0.0577 -0.0586  0.1700
 1395POPC   C1A16865   7.997  21.534  15.761  0.1515 -0.2212  0.0526
 1395POPC   D2A16866   7.856  21.524  16.211  0.0140 -0.1082  0.6678
 1395POPC   C3A16867   7.872  21.487  16.654  0.0532  0.3789  0.1484
 1395POPC   C4A16868   8.057  21.381  17.123  0.2412  0.2400 -0.0131
 1395POPC   C1B16869   7.732  22.258  15.560  0.6661 -0.1095  0.0772
 1395POPC   C2B16870   7.701  22.399  16.063 -0.1755 -0.1445 -0.5104
 1395POPC   C3B16871   7.927  22.473  16.467 -0.1564  0.0976 -0.1570
 1395POPC   C4B16872   7.827  22.875  16.675  0.1182  0.2616  0.0215
 1396POPC   NC316873  14.095  25.073  15.560 -0.1070 -0.1220  0.0363
 1396POPC   PO416874  14.150  24.893  15.194 -0.3168  0.1490  0.3016
 1396POPC   GL116875  14.129  24.585  15.444  0.1396  0.1053 -0.1866
 1396POPC   GL216876  14.301  24.310  15.553 -0.0722 -0.0801 -0.0550
 1396POPC   C1A16877  13.804  24.305  15.667  0.0359 -0.3520  0.0501
 1396POPC   D2A16878  13.513  24.129  15.966 -0.3724  0.1592 -0.3098
 1396POPC   C3A16879  13.792  23.984  16.242  0.3729 -0.2949  0.1746
 1396POPC   C4A16880  13.817  23.583  16.399  0.0139 -0.1157  0.0158
 1396POPC   C1B16881  14.337  24.232  15.959 -0.0429  0.1986 -0.5790
 1396POPC   C2B16882  14.439  24.555  16.268  0.2980 -0.0263 -0.0286
 1396POPC   C3B16883  14.723  24.792  16.607 -0.0102 -0.0323  0.0462
 1396POPC   C4B16884  15.206  24.877  16.717  0.1777  0.1344 -0.0076
 1397POPC   NC316885   6.922  22.715  15.019 -0.0364 -0.2522  0.0896
 1397POPC   PO416886   6.864  22.330  14.973  0.2674  0.1226 -0.0936
 1397POPC   GL116887   6.951  22.167  15.339 -0.2402  0.0540  0.0274
 1397POPC   GL216888   6.978  22.436  15.499 -0.0470 -0.0688  0.2112
 1397POPC   C1A16889   6.740  21.884  15.644 -0.0283  0.0535  0.1393
 1397POPC   D2A16890   6.731  21.720  16.071  0.1536 -0.1372  0.0969
 1397POPC   C3A16891   6.701  21.833  16.556 -0.2357  0.0698  0.0229
 1397POPC   C4A16892   6.597  21.895  16.961 -0.0941 -0.2640  0.1255
 1397POPC   C1B16893   6.698  22.393  15.879  0.0438 -0.0380 -0.1504
 1397POPC   C2B16894   6.697  22.332  16.311 -0.0330  0.1408 -0.1950
 1397POPC   C3B16895   6.715  22.633  16.651  0.0281 -0.4539  0.0675
 1397POPC   C4B16896   6.917  22.842  16.976 -0.0615 -0.0595 -0.0665
 1398POPC   NC316897   4.242   6.309  15.131  0.1479 -0.1118 -0.1208
 1398POPC   PO416898   4.285   6.709  15.182 -0.2262 -0.1387 -0.0080
 1398POPC   GL116899   4.221   6.553  15.574  0.0199  0.3382 -0.0951
 1398POPC   GL216900   4.059   6.703  15.730  0.2014 -0.1489 -0.3198
 1398POPC   C1A16901   4.412   6.463  15.964  0.0893  0.2054 -0.1391
 1398POPC   D2A16902   4.633   6.732  16.342  0.0184  0.1108  0.0974
 1398POPC   C3A16903   4.755   6.553  16.705  0.4560 -0.3051 -0.0936
 1398POPC   C4A16904   5.013   6.268  16.907 -0.0854  0.0690  0.0578
 1398POPC   C1B16905   4.141   6.878  16.216 -0.1378 -0.3390  0.2313
 1398POPC   C2B16906   4.244   6.914  16.626 -0.4338 -0.0080  0.0406
 1398POPC   C3B16907   4.248   6.593  16.970 -0.3503  0.0166  0.1970
 1398POPC   C4B16908   4.496   6.303  17.185  0.1017 -0.2579 -0.0805
 1399POPC   NC316909  12.161  11.523  14.726 -0.0439 -0.2020 -0.0736
 1399POPC   PO416910  12.183  11.491  15.126 -0.2077  0.0815 -0.4475
 1399POPC   GL116911  12.079  11.576  15.506  0.4110 -0.0234 -0.0805
 1399POPC   GL216912  12.291  11.769  15.536 -0.0183 -0.2228 -0.1364
 1399POPC   C1A16913  11.654  11.569  15.705 -0.0038 -0.0151  0.1646
 1399POPC   D2A16914  11.354  11.858  15.845 -0.0962 -0.1247 -0.1020
 1399POPC   C3A16915  11.268  11.997  16.265 -0.2152 -0.1821  0.0240
 1399POPC   C4A16916  11.509  12.355  16.430 -0.2209 -0.2758 -0.3145
 1399POPC   C1B16917  12.172  11.619  15.982  0.2452 -0.1091  0.4195
 1399POPC   C2B16918  12.295  11.444  16.361 -0.2441  0.0064  0.3670
 1399POPC   C3B16919  12.452  11.147  16.700  0.0638  0.3154  0.1616
 1399POPC   C4B16920  12.868  11.112  16.605 -0.3587 -0.2854 -0.3056
 1400POPC   NC316921  12.017  20.401  15.523 -0.1307  0.0150  0.1953
 1400POPC   PO416922  11.927  20.781  15.581  0.4617 -0.0899 -0.1642
 1400POPC   GL116923  11.848  20.641  15.905 -0.3546  0.3600 -0.2243
 1400POPC   GL216924  11.975  20.806  16.119  0.1780 -0.2852 -0.3913
 1400POPC   C1A16925  11.484  20.641  16.186 -0.0904 -0.1035 -0.0303
 1400POPC   D2A16926  11.369  20.692  16.595 -0.3006  0.2410  0.2901
 1400POPC   C3A16927  11.212  20.273  16.854  0.0417 -0.0690 -0.1591
 1400POPC   C4A16928  11.121  20.044  17.207  0.1368 -0.2412 -0.1963
 1400POPC   C1B16929  11.948  20.767  16.610 -0.0437  0.2365  0.2052
 1400POPC   C2B16930  12.006  20.975  17.001 -0.0527 -0.0838 -0.2627
 1400POPC   C3B16931  12.280  20.805  17.420  0.1254 -0.0107  0.1467
 1400POPC   C4B16932  12.286  20.616  17.811  0.1853 -0.3511  0.1285
 1401POPC   NC316933   6.060   3.834  15.359 -0.2297  0.0306  0.1491
 1401POPC   PO416934   5.722   4.003  15.304 -0.1315  0.0481  0.3311
 1401POPC   GL116935   5.673   4.045  15.661  0.1571 -0.1920  0.3115
 1401POPC   GL216936   5.748   3.726  15.809  0.0188  0.0999 -0.2262
 1401POPC   C1A16937   5.423   4.398  15.902 -0.1520  0.4613  0.2587
 1401POPC   D2A16938   5.136   4.567  16.278  0.0008  0.1553 -0.0263
 1401POPC   C3A16939   5.145   4.481  16.722 -0.4655 -0.4315 -0.0597
 1401POPC   C4A16940   5.020   4.554  17.160 -0.3126 -0.1961  0.0461
 1401POPC   C1B16941   5.769   4.045  16.164 -0.1304 -0.3009 -0.1366
 1401POPC   C2B16942   5.613   4.323  16.529 -0.1567  0.1281  0.2817
 1401POPC   C3B16943   5.772   4.471  16.923  0.0716 -0.0387  0.1567
 1401POPC   C4B16944   5.939   4.208  17.287  0.2608  0.3109  0.1126
 1402POPC   NC316945   6.619  13.127  14.823  0.0227  0.2407 -0.0878
 1402POPC   PO416946   6.790  13.461  14.902  0.1195 -0.2526 -0.1139
 1402POPC   GL116947   6.615  13.494  15.214 -0.0554 -0.0073  0.1353
 1402POPC   GL216948   6.830  13.581  15.382 -0.2290  0.1782  0.0102
 1402POPC   C1A16949   6.503  13.330  15.638 -0.2478  0.0660 -0.1016
 1402POPC   D2A16950   6.685  13.151  16.041  0.1125  0.1530 -0.2401
 1402POPC   C3A16951   6.664  13.261  16.479 -0.0737  0.1677 -0.1806
 1402POPC   C4A16952   6.720  13.138  16.893  0.0764 -0.0732  0.0659
 1402POPC   C1B16953   6.925  13.608  15.868  0.0046 -0.0280 -0.1511
 1402POPC   C2B16954   6.999  13.574  16.313  0.3045 -0.2828 -0.1879
 1402POPC   C3B16955   6.923  13.610  16.757  0.0078  0.0740 -0.0647
 1402POPC   C4B16956   6.987  13.637  17.165  0.1112 -0.0017  0.2639
 1403POPC   NC316957   8.991   9.463  15.338  0.0406 -0.4269 -0.2621
 1403POPC   PO416958   9.365   9.581  15.274 -0.0605 -0.0310 -0.2403
 1403POPC   GL116959   9.333   9.486  15.689  0.0226 -0.1080  0.0317
 1403POPC   GL216960   9.578   9.619  15.785  0.0323  0.0000 -0.2050
 1403POPC   C1A16961   8.904   9.341  15.855 -0.0602  0.0830 -0.0380
 1403POPC   D2A16962   8.588   9.029  15.874  0.4725  0.0922 -0.0894
 1403POPC   C3A16963   8.312   8.829  16.207  0.3261  0.1129 -0.0469
 1403POPC   C4A16964   7.961   8.850  16.501  0.1097 -0.2470  0.0672
 1403POPC   C1B16965   9.327   9.583  16.143 -0.0753 -0.3948 -0.1475
 1403POPC   C2B16966   8.859   9.515  16.388  0.1104  0.3015  0.1692
 1403POPC   C3B16967   8.625   9.525  16.809 -0.2299 -0.1367  0.0224
 1403POPC   C4B16968   8.395   9.462  17.183 -0.0254 -0.1370 -0.1616
 1404POPC   NC316969  12.350  19.778  15.062  0.0185  0.0046 -0.0871
 1404POPC   PO416970  12.306  20.151  15.172 -0.0461 -0.0437  0.1698
 1404POPC   GL116971  12.187  19.932  15.571 -0.2719  0.0059  0.3923
 1404POPC   GL216972  12.041  19.721  15.428 -0.1001  0.0386 -0.0329
 1404POPC   C1A16973  12.247  19.912  16.036  0.2260 -0.0398  0.2284
 1404POPC   D2A16974  12.521  19.637  16.251 -0.2936  0.2024 -0.0718
 1404POPC   C3A16975  12.610  19.615  16.708  0.2036 -0.2588  0.1556
 1404POPC   C4A16976  12.709  19.611  17.144 -0.0034 -0.1830 -0.1123
 1404POPC   C1B16977  11.852  19.615  15.852  0.0030  0.1483 -0.0189
 1404POPC   C2B16978  11.906  19.751  16.323 -0.2827 -0.0077 -0.2295
 1404POPC   C3B16979  12.060  19.907  16.727 -0.1247  0.1395  0.0747
 1404POPC   C4B16980  12.250  19.923  17.173  0.0113  0.0426  0.0882
 1405POPC   NC316981   1.359   7.073  15.537 -0.3181  0.0111 -0.0414
 1405POPC   PO416982   0.974   7.121  15.446 -0.1429 -0.1395 -0.5157
 1405POPC   GL116983   1.038   7.238  15.852 -0.0747 -0.1672  0.0380
 1405POPC   GL216984   1.276   7.450  15.886 -0.2142 -0.5448 -0.0642
 1405POPC   C1A16985   1.221   6.929  16.166 -0.0858 -0.2136 -0.1977
 1405POPC   D2A16986   1.290   7.015  16.621 -0.1967  0.0836 -0.0182
 1405POPC   C3A16987   1.636   7.003  16.930  0.5174 -0.2468 -0.1002
 1405POPC   C4A16988   1.552   6.843  17.332 -0.0816 -0.0094  0.0755
 1405POPC   C1B16989   1.459   7.406  16.295 -0.0012  0.1777  0.0100
 1405POPC   C2B16990   1.724   7.364  16.650  0.0543 -0.3176  0.0039
 1405POPC   C3B16991   1.806   7.706  17.000  0.0767 -0.4226  0.4624
 1405POPC   C4B16992   1.823   7.803  17.488 -0.0190  0.1864 -0.0157
 1406POPC   NC316993  11.593   3.380  15.481  0.0369  0.0289  0.3745
 1406POPC   PO416994  11.841   3.517  15.175 -0.0502  0.0038  0.0169
 1406POPC   GL116995  11.923   3.778  15.470  0.1427  0.1935  0.0293
 1406POPC   GL216996  11.799   4.048  15.512  0.0294  0.0127 -0.0641
 1406POPC   C1A16997  11.805   3.628  15.941  0.4890 -0.0008  0.3458
 1406POPC   D2A16998  11.619   3.728  16.326  0.2481  0.0675  0.1280
 1406POPC   C3A16999  11.421   3.506  16.665 -0.1243 -0.1761  0.5023
 1406POPC   C4A17000  11.361   3.137  16.885 -0.3426  0.1369  0.2963
 1406POPC   C1B17001  11.917   4.186  15.920  0.0113 -0.0682 -0.1016
 1406POPC   C2B17002  11.990   4.112  16.338  0.2321 -0.2267 -0.2040
 1406POPC   C3B17003  12.057   4.406  16.729  0.1744 -0.1251  0.1605
 1406POPC   C4B17004  12.223   4.739  17.028  0.0020  0.4599  0.0035
 1407POPC   NC317005  11.482  28.765  15.534  0.1300 -0.0722  0.1164
 1407POPC   PO417006  11.561  28.413  15.489 -0.3555  0.1874  0.1494
 1407POPC   GL117007  11.534  28.429  15.897 -0.1344 -0.1042  0.3936
 1407POPC   GL217008  11.275  28.516  15.932 -0.2246  0.3579 -0.0232
 1407POPC   C1A17009  11.460  28.274  16.329 -0.0729 -0.0962 -0.0052
 1407POPC   D2A17010  11.488  28.325  16.773 -0.0245 -0.0421  0.0495
 1407POPC   C3A17011  11.080  28.418  16.901  0.2734 -0.0768  0.2661
 1407POPC   C4A17012  10.643  28.354  17.149  0.1103 -0.0767  0.1920
 1407POPC   C1B17013  11.189  28.789  16.238 -0.2767  0.1819  0.1042
 1407POPC   C2B17014  11.048  28.852  16.692 -0.0014 -0.0245  0.3154
 1407POPC   C3B17015  10.914  29.059  17.070 -0.1800 -0.1719 -0.3133
 1407POPC   C4B17016  10.732  29.287  17.430 -0.2085  0.1126 -0.2666
 1408POPC   NC317017   3.200  30.034  14.604  0.1148  0.0867 -0.1539
 1408POPC   PO417018   3.274  30.147  14.970  0.2399 -0.1350 -0.1868
 1408POPC   GL117019   3.302  30.455  15.237  0.1944 -0.2207  0.4147
 1408POPC   GL217020   3.257  30.220  15.467 -0.1466 -0.2687 -0.2689
 1408POPC   C1A17021   3.124  30.699  15.548  0.0050 -0.0281  0.0974
 1408POPC   D2A17022   3.062  30.699  16.023 -0.3380  0.1004 -0.0088
 1408POPC   C3A17023   3.181  30.781  16.413 -0.2487  0.0744  0.2647
 1408POPC   C4A17024   3.251  30.618  16.847  0.0380 -0.1810 -0.2084
 1408POPC   C1B17025   3.000  29.973  15.715 -0.0250 -0.2441 -0.0082
 1408POPC   C2B17026   2.886  30.133  16.153 -0.3982 -0.2123 -0.2356
 1408POPC   C3B17027   2.625  30.247  16.526 -0.2310  0.1441 -0.3887
 1408POPC   C4B17028   2.445  30.254  16.997 -0.0863 -0.3737 -0.0124
 1409POPC   NC317029  10.012   5.136  15.230  0.2443 -0.0918 -0.3403
 1409POPC   PO417030   9.847   5.471  15.022  0.1106  0.1076 -0.2283
 1409POPC   GL117031   9.862   5.606  15.356 -0.1836 -0.0417  0.1488
 1409POPC   GL217032   9.710   5.865  15.380  0.2008  0.0324 -0.1193
 1409POPC   C1A17033  10.208   5.439  15.606 -0.0936  0.1075  0.0357
 1409POPC   D2A17034  10.665   5.301  15.615 -0.0842  0.0216 -0.0292
 1409POPC   C3A17035  11.099   5.371  15.597 -0.0830  0.1749 -0.0370
 1409POPC   C4A17036  11.461   5.347  15.364 -0.0822  0.1775 -0.0911
 1409POPC   C1B17037   9.668   5.835  15.827  0.0056 -0.1496 -0.2567
 1409POPC   C2B17038   9.930   5.942  16.216 -0.1454 -0.0941 -0.0205
 1409POPC   C3B17039   9.905   6.030  16.675  0.0373 -0.0848  0.2534
 1409POPC   C4B17040   9.843   6.506  16.844  0.1583 -0.1554  0.3207
 1410POPC   NC317041  10.416  24.417  15.155  0.0466  0.0877 -0.0145
 1410POPC   PO417042  10.527  24.561  15.497  0.3088 -0.3207  0.0222
 1410POPC   GL117043  10.363  24.507  15.869 -0.0221  0.1695 -0.2406
 1410POPC   GL217044  10.243  24.754  15.952  0.0472 -0.1996 -0.2195
 1410POPC   C1A17045  10.052  24.292  16.180 -0.1821 -0.1748  0.2430
 1410POPC   D2A17046   9.995  24.005  16.535  0.1916 -0.0159 -0.2972
 1410POPC   C3A17047   9.718  23.714  16.686  0.0236  0.3415  0.0245
 1410POPC   C4A17048   9.487  23.740  17.042  0.1196  0.2662  0.1119
 1410POPC   C1B17049  10.028  24.764  16.337  0.2823  0.1992 -0.0221
 1410POPC   C2B17050   9.853  24.495  16.625  0.2278  0.1544  0.0143
 1410POPC   C3B17051   9.806  24.312  17.017 -0.2035  0.1995 -0.0048
 1410POPC   C4B17052   9.644  24.363  17.397  0.2387 -0.1513 -0.2211
 1411POPC   NC317053  14.606  28.567  15.229 -0.0366  0.2648  0.0420
 1411POPC   PO417054  14.763  28.896  15.355 -0.0633  0.2502 -0.0917
 1411POPC   GL117055  14.919  28.743  15.654  0.1567 -0.1317  0.1960
 1411POPC   GL217056  14.702  28.623  15.796 -0.0491 -0.0148 -0.2134
 1411POPC   C1A17057  15.123  28.386  15.884 -0.0749  0.0696  0.0735
 1411POPC   D2A17058  15.411  28.303  16.259 -0.3875  0.2628  0.1570
 1411POPC   C3A17059  15.501  28.187  16.701 -0.3893 -0.0490  0.2417
 1411POPC   C4A17060  15.715  27.968  17.081 -0.1757  0.1141 -0.0832
 1411POPC   C1B17061  14.885  28.844  16.149  0.1508  0.0746  0.2690
 1411POPC   C2B17062  14.898  29.121  16.459  0.1559  0.2923 -0.2159
 1411POPC   C3B17063  14.828  29.064  16.932  0.2521  0.0409 -0.2439
 1411POPC   C4B17064  14.512  29.074  17.241 -0.1032  0.1195  0.2587
 1412POPC   NC317065   0.284   1.734  14.799  0.2660  0.0498  0.0741
 1412POPC   PO417066  -0.030   1.773  15.069 -0.1858 -0.1659  0.0575
 1412POPC   GL117067   0.075   1.692  15.419 -0.0524 -0.4405 -0.0573
 1412POPC   GL217068  -0.012   1.389  15.345  0.0190 -0.0446 -0.1459
 1412POPC   C1A17069   0.238   1.839  15.821  0.1495 -0.0807 -0.0150
 1412POPC   D2A17070   0.624   1.929  16.044  0.1450  0.2969 -0.0778
 1412POPC   C3A17071   0.972   2.242  16.058 -0.0903  0.1940  0.0959
 1412POPC   C4A17072   1.384   2.444  16.229 -0.1738 -0.1259 -0.2495
 1412POPC   C1B17073  -0.061   1.425  15.769  0.4286 -0.0395  0.0256
 1412POPC   C2B17074  -0.103   1.498  16.161  0.4505  0.0449  0.0226
 1412POPC   C3B17075  -0.200   1.446  16.604 -0.0059  0.3023  0.0844
 1412POPC   C4B17076  -0.113   1.159  16.949 -0.0569 -0.1785 -0.1358
 1413POPC   NC317077  14.811   2.607  15.672  0.3371  0.1238  0.1321
 1413POPC   PO417078  14.406   2.564  15.505  0.2306  0.2536 -0.3535
 1413POPC   GL117079  14.295   2.750  15.836 -0.1432 -0.0965  0.0118
 1413POPC   GL217080  14.108   2.912  15.698 -0.1853 -0.2516  0.0536
 1413POPC   C1A17081  14.289   2.826  16.305  0.2315  0.0978  0.0106
 1413POPC   D2A17082  14.111   2.932  16.701 -0.0854 -0.3225 -0.1555
 1413POPC   C3A17083  14.280   2.897  17.106 -0.1585  0.0329 -0.2118
 1413POPC   C4A17084  14.323   3.146  17.511  0.1885  0.2856  0.2073
 1413POPC   C1B17085  13.806   2.782  16.065  0.1973 -0.0569  0.0553
 1413POPC   C2B17086  13.812   2.510  16.498  0.0722 -0.3464 -0.1209
 1413POPC   C3B17087  13.857   2.227  16.816 -0.2293 -0.0351 -0.1263
 1413POPC   C4B17088  13.685   1.898  17.103 -0.1240 -0.1991 -0.1050
 1414POPC   NC317089  11.011  25.797  15.420 -0.0278  0.1309 -0.3101
 1414POPC   PO417090  11.119  25.411  15.383 -0.0410  0.1960 -0.0632
 1414POPC   GL117091  10.770  25.253  15.566 -0.1038  0.0616  0.0535
 1414POPC   GL217092  10.706  25.509  15.744  0.0665  0.3207  0.2697
 1414POPC   C1A17093  10.740  25.029  16.002 -0.1723 -0.1293 -0.0738
 1414POPC   D2A17094  10.726  24.834  16.467  0.3010  0.0224 -0.3115
 1414POPC   C3A17095  10.391  24.867  16.818  0.1525 -0.0610 -0.0212
 1414POPC   C4A17096  10.021  24.797  17.054 -0.2642 -0.1220  0.1085
 1414POPC   C1B17097  10.892  25.461  16.114  0.1044  0.1459 -0.0902
 1414POPC   C2B17098  11.007  25.635  16.582  0.0463 -0.0260 -0.1278
 1414POPC   C3B17099  11.080  25.537  17.053 -0.1852 -0.2109 -0.2772
 1414POPC   C4B17100  11.191  25.161  17.371  0.2299 -0.0986  0.1222
 1415POPC   NC317101  10.213   7.172  15.499 -0.1270  0.1204  0.0082
 1415POPC   PO417102   9.809   7.236  15.444  0.0429  0.0870  0.3027
 1415POPC   GL117103   9.928   7.520  15.715 -0.1160 -0.0472  0.2709
 1415POPC   GL217104   9.701   7.432  15.949 -0.1254  0.3212  0.1889
 1415POPC   C1A17105  10.172   7.299  16.083  0.0395  0.1524 -0.2020
 1415POPC   D2A17106  10.300   7.226  16.533 -0.0803 -0.2369  0.1936
 1415POPC   C3A17107   9.838   7.186  16.682 -0.0484  0.1888 -0.1021
 1415POPC   C4A17108   9.456   7.324  16.465 -0.3654  0.0293  0.0693
 1415POPC   C1B17109   9.823   7.603  16.373 -0.0490 -0.2162 -0.1799
 1415POPC   C2B17110   9.612   7.816  16.732  0.1065 -0.0168 -0.1039
 1415POPC   C3B17111   9.567   7.652  17.176  0.0811 -0.2896 -0.0513
 1415POPC   C4B17112   9.783   7.676  17.537  0.0343 -0.1712  0.1573
 1416POPC   NC317113   3.364   6.588  15.415  0.1041 -0.0500 -0.2811
 1416POPC   PO417114   3.507   6.878  15.657 -0.5410 -0.0406 -0.2431
 1416POPC   GL117115   3.395   6.851  15.968 -0.0469  0.1757  0.0612
 1416POPC   GL217116   3.199   6.679  15.993 -0.0231 -0.1894  0.2958
 1416POPC   C1A17117   3.340   7.043  16.380  0.2799 -0.0499 -0.0339
 1416POPC   D2A17118   3.509   6.909  16.800  0.0069  0.1641  0.0245
 1416POPC   C3A17119   3.555   7.305  17.065 -0.3271 -0.4356  0.3476
 1416POPC   C4A17120   3.766   7.620  17.339  0.2009  0.3601 -0.1363
 1416POPC   C1B17121   3.259   6.346  16.286 -0.2351  0.0184  0.2205
 1416POPC   C2B17122   2.884   6.168  16.571  0.0552 -0.0308 -0.4204
 1416POPC   C3B17123   2.809   5.959  16.977 -0.1559  0.0289 -0.2416
 1416POPC   C4B17124   2.823   5.542  17.172 -0.2463  0.2025 -0.4116
 1417POPC   NC317125   6.327  17.077  15.266 -0.1645  0.1949 -0.1039
 1417POPC   PO417126   6.169  16.787  15.493 -0.0881 -0.1026  0.0156
 1417POPC   GL117127   6.221  16.597  15.805 -0.1460  0.1390  0.0069
 1417POPC   GL217128   5.977  16.601  15.932  0.1678  0.4422 -0.0540
 1417POPC   C1A17129   6.372  16.852  16.131 -0.2520 -0.2056 -0.1147
 1417POPC   D2A17130   6.245  17.114  16.448  0.0464 -0.2212  0.0158
 1417POPC   C3A17131   6.398  17.045  16.878  0.0493  0.1447  0.3021
 1417POPC   C4A17132   6.437  17.180  17.305 -0.1726 -0.3339 -0.1149
 1417POPC   C1B17133   5.933  16.662  16.343 -0.1216 -0.0495  0.1920
 1417POPC   C2B17134   5.887  16.840  16.769 -0.0720 -0.0883  0.0111
 1417POPC   C3B17135   5.865  17.206  17.070  0.1543  0.0717 -0.3011
 1417POPC   C4B17136   6.068  17.557  17.271 -0.0238  0.0612 -0.2611
 1418POPC   NC317137  11.103  28.014  15.762 -0.0108  0.2827 -0.0922
 1418POPC   PO417138  11.296  27.735  15.551  0.1748 -0.1774  0.0734
 1418POPC   GL117139  11.535  27.465  15.774  0.2657 -0.0005  0.2202
 1418POPC   GL217140  11.244  27.305  15.887 -0.2039  0.0318  0.0141
 1418POPC   C1A17141  11.731  27.344  16.161 -0.2760 -0.0871 -0.3972
 1418POPC   D2A17142  11.834  27.690  16.486 -0.0999  0.1672  0.1532
 1418POPC   C3A17143  11.823  27.883  16.879  0.0885 -0.1071 -0.1452
 1418POPC   C4A17144  11.841  28.250  17.201  0.1144 -0.3581 -0.1018
 1418POPC   C1B17145  11.281  27.334  16.321 -0.0641  0.2905  0.1150
 1418POPC   C2B17146  11.494  27.389  16.679 -0.0502  0.0177 -0.2195
 1418POPC   C3B17147  11.804  27.383  17.022 -0.0362  0.1050 -0.0202
 1418POPC   C4B17148  12.066  27.244  17.378 -0.0889  0.1672 -0.0404
 1419POPC   NC317149   8.288  10.367  15.387  0.1047  0.1055 -0.1928
 1419POPC   PO417150   7.903  10.298  15.299 -0.0419 -0.0912 -0.2680
 1419POPC   GL117151   7.864  10.052  15.605 -0.0070  0.0360  0.0339
 1419POPC   GL217152   7.645  10.006  15.697  0.1238 -0.0849 -0.0503
 1419POPC   C1A17153   8.090  10.329  15.943 -0.0290  0.2286  0.2953
 1419POPC   D2A17154   8.409  10.407  16.234  0.1200  0.2353 -0.0452
 1419POPC   C3A17155   8.276  10.457  16.718 -0.1516 -0.0375  0.0526
 1419POPC   C4A17156   8.047  10.626  17.115 -0.3218 -0.3294  0.2420
 1419POPC   C1B17157   7.661  10.157  16.142 -0.0085 -0.1649  0.0568
 1419POPC   C2B17158   7.382  10.277  16.546 -0.1640 -0.4101  0.0338
 1419POPC   C3B17159   7.027  10.280  16.869  0.1048 -0.2105 -0.1353
 1419POPC   C4B17160   7.064  10.292  17.283 -0.0283  0.1721 -0.1432
 1420POPC   NC317161  11.500  26.345  15.293  0.1027 -0.0156  0.0225
 1420POPC   PO417162  11.407  26.075  15.543  0.3718 -0.1262 -0.0504
 1420POPC   GL117163  11.366  26.147  15.853  0.0794 -0.0768 -0.0381
 1420POPC   GL217164  11.102  26.251  15.934  0.1566  0.0483 -0.0529
 1420POPC   C1A17165  11.462  25.968  16.264  0.0703  0.2036  0.2983
 1420POPC   D2A17166  11.503  26.061  16.713  0.3896  0.3409  0.0621
 1420POPC   C3A17167  11.140  26.002  16.980 -0.0203 -0.0383 -0.3688
 1420POPC   C4A17168  11.202  26.155  17.450  0.0414 -0.2855  0.0691
 1420POPC   C1B17169  10.903  26.558  16.165 -0.0079  0.2158 -0.0056
 1420POPC   C2B17170  10.590  26.764  16.379  0.2675  0.2817 -0.0782
 1420POPC   C3B17171  10.545  26.830  16.871  0.1211  0.1324  0.0835
 1420POPC   C4B17172  10.716  27.027  17.247 -0.0584  0.0118 -0.0816
 1421POPC   NC317173   0.209  26.193  15.460  0.0267 -0.0886  0.2260
 1421POPC   PO417174   0.522  26.323  15.299  0.0955 -0.1507 -0.1013
 1421POPC   GL117175   0.684  26.051  15.478 -0.0110 -0.0400  0.0134
 1421POPC   GL217176   0.695  25.929  15.149 -0.0405 -0.2492 -0.0866
 1421POPC   C1A17177   0.830  25.749  15.752 -0.1081 -0.3622 -0.2315
 1421POPC   D2A17178   0.857  25.425  16.083 -0.2660 -0.0510  0.1141
 1421POPC   C3A17179   1.216  25.225  16.310 -0.2787  0.2052 -0.2458
 1421POPC   C4A17180   1.366  24.795  16.511  0.0013  0.1325 -0.0931
 1421POPC   C1B17181   0.934  25.570  15.314 -0.1311  0.1266 -0.0735
 1421POPC   C2B17182   1.006  25.149  15.366 -0.2044 -0.0389  0.0303
 1421POPC   C3B17183   1.306  24.757  15.351 -0.2064 -0.1561 -0.4804
 1421POPC   C4B17184   1.335  24.369  15.528 -0.4186  0.1318 -0.1956
 1422POPC   NC317185   9.553   8.976  14.677 -0.2596  0.3426 -0.0484
 1422POPC   PO417186   9.526   9.008  15.056  0.3211  0.0223  0.3849
 1422POPC   GL117187   9.450   8.820  15.387 -0.0326 -0.0069 -0.2226
 1422POPC   GL217188   9.380   9.024  15.554  0.0845 -0.0782  0.2872
 1422POPC   C1A17189   9.575   8.665  15.834 -0.0546  0.2187 -0.2986
 1422POPC   D2A17190   9.353   8.623  16.272  0.1996 -0.3217 -0.1592
 1422POPC   C3A17191   9.218   8.775  16.694  0.1938  0.1692  0.1760
 1422POPC   C4A17192   9.178   8.763  17.082  0.1482  0.1055  0.0593
 1422POPC   C1B17193   9.325   9.092  15.960 -0.2097 -0.2403  0.0440
 1422POPC   C2B17194   9.276   9.186  16.438  0.3249  0.0239 -0.0853
 1422POPC   C3B17195   9.044   9.217  16.820  0.3566  0.2261 -0.0337
 1422POPC   C4B17196   8.727   9.100  17.191 -0.1397 -0.0374 -0.1367
 1423POPC   NC317197  11.166  10.672  15.324 -0.0861 -0.3288 -0.1854
 1423POPC   PO417198  11.496  10.485  15.200 -0.1604 -0.2716  0.1284
 1423POPC   GL117199  11.438  10.300  15.594  0.3280  0.2140  0.1717
 1423POPC   GL217200  11.210  10.160  15.575  0.1821  0.1224  0.0770
 1423POPC   C1A17201  11.562  10.482  15.982 -0.3056  0.1197 -0.2600
 1423POPC   D2A17202  11.589  10.701  16.421  0.1166 -0.0190  0.0031
 1423POPC   C3A17203  11.969  10.808  16.702 -0.1047  0.1155 -0.0275
 1423POPC   C4A17204  12.146  11.074  17.079  0.1308 -0.1704 -0.0350
 1423POPC   C1B17205  11.301  10.094  16.056 -0.1960  0.0060  0.0484
 1423POPC   C2B17206  11.129  10.102  16.472 -0.1734 -0.1851  0.0196
 1423POPC   C3B17207  10.954  10.137  16.898 -0.0501 -0.1070 -0.0698
 1423POPC   C4B17208  10.822  10.273  17.281 -0.0470 -0.2507  0.0263
 1424POPC   NC317209   2.313   8.367  14.799  0.0458 -0.1875 -0.2419
 1424POPC   PO417210   1.947   8.516  14.745  0.1080  0.3730 -0.0297
 1424POPC   GL117211   1.928   8.593  15.086 -0.3338 -0.5521 -0.1934
 1424POPC   GL217212   1.783   8.818  15.233  0.0439  0.1391  0.0736
 1424POPC   C1A17213   1.981   8.181  15.360  0.3315  0.2502 -0.2176
 1424POPC   D2A17214   1.766   8.046  15.817 -0.0869  0.1678  0.0772
 1424POPC   C3A17215   1.649   8.167  16.272 -0.0541  0.2004 -0.2449
 1424POPC   C4A17216   1.792   8.241  16.660  0.0711  0.1033  0.1028
 1424POPC   C1B17217   1.894   9.025  15.650  0.1781  0.2359 -0.0685
 1424POPC   C2B17218   2.229   8.848  15.869 -0.2050  0.1035 -0.3661
 1424POPC   C3B17219   2.402   8.957  16.297 -0.0286 -0.0093 -0.1153
 1424POPC   C4B17220   2.176   8.906  16.702  0.1297  0.1268 -0.3928
 1425POPC   NC317221   0.487  29.636  15.678  0.2134 -0.0009 -0.1941
 1425POPC   PO417222   0.653  29.725  15.339 -0.1118 -0.3292 -0.0073
 1425POPC   GL117223   0.851  29.973  15.724 -0.3231  0.1882 -0.0928
 1425POPC   GL217224   1.131  30.075  15.826  0.1795 -0.1236  0.0150
 1425POPC   C1A17225   0.780  29.858  16.172 -0.1100 -0.0898 -0.0062
 1425POPC   D2A17226   0.981  29.778  16.552  0.1733 -0.2781  0.2766
 1425POPC   C3A17227   1.024  29.853  17.026 -0.1659 -0.0779 -0.2707
 1425POPC   C4A17228   1.066  29.951  17.471 -0.2016  0.0769 -0.2377
 1425POPC   C1B17229   1.248  30.241  16.225 -0.0884  0.3879 -0.1573
 1425POPC   C2B17230   1.211  30.188  16.691  0.2212 -0.0459 -0.1999
 1425POPC   C3B17231   1.304  30.311  17.099  0.0875  0.0823 -0.0220
 1425POPC   C4B17232   1.487  30.315  17.506 -0.2097  0.0964 -0.2137
 1426POPC   NC317233  11.152  23.588  15.123 -0.1238 -0.0607  0.2410
 1426POPC   PO417234  11.086  23.945  15.163 -0.0731 -0.0710  0.1296
 1426POPC   GL117235  10.981  23.749  15.499  0.0515 -0.1281  0.1258
 1426POPC   GL217236  11.176  23.800  15.667 -0.3850  0.3431 -0.1476
 1426POPC   C1A17237  10.793  23.973  15.870 -0.4990 -0.1223 -0.2543
 1426POPC   D2A17238  10.702  24.372  16.120 -0.2745  0.1760  0.1421
 1426POPC   C3A17239  10.452  24.422  16.513 -0.0626 -0.0626 -0.0712
 1426POPC   C4A17240  10.306  24.299  16.935 -0.0673  0.1527 -0.2088
 1426POPC   C1B17241  11.361  23.840  16.111  0.2533  0.1948 -0.0980
 1426POPC   C2B17242  11.638  23.810  16.524 -0.0084 -0.1691 -0.0479
 1426POPC   C3B17243  12.028  23.690  16.811  0.2724 -0.3202 -0.1937
 1426POPC   C4B17244  12.426  23.822  17.104  0.0536  0.0850  0.3598
 1427POPC   NC317245   5.369  24.832  15.674  0.2058 -0.0986  0.2373
 1427POPC   PO417246   5.613  25.135  15.533  0.0341  0.0000  0.0272
 1427POPC   GL117247   5.769  25.082  15.842 -0.1213 -0.3336  0.1305
 1427POPC   GL217248   5.850  24.824  15.959  0.5123  0.0312 -0.2906
 1427POPC   C1A17249   5.780  25.195  16.322 -0.4250  0.1283  0.0036
 1427POPC   D2A17250   5.938  25.096  16.772 -0.0632 -0.2677  0.1235
 1427POPC   C3A17251   6.221  25.348  16.941  0.1168 -0.0013  0.0328
 1427POPC   C4A17252   6.324  25.575  17.339 -0.0836 -0.0771  0.0672
 1427POPC   C1B17253   6.149  24.861  16.350  0.3387 -0.1303 -0.1691
 1427POPC   C2B17254   6.495  24.814  16.687  0.1828 -0.0344  0.0568
 1427POPC   C3B17255   6.773  24.646  17.036  0.2979 -0.2058  0.3222
 1427POPC   C4B17256   7.022  24.324  17.191 -0.2880  0.0175 -0.0843
 1428POPC   NC317257  12.372  22.119  15.461  0.3166  0.0528  0.1159
 1428POPC   PO417258  12.396  21.706  15.442 -0.0194  0.1103 -0.1322
 1428POPC   GL117259  12.282  21.550  15.842  0.0549  0.1484 -0.1146
 1428POPC   GL217260  12.548  21.524  15.888 -0.1839  0.0389 -0.0770
 1428POPC   C1A17261  12.224  21.691  16.245 -0.1914  0.0262  0.0932
 1428POPC   D2A17262  12.073  21.387  16.614  0.0737  0.2086  0.0638
 1428POPC   C3A17263  12.119  21.454  17.043  0.2775  0.0855  0.3830
 1428POPC   C4A17264  12.087  21.884  17.223  0.0385 -0.2874  0.2569
 1428POPC   C1B17265  12.851  21.213  15.984  0.4850 -0.1773 -0.1975
 1428POPC   C2B17266  12.915  20.970  16.363 -0.2710 -0.1628 -0.4571
 1428POPC   C3B17267  12.975  21.105  16.805 -0.0479  0.0661 -0.0380
 1428POPC   C4B17268  12.985  21.275  17.260  0.1374  0.1515 -0.0182
 1429POPC   NC317269   5.271   6.433  14.868  0.0856 -0.0141 -0.0232
 1429POPC   PO417270   5.166   6.554  15.257 -0.3318  0.1701 -0.2141
 1429POPC   GL117271   5.264   6.643  15.617  0.0592 -0.3553 -0.1004
 1429POPC   GL217272   5.409   6.388  15.671  0.0167  0.1093  0.0278
 1429POPC   C1A17273   5.124   6.623  16.051 -0.1403  0.2126 -0.2664
 1429POPC   D2A17274   5.248   6.456  16.474  0.0948  0.1067  0.1052
 1429POPC   C3A17275   5.113   6.879  16.653  0.2298  0.1962 -0.0080
 1429POPC   C4A17276   4.697   7.053  16.729 -0.1491 -0.4982 -0.0272
 1429POPC   C1B17277   5.751   6.483  15.945  0.2467 -0.0223 -0.0426
 1429POPC   C2B17278   6.107   6.439  16.266  0.0493  0.2896 -0.1414
 1429POPC   C3B17279   6.187   6.607  16.693 -0.0584  0.2646  0.0146
 1429POPC   C4B17280   6.469   6.584  17.063 -0.1515 -0.1859 -0.1669
 1430POPC   NC317281  14.989  30.352  15.121  0.2501  0.2686  0.0194
 1430POPC   PO417282  15.143  30.017  15.021 -0.2439 -0.1935  0.2754
 1430POPC   GL117283  15.152  29.926  15.336  0.4187 -0.0404 -0.4763
 1430POPC   GL217284  14.912  29.857  15.473  0.2041  0.4487  0.1945
 1430POPC   C1A17285  15.143  30.128  15.748 -0.1601 -0.0716  0.1764
 1430POPC   D2A17286  15.270  30.131  16.245  0.0462 -0.1675  0.0549
 1430POPC   C3A17287  15.371  30.006  16.677 -0.0770  0.1276  0.1299
 1430POPC   C4A17288  15.643  29.992  17.080 -0.2376  0.1006  0.1441
 1430POPC   C1B17289  14.750  30.032  15.958 -0.1301 -0.2286 -0.1292
 1430POPC   C2B17290  14.828  30.200  16.383  0.0256  0.4567 -0.1771
 1430POPC   C3B17291  15.007  30.371  16.672  0.1400  0.0395  0.0906
 1430POPC   C4B17292  15.013  30.407  17.116 -0.4073  0.0573 -0.2947
 1431POPC   NC317293   1.723  11.636  15.004 -0.0061  0.0136 -0.0691
 1431POPC   PO417294   1.345  11.517  14.965  0.0488 -0.0040  0.0285
 1431POPC   GL117295   1.356  11.467  15.326  0.4643 -0.2030  0.0266
 1431POPC   GL217296   1.352  11.151  15.343 -0.3433  0.0722 -0.1376
 1431POPC   C1A17297   1.581  11.482  15.733  0.2717 -0.0545 -0.0110
 1431POPC   D2A17298   1.744  11.364  16.197  0.3524 -0.2441 -0.0998
 1431POPC   C3A17299   1.480  11.074  16.408 -0.2733 -0.1141 -0.1951
 1431POPC   C4A17300   1.618  10.764  16.719 -0.1385  0.3979  0.5022
 1431POPC   C1B17301   1.678  10.851  15.555  0.0073  0.0543  0.0419
 1431POPC   C2B17302   2.178  10.973  15.655  0.3053 -0.0304  0.3128
 1431POPC   C3B17303   2.259  11.183  16.074 -0.1339 -0.1082  0.2932
 1431POPC   C4B17304   2.568  11.426  16.345 -0.2497 -0.1013 -0.2475
 1432POPC   NC317305   3.523   0.742  14.608 -0.0872  0.4603  0.0640
 1432POPC   PO417306   3.700   0.990  14.874  0.1912  0.0134  0.1796
 1432POPC   GL117307   3.716   1.097  15.289 -0.0150  0.1466  0.4385
 1432POPC   GL217308   3.784   1.423  15.290 -0.3784 -0.0412  0.1195
 1432POPC   C1A17309   3.381   1.099  15.635 -0.0822  0.1772  0.2185
 1432POPC   D2A17310   3.296   0.868  16.027 -0.2028  0.2518  0.1034
 1432POPC   C3A17311   3.531   0.848  16.469 -0.0496 -0.3449 -0.1202
 1432POPC   C4A17312   3.770   0.684  16.840  0.0548  0.1061 -0.0336
 1432POPC   C1B17313   3.821   1.308  15.780 -0.0310  0.2677  0.4314
 1432POPC   C2B17314   4.068   1.566  16.082  0.1068  0.1427 -0.1184
 1432POPC   C3B17315   3.872   1.777  16.444  0.1619 -0.0251 -0.2284
 1432POPC   C4B17316   3.637   2.003  16.682  0.2560 -0.0511 -0.1601
 1433POPC   NC317317   8.223  31.659  15.496 -0.0258 -0.0025 -0.0645
 1433POPC   PO417318   7.925  31.924  15.500 -0.2640  0.1747 -0.0372
 1433POPC   GL117319   7.928  32.143  15.796  0.0670  0.4686  0.2064
 1433POPC   GL217320   7.827  32.391  15.676 -0.2071  0.0599  0.1445
 1433POPC   C1A17321   7.952  32.049  16.218  0.1894  0.0664  0.0773
 1433POPC   D2A17322   8.067  31.969  16.664  0.0888  0.0814 -0.2291
 1433POPC   C3A17323   8.116  32.074  17.127 -0.0332  0.0419  0.1447
 1433POPC   C4A17324   8.369  32.122  17.508  0.0031  0.3486  0.0696
 1433POPC   C1B17325   7.538  32.328  16.006 -0.1994 -0.2458  0.0028
 1433POPC   C2B17326   7.554  32.298  16.474 -0.1274  0.3814  0.0638
 1433POPC   C3B17327   7.633  32.012  16.868 -0.0101  0.3562 -0.1958
 1433POPC   C4B17328   7.549  31.913  17.335 -0.0717  0.2896  0.1686
 1434POPC   NC317329   9.157   8.231  14.920  0.2803  0.2536 -0.0909
 1434POPC   PO417330   9.284   8.553  15.039 -0.0993 -0.1800  0.1610
 1434POPC   GL117331   9.120   8.514  15.365 -0.2283  0.0789 -0.2290
 1434POPC   GL217332   8.873   8.484  15.371  0.0387  0.3202  0.2814
 1434POPC   C1A17333   9.059   8.726  15.782  0.2475  0.0677 -0.1273
 1434POPC   D2A17334   8.938   8.878  16.211 -0.0553  0.0853  0.1132
 1434POPC   C3A17335   8.714   9.064  16.488  0.0246  0.0715  0.0038
 1434POPC   C4A17336   8.321   9.039  16.782 -0.0552  0.1353  0.0459
 1434POPC   C1B17337   8.527   8.561  15.667 -0.2314 -0.1212 -0.1140
 1434POPC   C2B17338   8.698   8.456  16.088 -0.1842 -0.1900 -0.0556
 1434POPC   C3B17339   8.567   8.548  16.485  0.0582  0.1465 -0.2152
 1434POPC   C4B17340   8.705   8.732  16.911  0.3651 -0.1378  0.3717
 1435POPC   NC317341   9.658   4.366  15.114 -0.1123 -0.0788 -0.1393
 1435POPC   PO417342   9.745   4.669  15.333 -0.0877  0.0792 -0.2885
 1435POPC   GL117343   9.816   4.924  15.636 -0.2676 -0.0062  0.4173
 1435POPC   GL217344  10.040   4.882  15.786  0.0102 -0.1593 -0.1598
 1435POPC   C1A17345   9.570   4.999  16.013  0.0493 -0.0039 -0.0140
 1435POPC   D2A17346   9.490   5.228  16.395 -0.2393  0.0272 -0.1676
 1435POPC   C3A17347   9.771   5.163  16.738 -0.0811  0.0978 -0.1850
 1435POPC   C4A17348  10.070   5.054  17.030  0.4185  0.3684 -0.0228
 1435POPC   C1B17349   9.963   4.850  16.252  0.0617  0.1231  0.3036
 1435POPC   C2B17350   9.904   4.638  16.685 -0.0116 -0.1836 -0.2332
 1435POPC   C3B17351   9.677   4.745  17.107 -0.2290 -0.1992 -0.1512
 1435POPC   C4B17352   9.764   4.890  17.536  0.0258 -0.0310 -0.1286
 1436POPC   NC317353   6.226  30.973  14.817 -0.0393 -0.3942 -0.0425
 1436POPC   PO417354   6.372  30.663  15.007  0.1988  0.0553  0.0014
 1436POPC   GL117355   6.143  30.824  15.264 -0.0549 -0.1621  0.0372
 1436POPC   GL217356   6.308  30.888  15.529  0.1156 -0.1125  0.0238
 1436POPC   C1A17357   5.829  30.986  15.605  0.0840  0.0393  0.3279
 1436POPC   D2A17358   5.634  30.991  16.019  0.0058  0.2875 -0.1414
 1436POPC   C3A17359   5.776  31.161  16.410 -0.0134  0.0170 -0.0562
 1436POPC   C4A17360   5.967  31.050  16.842 -0.0471 -0.1328  0.2769
 1436POPC   C1B17361   6.341  30.984  15.959  0.0702  0.2127  0.0031
 1436POPC   C2B17362   6.328  31.175  16.358 -0.0188  0.0283  0.1776
 1436POPC   C3B17363   6.327  31.427  16.807  0.1515  0.1638  0.3365
 1436POPC   C4B17364   6.633  31.760  16.932  0.0039 -0.1218  0.0713
 1437POPC   NC317365   5.669  16.883  15.700  0.0620 -0.0296 -0.1605
 1437POPC   PO417366   5.772  17.170  15.401 -0.1767  0.0193 -0.1347
 1437POPC   GL117367   6.063  17.202  15.666  0.1469 -0.3154 -0.0570
 1437POPC   GL217368   6.026  17.116  15.955  0.1660 -0.1964  0.0348
 1437POPC   C1A17369   6.370  17.500  15.857 -0.3034  0.1479  0.1403
 1437POPC   D2A17370   6.686  17.846  16.062  0.2549 -0.0088 -0.0872
 1437POPC   C3A17371   6.575  17.959  16.490 -0.0808 -0.1384 -0.1411
 1437POPC   C4A17372   6.736  18.148  16.893 -0.1162 -0.2694 -0.0541
 1437POPC   C1B17373   6.097  17.517  16.238  0.2111  0.0837  0.0142
 1437POPC   C2B17374   6.219  17.571  16.675 -0.2864 -0.2291 -0.2308
 1437POPC   C3B17375   6.610  17.532  16.914  0.1207  0.2215 -0.2198
 1437POPC   C4B17376   6.987  17.601  17.221 -0.0612  0.2495  0.1490
 1438POPC   NC317377  12.982   8.968  14.991  0.1001  0.0036 -0.1375
 1438POPC   PO417378  13.145   9.191  15.212 -0.0311  0.1059 -0.0591
 1438POPC   GL117379  13.117   9.254  15.615 -0.0359  0.1780  0.0829
 1438POPC   GL217380  12.858   9.282  15.693 -0.0528 -0.3082 -0.4572
 1438POPC   C1A17381  13.166   9.308  16.067 -0.1448 -0.1769 -0.0595
 1438POPC   D2A17382  13.063   9.324  16.530 -0.0399  0.2992 -0.1697
 1438POPC   C3A17383  12.734   9.389  16.810 -0.1988  0.1446 -0.0570
 1438POPC   C4A17384  12.669   9.692  17.117  0.2228  0.2703  0.2282
 1438POPC   C1B17385  12.751   9.006  16.068 -0.1313  0.3092  0.0832
 1438POPC   C2B17386  12.586   9.022  16.481 -0.0643  0.1423 -0.5392
 1438POPC   C3B17387  12.436   9.021  16.958 -0.2936 -0.1738  0.0997
 1438POPC   C4B17388  12.155   9.034  17.327  0.0098  0.0861  0.2020
 1439POPC   NC317389  15.543  14.279  15.180  0.1356 -0.2340 -0.0870
 1439POPC   PO417390  15.561  14.562  14.897  0.2058 -0.1085 -0.0290
 1439POPC   GL117391  15.467  14.653  15.372 -0.1054  0.5062  0.1300
 1439POPC   GL217392  15.601  14.876  15.424 -0.0792  0.1302 -0.0751
 1439POPC   C1A17393  15.565  14.302  15.665 -0.0555  0.0771  0.1675
 1439POPC   D2A17394  15.598  14.018  16.034  0.2106  0.0298 -0.2773
 1439POPC   C3A17395  15.808  14.189  16.415 -0.1940 -0.0908 -0.2661
 1439POPC   C4A17396  16.171  14.413  16.613 -0.1576 -0.0652 -0.1479
 1439POPC   C1B17397  15.472  14.740  15.829  0.4119 -0.0653  0.1856
 1439POPC   C2B17398  15.442  14.634  16.241 -0.2884 -0.0781  0.0227
 1439POPC   C3B17399  15.767  14.720  16.580  0.2626  0.0196  0.1651
 1439POPC   C4B17400  15.765  14.705  17.075  0.2260 -0.2027  0.0763
 1440POPC   NC317401  14.024  15.581  15.200  0.2567 -0.2279 -0.3383
 1440POPC   PO417402  13.869  15.200  15.160  0.1696  0.0466  0.3728
 1440POPC   GL117403  13.732  15.333  15.401  0.2536 -0.2024  0.0183
 1440POPC   GL217404  13.888  15.267  15.634 -0.1212  0.0211  0.0831
 1440POPC   C1A17405  13.289  15.357  15.643 -0.3299  0.3248  0.2081
 1440POPC   D2A17406  13.113  15.311  16.084  0.2920 -0.1339 -0.2029
 1440POPC   C3A17407  13.090  15.512  16.520 -0.0299 -0.5901 -0.1034
 1440POPC   C4A17408  13.043  15.787  16.929 -0.0834 -0.2884 -0.0239
 1440POPC   C1B17409  13.838  15.300  16.108  0.0530 -0.0567  0.4685
 1440POPC   C2B17410  13.903  15.526  16.574 -0.2326  0.1034  0.3545
 1440POPC   C3B17411  14.045  15.793  16.950 -0.0064 -0.1238  0.2449
 1440POPC   C4B17412  14.096  16.027  17.338 -0.4844  0.2570  0.0014
 1441POPC   NC317413   1.634  28.728  15.228 -0.2156  0.2405 -0.0849
 1441POPC   PO417414   1.338  28.432  15.195 -0.4379 -0.0800  0.1623
 1441POPC   GL117415   1.223  28.428  15.568 -0.2001 -0.0844  0.0323
 1441POPC   GL217416   1.155  28.185  15.696  0.1986  0.1430  0.2186
 1441POPC   C1A17417   1.459  28.480  15.979  0.1074  0.1960  0.0526
 1441POPC   D2A17418   1.505  28.439  16.383  0.2260  0.0849 -0.0939
 1441POPC   C3A17419   1.838  28.341  16.718 -0.0464 -0.2035 -0.2148
 1441POPC   C4A17420   1.897  28.042  17.071 -0.1249  0.1904 -0.1640
 1441POPC   C1B17421   1.079  28.064  16.143 -0.0854 -0.1966  0.3129
 1441POPC   C2B17422   1.170  27.993  16.558  0.0353  0.2363  0.1249
 1441POPC   C3B17423   1.055  27.660  16.913 -0.0546 -0.2370  0.0351
 1441POPC   C4B17424   0.768  27.624  17.287  0.0799  0.3665 -0.4296
 1442POPC   NC317425  15.779  24.558  14.503  0.2110 -0.1557  0.1294
 1442POPC   PO417426  15.839  24.892  14.707  0.1552  0.0937  0.1790
 1442POPC   GL117427  16.019  24.866  14.991 -0.2315 -0.1311  0.0432
 1442POPC   GL217428  16.010  25.108  15.157 -0.1271  0.0416  0.1314
 1442POPC   C1A17429  16.289  24.573  15.223 -0.3624  0.0029 -0.0707
 1442POPC   D2A17430  16.308  24.228  15.494 -0.1594 -0.1948 -0.1687
 1442POPC   C3A17431  16.188  24.198  15.932 -0.1633 -0.1817  0.4157
 1442POPC   C4A17432  16.238  24.161  16.378  0.0291 -0.0862 -0.0159
 1442POPC   C1B17433  16.431  25.096  15.401  0.2765 -0.0566  0.1030
 1442POPC   C2B17434  16.576  24.999  15.819 -0.1905 -0.0744 -0.1259
 1442POPC   C3B17435  16.758  24.895  16.226 -0.2297 -0.1735 -0.0240
 1442POPC   C4B17436  16.801  24.953  16.672  0.3661  0.0735 -0.0738
 1443POPC   NC317437   9.354  11.124  15.303 -0.2932 -0.0038 -0.0541
 1443POPC   PO417438   8.978  10.957  15.339  0.1449 -0.0543 -0.2537
 1443POPC   GL117439   8.809  11.252  15.546  0.1628 -0.0229 -0.2533
 1443POPC   GL217440   8.786  11.531  15.572 -0.2071  0.0684  0.2423
 1443POPC   C1A17441   8.680  11.259  15.982  0.3629  0.2201 -0.2363
 1443POPC   D2A17442   8.620  11.108  16.452  0.0164  0.0814 -0.2242
 1443POPC   C3A17443   8.895  11.227  16.848  0.1751  0.4493  0.1767
 1443POPC   C4A17444   9.338  11.297  16.909  0.0534 -0.2207  0.0609
 1443POPC   C1B17445   8.575  11.829  15.316 -0.0006 -0.0210 -0.0410
 1443POPC   C2B17446   8.803  12.278  15.301 -0.0233  0.0432  0.1553
 1443POPC   C3B17447   8.564  12.656  15.191  0.0263  0.1080  0.0276
 1443POPC   C4B17448   8.227  12.905  14.993  0.2710 -0.0758 -0.1487
 1444POPC   NC317449   8.780  20.473  15.706  0.1259  0.0796  0.1016
 1444POPC   PO417450   8.504  20.492  15.411  0.1378  0.0956 -0.1940
 1444POPC   GL117451   8.204  20.707  15.462  0.2683  0.3707  0.1676
 1444POPC   GL217452   7.978  20.468  15.494 -0.0217 -0.0171 -0.1408
 1444POPC   C1A17453   8.011  21.066  15.682 -0.0809 -0.0746  0.3407
 1444POPC   D2A17454   7.617  21.190  15.952 -0.2769  0.1028  0.1300
 1444POPC   C3A17455   7.430  20.968  16.344  0.0104 -0.0934 -0.3344
 1444POPC   C4A17456   7.220  20.919  16.790 -0.0997 -0.2122 -0.5081
 1444POPC   C1B17457   7.893  20.671  15.967  0.0228 -0.0133 -0.0911
 1444POPC   C2B17458   7.982  20.888  16.335 -0.2149  0.2762 -0.2921
 1444POPC   C3B17459   7.757  20.992  16.734  0.3093 -0.1722 -0.3264
 1444POPC   C4B17460   7.516  21.309  17.026  0.0934  0.0633  0.0444
 1445POPC   NC317461  11.245  11.244  15.578  0.3251  0.0300 -0.0316
 1445POPC   PO417462  10.884  11.105  15.560 -0.0750  0.2536 -0.1512
 1445POPC   GL117463  10.919  11.118  15.905 -0.1243 -0.0983 -0.3551
 1445POPC   GL217464  10.864  11.266  16.128  0.0233  0.0621 -0.3423
 1445POPC   C1A17465  11.306  11.396  16.067 -0.2932  0.1417  0.5912
 1445POPC   D2A17466  11.669  11.602  16.219 -0.1797 -0.0388 -0.0769
 1445POPC   C3A17467  11.894  11.386  16.597 -0.1316  0.2481 -0.0990
 1445POPC   C4A17468  11.717  11.281  16.971 -0.0397 -0.0299 -0.0552
 1445POPC   C1B17469  10.938  11.613  16.357  0.2133 -0.0093  0.2382
 1445POPC   C2B17470  10.949  11.770  16.743 -0.1744  0.1734  0.0381
 1445POPC   C3B17471  11.125  11.882  17.203  0.1254 -0.4167 -0.1988
 1445POPC   C4B17472  11.472  12.125  17.433 -0.0076 -0.4121  0.1060
 1446POPC   NC317473  11.016  12.975  14.746  0.0623 -0.0854  0.2602
 1446POPC   PO417474  11.134  12.869  15.087  0.3546  0.0504  0.0079
 1446POPC   GL117475  11.005  13.053  15.462 -0.1452  0.0343  0.2916
 1446POPC   GL217476  11.309  13.208  15.464  0.1368 -0.0284  0.1140
 1446POPC   C1A17477  11.051  12.902  15.898 -0.1501 -0.1594 -0.0561
 1446POPC   D2A17478  11.213  12.825  16.353  0.0308  0.1652  0.0641
 1446POPC   C3A17479  11.247  12.668  16.768  0.2974  0.1278  0.0582
 1446POPC   C4A17480  11.169  12.742  17.225 -0.1722 -0.2435 -0.0464
 1446POPC   C1B17481  11.359  13.260  15.949 -0.7202 -0.0177 -0.2001
 1446POPC   C2B17482  11.491  13.303  16.394 -0.1968 -0.3624  0.0212
 1446POPC   C3B17483  11.447  13.470  16.858  0.0696 -0.0704 -0.1002
 1446POPC   C4B17484  11.296  13.289  17.233 -0.0973  0.0963  0.1412
 1447POPC   NC317485   7.624  13.998  15.314 -0.0464 -0.0374 -0.0382
 1447POPC   PO417486   7.216  13.962  15.299  0.0510  0.0375 -0.3514
 1447POPC   GL117487   7.383  14.142  15.697 -0.1072 -0.2621  0.3805
 1447POPC   GL217488   7.284  13.922  15.812  0.0327  0.1974  0.1757
 1447POPC   C1A17489   7.382  14.466  16.012 -0.1730 -0.3127 -0.0692
 1447POPC   D2A17490   7.203  14.531  16.443  0.1372  0.3206 -0.0382
 1447POPC   C3A17491   7.122  14.225  16.790 -0.2002 -0.0006  0.2024
 1447POPC   C4A17492   6.992  14.230  17.256  0.2425  0.1143 -0.0405
 1447POPC   C1B17493   7.425  13.522  16.040  0.0058 -0.1693  0.2234
 1447POPC   C2B17494   7.670  13.160  16.210 -0.1667 -0.1221 -0.1477
 1447POPC   C3B17495   7.597  12.816  16.510 -0.0320  0.4101  0.1415
 1447POPC   C4B17496   7.531  12.327  16.670 -0.3513 -0.0705  0.1520
 1448POPC   NC317497  10.990  13.334  15.088  0.1215 -0.4550  0.1073
 1448POPC   PO417498  10.653  13.439  14.999 -0.0579  0.1771  0.1464
 1448POPC   GL117499  10.596  13.336  15.403 -0.3535  0.3405 -0.2484
 1448POPC   GL217500  10.343  13.448  15.442  0.1436 -0.0157  0.1933
 1448POPC   C1A17501  10.875  13.322  15.798  0.4993 -0.0534 -0.0045
 1448POPC   D2A17502  10.956  13.284  16.256 -0.1196 -0.0616  0.1874
 1448POPC   C3A17503  11.078  13.602  16.602  0.2341 -0.1761  0.2416
 1448POPC   C4A17504  10.910  14.056  16.658  0.0243 -0.1775 -0.0602
 1448POPC   C1B17505  10.511  13.732  15.774 -0.0776 -0.1108 -0.0783
 1448POPC   C2B17506  10.575  14.162  15.927 -0.1028  0.2215  0.2252
 1448POPC   C3B17507  10.945  14.337  16.167  0.0248  0.1344  0.0530
 1448POPC   C4B17508  11.071  14.533  16.615 -0.2984 -0.1051  0.0713
 1449POPC   NC317509  13.723   6.340  15.427  0.3088 -0.0604  0.0564
 1449POPC   PO417510  13.660   6.017  15.628 -0.2361  0.0156 -0.1818
 1449POPC   GL117511  13.549   6.372  15.914  0.2689  0.1794 -0.3073
 1449POPC   GL217512  13.761   6.344  16.064  0.2626 -0.1772 -0.1910
 1449POPC   C1A17513  13.226   6.223  16.190  0.0210  0.3409  0.0942
 1449POPC   D2A17514  13.301   6.425  16.609 -0.2433  0.1913  0.0500
 1449POPC   C3A17515  13.495   6.228  17.007 -0.1956  0.4715 -0.2329
 1449POPC   C4A17516  13.890   6.182  17.290  0.1179 -0.2821  0.1844
 1449POPC   C1B17517  13.725   6.630  16.396 -0.0367  0.4828 -0.3159
 1449POPC   C2B17518  13.757   6.580  16.838  0.2905 -0.0560 -0.0137
 1449POPC   C3B17519  13.612   6.666  17.288 -0.1353  0.0985  0.3886
 1449POPC   C4B17520  13.729   6.771  17.691  0.0773  0.0389  0.2423
 1450POPC   NC317521   6.615   2.210  15.538  0.4318  0.2234  0.0142
 1450POPC   PO417522   6.329   2.019  15.712  0.1576 -0.1897 -0.1323
 1450POPC   GL117523   6.463   1.994  16.015  0.1372 -0.3925 -0.0761
 1450POPC   GL217524   6.464   1.698  16.075  0.0570 -0.0159 -0.0295
 1450POPC   C1A17525   6.469   2.252  16.406 -0.0997  0.2409  0.0719
 1450POPC   D2A17526   6.714   2.245  16.801 -0.0974 -0.0549  0.4185
 1450POPC   C3A17527   7.131   2.054  16.688 -0.1707  0.2459  0.1924
 1450POPC   C4A17528   7.640   2.164  16.810  0.1507 -0.0142  0.1293
 1450POPC   C1B17529   6.380   1.773  16.521  0.0902  0.2119 -0.2268
 1450POPC   C2B17530   6.379   1.845  16.978  0.0320  0.0058 -0.0066
 1450POPC   C3B17531   6.300   2.023  17.321 -0.2817  0.2088 -0.2018
 1450POPC   C4B17532   6.564   2.197  17.716  0.2314  0.6881  0.3546
 1451POPC   NC317533  11.639  16.147  14.540 -0.2186 -0.2986 -0.2145
 1451POPC   PO417534  11.915  16.160  14.808  0.3327 -0.3258 -0.1241
 1451POPC   GL117535  11.828  16.097  15.191  0.2045 -0.1869 -0.1863
 1451POPC   GL217536  11.605  16.342  15.205  0.0887 -0.3171  0.1330
 1451POPC   C1A17537  11.655  16.099  15.631 -0.2650  0.2179  0.2691
 1451POPC   D2A17538  11.719  16.235  16.098  0.0720 -0.2486 -0.0361
 1451POPC   C3A17539  11.489  16.612  16.198 -0.1354  0.0185  0.1270
 1451POPC   C4A17540  11.618  16.877  16.580 -0.2191  0.1683 -0.1360
 1451POPC   C1B17541  11.891  16.498  15.510 -0.1504  0.2004 -0.0187
 1451POPC   C2B17542  11.895  16.683  15.894 -0.1877 -0.0932  0.0942
 1451POPC   C3B17543  11.977  16.569  16.341  0.1752  0.2144  0.1785
 1451POPC   C4B17544  12.007  16.629  16.800 -0.0821 -0.4894 -0.0010
 1452POPC   NC317545  15.468   1.817  15.357  0.1401 -0.3349  0.0785
 1452POPC   PO417546  15.155   2.036  15.370 -0.0621 -0.0087  0.0985
 1452POPC   GL117547  15.102   2.013  15.779 -0.3285 -0.3220 -0.0860
 1452POPC   GL217548  15.084   2.277  15.879 -0.0024  0.2398 -0.4051
 1452POPC   C1A17549  14.987   1.771  16.120 -0.0604 -0.2411 -0.0536
 1452POPC   D2A17550  15.103   1.669  16.522  0.0275 -0.0292 -0.0140
 1452POPC   C3A17551  15.081   1.867  16.925  0.1201  0.0180 -0.3308
 1452POPC   C4A17552  15.068   1.935  17.379  0.0617  0.1353 -0.4120
 1452POPC   C1B17553  15.487   2.383  16.164  0.1236  0.0446 -0.0227
 1452POPC   C2B17554  15.644   2.424  16.640 -0.1578  0.0335  0.1470
 1452POPC   C3B17555  15.904   2.262  16.973 -0.2133  0.4353  0.2645
 1452POPC   C4B17556  16.304   2.142  17.132 -0.0293 -0.0204 -0.0211
 1453POPC   NC317557   5.050  29.651  15.189 -0.0615  0.0478 -0.0055
 1453POPC   PO417558   4.768  29.603  15.433 -0.0396  0.0674  0.3274
 1453POPC   GL117559   4.757  29.648  15.817 -0.1866  0.0573 -0.2194
 1453POPC   GL217560   4.561  29.486  15.980  0.0346 -0.0133  0.1848
 1453POPC   C1A17561   4.847  29.965  16.122 -0.1303  0.1416  0.0144
 1453POPC   D2A17562   5.169  30.204  16.306 -0.1211 -0.1100  0.3072
 1453POPC   C3A17563   5.373  30.242  16.767  0.2512  0.0069  0.0036
 1453POPC   C4A17564   5.453  30.513  17.119  0.0855 -0.2278  0.1389
 1453POPC   C1B17565   4.655  29.481  16.412 -0.0690 -0.0657  0.0985
 1453POPC   C2B17566   4.467  29.756  16.739  0.2063  0.2108  0.3279
 1453POPC   C3B17567   4.241  29.784  17.123  0.2782  0.0907 -0.1315
 1453POPC   C4B17568   4.407  30.084  17.442 -0.0630 -0.1265  0.2430
 1454POPC   NC317569  14.704   8.389  15.308 -0.0722 -0.1498 -0.1504
 1454POPC   PO417570  14.402   8.652  15.304  0.0724 -0.0411 -0.1488
 1454POPC   GL117571  14.430   8.513  15.726  0.0885  0.1095  0.4488
 1454POPC   GL217572  14.167   8.621  15.732 -0.3647 -0.1783  0.2986
 1454POPC   C1A17573  14.465   8.791  16.104 -0.2072 -0.0242  0.1442
 1454POPC   D2A17574  14.533   8.941  16.519 -0.0941 -0.0589  0.1773
 1454POPC   C3A17575  14.388   8.782  16.848 -0.0579  0.0921 -0.3714
 1454POPC   C4A17576  14.310   8.503  17.266 -0.3137 -0.0453  0.0975
 1454POPC   C1B17577  13.948   8.739  16.156  0.0724 -0.4329 -0.1918
 1454POPC   C2B17578  13.881   8.879  16.585  0.0192  0.0278  0.0543
 1454POPC   C3B17579  13.795   8.768  16.983  0.1043  0.0334  0.3502
 1454POPC   C4B17580  13.922   8.802  17.439 -0.0188  0.0280  0.1090
 1455POPC   NC317581   8.374  18.640  15.455 -0.1900 -0.0854 -0.0126
 1455POPC   PO417582   8.480  18.892  15.753 -0.2074  0.2338  0.1294
 1455POPC   GL117583   8.377  18.976  16.013 -0.1206 -0.5183  0.0649
 1455POPC   GL217584   8.510  19.198  16.188 -0.0526  0.3741 -0.1008
 1455POPC   C1A17585   8.200  18.818  16.447  0.3120  0.1878  0.3357
 1455POPC   D2A17586   8.174  18.485  16.720  0.0714  0.1048  0.3595
 1455POPC   C3A17587   8.059  18.280  17.165  0.0376  0.1124 -0.0787
 1455POPC   C4A17588   8.284  18.233  17.602 -0.0447  0.3170 -0.3900
 1455POPC   C1B17589   8.358  19.238  16.648  0.2895  0.1722  0.2863
 1455POPC   C2B17590   8.277  19.270  17.129 -0.0712  0.0449  0.1170
 1455POPC   C3B17591   8.232  19.185  17.549  0.0706  0.1349 -0.1942
 1455POPC   C4B17592   7.891  18.902  17.758  0.3144 -0.3181  0.0752
 1456POPC   NC317593   4.738   6.599  15.515  0.1256 -0.2124 -0.1626
 1456POPC   PO417594   4.875   6.945  15.460 -0.2133  0.0783  0.1321
 1456POPC   GL117595   5.118   7.067  15.761 -0.1070 -0.6361  0.0974
 1456POPC   GL217596   5.202   7.324  15.943  0.0403 -0.1211  0.0999
 1456POPC   C1A17597   5.480   6.966  16.069  0.1565  0.2800  0.2629
 1456POPC   D2A17598   5.765   6.801  16.358 -0.0101 -0.1280  0.3494
 1456POPC   C3A17599   5.702   6.786  16.806 -0.0653 -0.1963 -0.0477
 1456POPC   C4A17600   5.906   6.950  17.197 -0.0707 -0.1959 -0.2048
 1456POPC   C1B17601   5.480   7.411  16.299 -0.1019 -0.1220 -0.0566
 1456POPC   C2B17602   5.449   7.472  16.725  0.0429 -0.1144  0.0443
 1456POPC   C3B17603   5.270   7.729  17.097 -0.1730 -0.2926  0.0722
 1456POPC   C4B17604   5.005   7.646  17.462  0.1020 -0.1954  0.1300
 1457POPC   NC317605  11.586   8.910  15.451  0.0852 -0.1389 -0.0183
 1457POPC   PO417606  11.307   9.213  15.524  0.0170  0.2589 -0.0076
 1457POPC   GL117607  11.421   9.305  15.990  0.0374 -0.1570 -0.0840
 1457POPC   GL217608  11.288   9.576  15.889  0.0799  0.1623 -0.0726
 1457POPC   C1A17609  11.257   9.128  16.355  0.0685  0.0037  0.0462
 1457POPC   D2A17610  11.224   9.276  16.744  0.1193  0.0891  0.0597
 1457POPC   C3A17611  11.371   9.049  17.079  0.0485 -0.1480 -0.1361
 1457POPC   C4A17612  11.596   8.673  17.160  0.2528 -0.2286  0.1009
 1457POPC   C1B17613  11.647   9.741  16.131 -0.1783  0.0002  0.2405
 1457POPC   C2B17614  11.637  10.112  16.416  0.1847 -0.1777  0.1639
 1457POPC   C3B17615  11.469  10.356  16.751 -0.1227 -0.0956  0.3313
 1457POPC   C4B17616  11.297  10.468  17.163 -0.1572  0.0586  0.3561
 1458POPC   NC317617   1.637   3.883  14.674 -0.1566 -0.0620  0.0939
 1458POPC   PO417618   1.642   3.724  15.033  0.1516  0.1440 -0.1314
 1458POPC   GL117619   1.776   3.587  15.373  0.1885 -0.2857  0.0801
 1458POPC   GL217620   1.507   3.550  15.506 -0.1185 -0.1310  0.2516
 1458POPC   C1A17621   2.097   3.770  15.674  0.0535 -0.0800  0.3440
 1458POPC   D2A17622   2.331   4.137  15.904  0.3091 -0.1104  0.0326
 1458POPC   C3A17623   2.754   4.272  15.775 -0.0363 -0.4993  0.0530
 1458POPC   C4A17624   3.132   4.535  15.637  0.3357  0.1419 -0.0665
 1458POPC   C1B17625   1.186   3.549  15.874  0.1092  0.0108  0.0798
 1458POPC   C2B17626   0.973   3.271  16.159  0.1076 -0.0915  0.1181
 1458POPC   C3B17627   0.994   3.243  16.683 -0.1566 -0.0408 -0.1547
 1458POPC   C4B17628   0.939   3.131  17.190 -0.1534  0.3878 -0.2447
 1459POPC   NC317629  12.221  31.060  15.532  0.1136  0.1511  0.3424
 1459POPC   PO417630  12.157  31.416  15.361  0.0238  0.2821  0.1026
 1459POPC   GL117631  12.179  31.563  15.741 -0.0345  0.0968 -0.0225
 1459POPC   GL217632  12.444  31.421  15.803  0.2161  0.0984  0.0384
 1459POPC   C1A17633  12.233  31.602  16.205 -0.0098 -0.0541 -0.1032
 1459POPC   D2A17634  12.426  31.577  16.608  0.0180  0.2192 -0.0581
 1459POPC   C3A17635  12.786  31.771  16.931 -0.0874  0.2245  0.0757
 1459POPC   C4A17636  13.129  31.853  17.165 -0.0757 -0.0316 -0.5239
 1459POPC   C1B17637  12.763  31.420  16.158  0.0860  0.0062 -0.0781
 1459POPC   C2B17638  13.001  31.625  16.508 -0.0116 -0.1479 -0.1114
 1459POPC   C3B17639  13.316  31.831  16.705  0.1661  0.0494  0.0656
 1459POPC   C4B17640  13.725  31.939  16.724 -0.3687 -0.2832 -0.2271
 1460POPC   NC317641  10.773   8.714  15.265 -0.1275  0.0588 -0.1596
 1460POPC   PO417642  11.078   8.692  15.520 -0.2534  0.3374 -0.2276
 1460POPC   GL117643  11.134   8.910  15.840  0.0357 -0.1406  0.0870
 1460POPC   GL217644  11.049   8.692  16.042  0.2188 -0.1878  0.2199
 1460POPC   C1A17645  11.571   8.925  16.089  0.1551 -0.0780  0.1665
 1460POPC   D2A17646  11.874   8.599  16.254 -0.0885 -0.1690  0.1442
 1460POPC   C3A17647  11.999   8.235  16.425  0.3453 -0.0736  0.0491
 1460POPC   C4A17648  11.964   8.120  16.836 -0.0483  0.4479  0.2676
 1460POPC   C1B17649  10.860   8.560  16.415 -0.1659 -0.1326 -0.1824
 1460POPC   C2B17650  11.119   8.268  16.686  0.0299  0.0795 -0.1405
 1460POPC   C3B17651  11.425   8.218  17.039 -0.1249  0.0548 -0.0376
 1460POPC   C4B17652  11.779   8.222  17.369  0.0984 -0.3372  0.2815
 1461POPC   NC317653   1.578   1.818  14.786  0.1018 -0.0020 -0.0649
 1461POPC   PO417654   1.321   1.687  14.966  0.1527  0.3005 -0.2335
 1461POPC   GL117655   1.482   1.732  15.333  0.2636 -0.4436 -0.1959
 1461POPC   GL217656   1.734   1.827  15.304  0.0303 -0.0340 -0.2536
 1461POPC   C1A17657   1.209   1.558  15.671  0.2227  0.0675 -0.0574
 1461POPC   D2A17658   0.991   1.638  16.045  0.0690  0.2215  0.1656
 1461POPC   C3A17659   1.322   1.898  16.314  0.0489 -0.0456 -0.0801
 1461POPC   C4A17660   1.347   2.247  16.702 -0.0974  0.0205 -0.1295
 1461POPC   C1B17661   1.809   1.632  15.771 -0.1092  0.0682 -0.0890
 1461POPC   C2B17662   2.027   1.756  16.209  0.1206 -0.2431  0.0167
 1461POPC   C3B17663   2.136   1.926  16.669  0.0180 -0.3403  0.2188
 1461POPC   C4B17664   2.465   2.032  16.990  0.1352  0.1129  0.0206
 1462POPC   NC317665   9.611   8.400  15.354 -0.0936 -0.1667 -0.0506
 1462POPC   PO417666   9.380   8.095  15.395  0.2976 -0.2047 -0.1322
 1462POPC   GL117667   9.522   7.932  15.825  0.4383 -0.0407  0.5880
 1462POPC   GL217668   9.786   8.085  15.771 -0.1068  0.0457  0.1249
 1462POPC   C1A17669   9.262   7.729  16.206  0.0044 -0.1069 -0.0434
 1462POPC   D2A17670   9.018   7.695  16.562 -0.4100 -0.1847 -0.3086
 1462POPC   C3A17671   9.128   7.426  16.898 -0.2092  0.5413  0.0442
 1462POPC   C4A17672   9.467   7.127  17.044 -0.2350 -0.0130 -0.2654
 1462POPC   C1B17673   9.663   8.101  16.216  0.0784  0.1317  0.0949
 1462POPC   C2B17674   9.439   8.236  16.630 -0.0880  0.0661 -0.1502
 1462POPC   C3B17675   9.380   8.114  17.097  0.0755  0.0788  0.0760
 1462POPC   C4B17676   9.295   7.992  17.539  0.1641 -0.0608  0.1719
 1463POPC   NC317677  11.937  28.748  15.741 -0.0389  0.1222 -0.1757
 1463POPC   PO417678  12.094  29.093  15.716 -0.1574 -0.3711 -0.1173
 1463POPC   GL117679  12.075  29.175  16.160  0.1048  0.1876 -0.2529
 1463POPC   GL217680  12.376  29.251  16.142 -0.1385  0.0204  0.2096
 1463POPC   C1A17681  12.156  29.584  16.374 -0.2608 -0.0085 -0.0907
 1463POPC   D2A17682  12.316  29.997  16.546  0.1193 -0.0258 -0.0413
 1463POPC   C3A17683  12.617  30.106  16.861  0.1701 -0.0775 -0.0411
 1463POPC   C4A17684  12.953  30.395  17.015  0.2586 -0.2609  0.1771
 1463POPC   C1B17685  12.486  29.227  16.569 -0.5259  0.1776 -0.0290
 1463POPC   C2B17686  12.510  29.057  17.039  0.3390 -0.0914 -0.0172
 1463POPC   C3B17687  12.442  28.890  17.437  0.0831  0.0913 -0.0079
 1463POPC   C4B17688  12.531  28.673  17.845  0.0081  0.1925 -0.3728
 1464POPC   NC317689  14.806  27.201  15.620  0.1238 -0.1190  0.2654
 1464POPC   PO417690  14.504  27.458  15.482 -0.1057 -0.1489 -0.2097
 1464POPC   GL117691  14.434  27.350  15.810  0.0462  0.1684  0.2594
 1464POPC   GL217692  14.193  27.129  15.871  0.2206  0.1271  0.2616
 1464POPC   C1A17693  14.111  27.607  16.027  0.1015 -0.3466 -0.0994
 1464POPC   D2A17694  13.834  27.875  16.318 -0.0005 -0.2682  0.1712
 1464POPC   C3A17695  13.736  27.905  16.740 -0.2241 -0.0849  0.3323
 1464POPC   C4A17696  13.747  28.251  17.009  0.1209 -0.2983  0.3763
 1464POPC   C1B17697  14.258  27.248  16.352  0.2707  0.1696  0.2720
 1464POPC   C2B17698  14.086  27.555  16.635  0.0092 -0.2001 -0.0073
 1464POPC   C3B17699  14.033  27.755  17.093 -0.0707 -0.0494  0.0624
 1464POPC   C4B17700  14.024  28.134  17.405 -0.0077 -0.0717  0.3686
 1465POPC   NC317701  10.389  22.221  15.468 -0.2915 -0.1268  0.0040
 1465POPC   PO417702  10.718  22.402  15.525 -0.2186 -0.0810 -0.0611
 1465POPC   GL117703  10.507  22.639  15.833 -0.3732 -0.2533  0.6840
 1465POPC   GL217704  10.423  22.434  15.934 -0.1976 -0.1066 -0.2199
 1465POPC   C1A17705  10.542  22.871  16.235  0.0784 -0.0397 -0.1636
 1465POPC   D2A17706  10.394  22.836  16.652  0.1407 -0.2345 -0.0272
 1465POPC   C3A17707  10.504  23.131  17.016 -0.2774  0.2001  0.0085
 1465POPC   C4A17708  10.414  23.540  17.251  0.1315 -0.1812 -0.2802
 1465POPC   C1B17709  10.145  22.571  16.247 -0.0531 -0.1447  0.0862
 1465POPC   C2B17710  10.059  22.498  16.686 -0.1604  0.0644  0.3282
 1465POPC   C3B17711   9.894  22.330  17.115  0.0806  0.2752 -0.0532
 1465POPC   C4B17712  10.066  22.179  17.527 -0.1182 -0.1985  0.5295
 1466POPC   NC317713   1.242  18.046  15.169  0.2695 -0.0872 -0.4385
 1466POPC   PO417714   1.502  17.795  15.080  0.1198  0.0396 -0.1354
 1466POPC   GL117715   1.706  17.955  15.391  0.0059  0.2605 -0.0069
 1466POPC   GL217716   1.583  17.941  15.676  0.1482 -0.1159  0.2998
 1466POPC   C1A17717   2.117  17.861  15.542  0.3612 -0.0413 -0.3621
 1466POPC   D2A17718   2.372  17.829  15.918  0.3968  0.2297  0.1658
 1466POPC   C3A17719   2.722  18.073  16.190 -0.0315  0.0843  0.0055
 1466POPC   C4A17720   3.101  18.331  16.062 -0.1553  0.0161 -0.2884
 1466POPC   C1B17721   1.883  17.991  16.022 -0.0901  0.2182 -0.0829
 1466POPC   C2B17722   2.198  18.114  16.361  0.0874  0.0465  0.1547
 1466POPC   C3B17723   2.397  18.426  16.659  0.2179 -0.0856 -0.1474
 1466POPC   C4B17724   2.483  18.719  17.014 -0.1513 -0.0118 -0.0769
 1467POPC   NC317725   7.162  29.073  14.585  0.0291  0.2924  0.0934
 1467POPC   PO417726   7.386  29.201  14.912  0.0620 -0.2842 -0.1653
 1467POPC   GL117727   7.342  29.246  15.402  0.1498 -0.2191 -0.3438
 1467POPC   GL217728   7.581  29.129  15.456  0.0507  0.1529 -0.0828
 1467POPC   C1A17729   7.008  29.181  15.714 -0.1896  0.1757 -0.0253
 1467POPC   D2A17730   7.051  29.202  16.195 -0.1335  0.0869 -0.0300
 1467POPC   C3A17731   7.438  29.129  16.449  0.1687 -0.4581 -0.0619
 1467POPC   C4A17732   7.782  29.392  16.648  0.0043 -0.0818  0.1328
 1467POPC   C1B17733   7.450  28.863  15.731 -0.0059  0.1872 -0.1331
 1467POPC   C2B17734   7.380  28.750  16.215  0.0080 -0.2138 -0.2858
 1467POPC   C3B17735   7.253  28.698  16.632 -0.0397 -0.0391 -0.0394
 1467POPC   C4B17736   7.207  28.579  17.075 -0.2034  0.2508  0.1561
 1468POPC   NC317737  12.011  25.018  15.212  0.0044 -0.0182 -0.0183
 1468POPC   PO417738  11.818  24.712  15.430  0.4253  0.2754 -0.0347
 1468POPC   GL117739  11.753  24.721  15.855 -0.0496 -0.1552  0.1727
 1468POPC   GL217740  11.992  24.505  15.854  0.2837  0.2524 -0.0156
 1468POPC   C1A17741  11.393  24.732  16.125  0.2179  0.2621 -0.2094
 1468POPC   D2A17742  11.188  24.640  16.594  0.0799  0.0148 -0.4628
 1468POPC   C3A17743  10.865  24.343  16.808  0.5131  0.0367 -0.0280
 1468POPC   C4A17744  10.608  23.953  17.069  0.0135  0.2388 -0.3458
 1468POPC   C1B17745  11.757  24.409  16.201 -0.0815 -0.0743 -0.1442
 1468POPC   C2B17746  11.631  24.325  16.619  0.0213  0.1190 -0.0839
 1468POPC   C3B17747  11.627  24.215  17.064  0.1839  0.1200  0.2607
 1468POPC   C4B17748  11.497  24.159  17.518 -0.1765 -0.0581  0.1859
 1469POPC   NC317749   9.551  16.966  14.982  0.1883  0.0140 -0.3039
 1469POPC   PO417750   9.828  16.949  15.249  0.1784 -0.0514 -0.3735
 1469POPC   GL117751   9.813  17.003  15.668 -0.3106  0.1453  0.2028
 1469POPC   GL217752   9.715  17.257  15.617  0.7541 -0.1297 -0.1124
 1469POPC   C1A17753  10.152  16.842  15.990  0.3308  0.0665 -0.0273
 1469POPC   D2A17754  10.228  16.958  16.449 -0.1350  0.0913 -0.0308
 1469POPC   C3A17755  10.671  16.814  16.596  0.0710  0.1219 -0.0730
 1469POPC   C4A17756  11.005  16.512  16.513 -0.1223  0.1236 -0.0205
 1469POPC   C1B17757   9.795  17.263  16.065  0.1019 -0.0656  0.2294
 1469POPC   C2B17758   9.746  17.323  16.531  0.3048  0.3245  0.0883
 1469POPC   C3B17759   9.691  17.547  16.891  0.0795  0.0582  0.1697
 1469POPC   C4B17760   9.406  17.554  17.239 -0.2944 -0.2808 -0.0655
 1470POPC   NC317761  12.456  18.898  14.742 -0.0353 -0.0206 -0.2003
 1470POPC   PO417762  12.137  19.043  14.884  0.0917  0.0102  0.0337
 1470POPC   GL117763  12.044  19.142  15.341 -0.0957  0.3780 -0.1462
 1470POPC   GL217764  12.271  19.285  15.335  0.1859 -0.0835 -0.0822
 1470POPC   C1A17765  11.857  19.153  15.760  0.2702  0.0324  0.0412
 1470POPC   D2A17766  11.739  19.284  16.194 -0.0481  0.2797 -0.2026
 1470POPC   C3A17767  12.118  19.248  16.549 -0.1112 -0.0859  0.0034
 1470POPC   C4A17768  12.508  19.054  16.491  0.1014  0.0892 -0.1480
 1470POPC   C1B17769  12.449  19.019  15.676  0.3346 -0.1753 -0.1113
 1470POPC   C2B17770  12.466  18.728  16.072 -0.1493 -0.2989  0.2913
 1470POPC   C3B17771  12.585  18.568  16.484  0.1237 -0.0268 -0.1469
 1470POPC   C4B17772  12.719  18.651  16.916  0.1060 -0.0736 -0.0333
 1471POPC   NC317773  10.977  27.692  15.116 -0.0673  0.1742 -0.3232
 1471POPC   PO417774  10.826  27.952  15.372 -0.0073 -0.2190  0.0014
 1471POPC   GL117775  10.448  27.882  15.463 -0.2302 -0.2368 -0.0903
 1471POPC   GL217776  10.448  27.859  15.744 -0.0359  0.4378  0.4128
 1471POPC   C1A17777  10.132  27.520  15.522 -0.1397 -0.0685 -0.1687
 1471POPC   D2A17778   9.698  27.647  15.725 -0.1820  0.2512 -0.0676
 1471POPC   C3A17779   9.570  27.853  16.111 -0.2396  0.1021  0.1519
 1471POPC   C4A17780   9.366  27.649  16.487  0.1569 -0.1380 -0.2744
 1471POPC   C1B17781  10.526  28.016  16.107  0.3384  0.0301  0.1362
 1471POPC   C2B17782  10.426  28.090  16.570 -0.1537 -0.0889  0.2817
 1471POPC   C3B17783  10.286  27.997  16.979  0.1456 -0.0264  0.1732
 1471POPC   C4B17784  10.209  28.247  17.387 -0.0332 -0.0458  0.0563
 1472POPC   NC317785   0.397   3.113  15.247  0.1042  0.0837  0.0335
 1472POPC   PO417786   0.069   3.188  15.374  0.2869  0.3915 -0.0307
 1472POPC   GL117787   0.081   3.225  15.771 -0.2096  0.1233 -0.2165
 1472POPC   GL217788   0.291   3.399  15.736 -0.3046  0.1676 -0.1654
 1472POPC   C1A17789   0.074   3.170  16.251 -0.3858  0.0863 -0.2023
 1472POPC   D2A17790  -0.271   2.919  16.477  0.0036 -0.1550  0.1068
 1472POPC   C3A17791  -0.283   2.841  16.902 -0.2195  0.1397 -0.1155
 1472POPC   C4A17792  -0.361   2.824  17.356  0.0651  0.2066  0.3205
 1472POPC   C1B17793   0.332   3.576  16.155  0.0866  0.0808 -0.0287
 1472POPC   C2B17794   0.528   3.584  16.577  0.1889 -0.1765 -0.1639
 1472POPC   C3B17795   0.582   3.587  17.009 -0.0033  0.2862  0.1993
 1472POPC   C4B17796   0.372   3.807  17.380  0.1141 -0.0010 -0.2231
 1473POPC   NC317797   6.120  27.932  15.022  0.1806 -0.1931  0.1256
 1473POPC   PO417798   6.164  27.573  15.170  0.2634 -0.2946  0.1334
 1473POPC   GL117799   6.170  27.622  15.499 -0.2092 -0.1902 -0.1008
 1473POPC   GL217800   6.379  27.526  15.609  0.0015 -0.0608  0.2299
 1473POPC   C1A17801   6.296  27.965  15.833 -0.1232  0.0477  0.1071
 1473POPC   D2A17802   6.509  28.197  16.170 -0.0813 -0.3147  0.2044
 1473POPC   C3A17803   6.619  28.042  16.577 -0.0135 -0.1412 -0.2634
 1473POPC   C4A17804   6.584  27.951  17.019 -0.1045 -0.0569 -0.2992
 1473POPC   C1B17805   6.126  27.443  15.948  0.3110  0.1814 -0.2299
 1473POPC   C2B17806   5.923  27.756  16.125 -0.3042 -0.2018 -0.0447
 1473POPC   C3B17807   5.560  28.013  16.279  0.2992 -0.0751  0.3623
 1473POPC   C4B17808   5.237  28.348  16.381 -0.0845 -0.0733 -0.0150
 1474POPC   NC317809   0.246  31.601  14.665 -0.2392 -0.1615  0.2134
 1474POPC   PO417810   0.080  31.817  14.957 -0.1740  0.3022  0.3209
 1474POPC   GL117811   0.023  32.043  15.368  0.2835  0.3120 -0.1208
 1474POPC   GL217812  -0.242  31.952  15.395  0.3817  0.0024  0.1373
 1474POPC   C1A17813   0.062  31.845  15.837 -0.2059  0.3480  0.2508
 1474POPC   D2A17814  -0.001  31.740  16.309  0.2279 -0.0682  0.1786
 1474POPC   C3A17815  -0.083  31.559  16.720  0.2104  0.1942 -0.2506
 1474POPC   C4A17816  -0.411  31.555  17.058  0.0904 -0.1614 -0.1787
 1474POPC   C1B17817  -0.243  32.237  15.769  0.1579  0.2799  0.1029
 1474POPC   C2B17818  -0.181  32.166  16.213  0.1321 -0.2620 -0.2159
 1474POPC   C3B17819  -0.087  32.118  16.612 -0.1869  0.0303 -0.2258
 1474POPC   C4B17820  -0.121  32.073  17.051 -0.2301 -0.1363 -0.1781
 1475POPC   NC317821   2.170   0.594  14.669  0.0469 -0.1221 -0.0278
 1475POPC   PO417822   2.063   0.630  15.047 -0.2360 -0.2009 -0.0323
 1475POPC   GL117823   2.231   0.423  15.371  0.2364 -0.2043 -0.3502
 1475POPC   GL217824   2.463   0.464  15.479 -0.2767 -0.2105 -0.0299
 1475POPC   C1A17825   2.089   0.430  15.789  0.0787  0.0849  0.1434
 1475POPC   D2A17826   2.357   0.373  16.126 -0.0503  0.1304 -0.0170
 1475POPC   C3A17827   2.431   0.364  16.537  0.1515 -0.2764  0.0938
 1475POPC   C4A17828   2.498   0.617  16.939  0.0296  0.0562 -0.0540
 1475POPC   C1B17829   2.732   0.172  15.756 -0.0732  0.0289  0.0010
 1475POPC   C2B17830   2.824   0.114  16.215 -0.3934 -0.0312 -0.0193
 1475POPC   C3B17831   3.201  -0.025  16.479 -0.0005 -0.2135  0.2404
 1475POPC   C4B17832   3.574  -0.216  16.652  0.2006  0.4089  0.1994
 1476POPC   NC317833   2.127  19.477  14.918 -0.1025  0.0369 -0.0073
 1476POPC   PO417834   2.009  19.821  15.043  0.1219  0.0891 -0.1011
 1476POPC   GL117835   2.040  19.612  15.371  0.0843 -0.3358  0.3260
 1476POPC   GL217836   2.216  19.749  15.505  0.0789 -0.0027  0.0420
 1476POPC   C1A17837   1.759  19.460  15.699  0.1642  0.1998 -0.1475
 1476POPC   D2A17838   1.741  19.521  16.154 -0.0371 -0.2602  0.0367
 1476POPC   C3A17839   1.832  19.292  16.561 -0.1133  0.1657 -0.1376
 1476POPC   C4A17840   1.816  19.268  17.030  0.0448 -0.2450  0.1424
 1476POPC   C1B17841   2.290  19.560  15.909  0.2173  0.2054  0.0565
 1476POPC   C2B17842   2.379  19.344  16.303 -0.0632  0.1051 -0.1580
 1476POPC   C3B17843   2.642  19.077  16.566  0.0958 -0.0243  0.3778
 1476POPC   C4B17844   2.999  18.866  16.848  0.0654  0.0263 -0.0620
 1477POPC   NC317845   8.095  16.996  14.801 -0.2493  0.0841  0.2868
 1477POPC   PO417846   8.191  17.331  15.022  0.2889  0.0758  0.0553
 1477POPC   GL117847   8.165  17.147  15.310  0.3338  0.1124 -0.1381
 1477POPC   GL217848   8.013  16.893  15.430  0.1243 -0.2339 -0.3332
 1477POPC   C1A17849   8.112  17.250  15.769  0.3167 -0.0664  0.5634
 1477POPC   D2A17850   8.283  17.635  15.956 -0.2586  0.0144 -0.2474
 1477POPC   C3A17851   8.156  17.841  16.353  0.2405  0.1198 -0.2733
 1477POPC   C4A17852   8.240  17.946  16.802  0.3918 -0.1138 -0.2336
 1477POPC   C1B17853   7.529  16.963  15.545 -0.0549  0.1698  0.1808
 1477POPC   C2B17854   7.292  17.208  15.797  0.0700  0.0224 -0.0838
 1477POPC   C3B17855   7.201  17.297  16.289 -0.0574  0.1222 -0.0927
 1477POPC   C4B17856   7.196  17.267  16.772  0.1850 -0.0858  0.2085
 1478POPC   NC317857   1.048   7.753  15.017 -0.2936 -0.2329  0.0203
 1478POPC   PO417858   1.162   7.584  15.315  0.1537 -0.2470  0.0495
 1478POPC   GL117859   1.134   7.916  15.518 -0.1971 -0.3806 -0.2443
 1478POPC   GL217860   0.934   8.142  15.424  0.3660 -0.1014  0.0196
 1478POPC   C1A17861   1.262   7.957  15.966 -0.1832  0.5701  0.0194
 1478POPC   D2A17862   1.212   7.836  16.382 -0.1154 -0.2399 -0.1150
 1478POPC   C3A17863   1.286   7.951  16.818  0.3486 -0.3063  0.0549
 1478POPC   C4A17864   1.594   8.129  17.129 -0.0604 -0.0032 -0.1088
 1478POPC   C1B17865   0.884   8.328  15.836 -0.0565 -0.0988  0.3320
 1478POPC   C2B17866   0.794   8.155  16.225  0.0649  0.1747 -0.0082
 1478POPC   C3B17867   0.809   8.172  16.653 -0.2708 -0.2811 -0.2377
 1478POPC   C4B17868   0.870   8.190  17.095 -0.0476 -0.4367 -0.0156
 1479POPC   NC317869  10.322  10.528  15.525  0.2195 -0.0517 -0.0649
 1479POPC   PO417870  10.301  10.378  15.890  0.2869 -0.1154 -0.1253
 1479POPC   GL117871  10.178  10.594  16.223 -0.3232 -0.1317  0.2798
 1479POPC   GL217872  10.408  10.435  16.368 -0.0574  0.1985  0.0572
 1479POPC   C1A17873   9.978  10.583  16.663  0.1573 -0.0459  0.4082
 1479POPC   D2A17874   9.772  10.567  17.052  0.1070 -0.4364 -0.0005
 1479POPC   C3A17875   9.396  10.422  17.326  0.0247 -0.2374  0.1042
 1479POPC   C4A17876   9.251  10.223  17.776  0.0554 -0.0055  0.0111
 1479POPC   C1B17877  10.165  10.172  16.532  0.2379  0.1866 -0.3967
 1479POPC   C2B17878   9.846  10.076  16.922  0.1515  0.2130  0.3374
 1479POPC   C3B17879   9.563   9.940  17.258 -0.1127  0.0094  0.0661
 1479POPC   C4B17880   9.150   9.947  17.393  0.2421  0.0039  0.0061
 1480POPC   NC317881   1.851  22.876  15.424 -0.1260 -0.3664  0.2835
 1480POPC   PO417882   1.854  22.496  15.292  0.0202  0.0588 -0.0503
 1480POPC   GL117883   1.471  22.494  15.576  0.0669 -0.2272 -0.2438
 1480POPC   GL217884   1.701  22.507  15.744  0.3107 -0.2381 -0.0929
 1480POPC   C1A17885   1.103  22.492  15.851 -0.2121 -0.3183  0.1478
 1480POPC   D2A17886   0.921  22.613  16.237 -0.1510 -0.3250  0.1099
 1480POPC   C3A17887   1.021  22.906  16.609  0.1812 -0.0196 -0.2743
 1480POPC   C4A17888   0.901  22.975  17.063  0.1430  0.1546 -0.3119
 1480POPC   C1B17889   1.450  22.535  16.184 -0.0892  0.1367 -0.0561
 1480POPC   C2B17890   1.303  22.492  16.594 -0.0725  0.3209 -0.0141
 1480POPC   C3B17891   1.182  22.102  16.871 -0.0632  0.0481 -0.3890
 1480POPC   C4B17892   1.094  21.608  16.826 -0.0637 -0.1672 -0.1894
 1481POPC   NC317893   2.626  26.053  14.931  0.1135  0.1561 -0.0309
 1481POPC   PO417894   2.690  25.688  15.068  0.0803 -0.1184  0.2421
 1481POPC   GL117895   2.314  25.717  15.230  0.2414  0.2559 -0.0969
 1481POPC   GL217896   2.331  25.818  15.459  0.1059 -0.3033 -0.2045
 1481POPC   C1A17897   2.170  25.357  15.487 -0.0113  0.1294  0.2988
 1481POPC   D2A17898   1.895  25.276  15.843  0.1943  0.1158 -0.0776
 1481POPC   C3A17899   1.766  25.076  16.231  0.1276  0.2642 -0.0091
 1481POPC   C4A17900   1.702  25.187  16.703  0.0860  0.2364  0.4352
 1481POPC   C1B17901   2.428  25.506  15.866  0.2037 -0.0473  0.1133
 1481POPC   C2B17902   2.410  25.210  16.234 -0.2855  0.0419  0.1210
 1481POPC   C3B17903   2.407  25.243  16.674  0.3736  0.0144  0.1661
 1481POPC   C4B17904   2.109  25.334  17.074 -0.4655  0.0509 -0.0837
 1482POPC   NC317905   3.587  30.580  14.885  0.1652 -0.1577  0.2743
 1482POPC   PO417906   3.910  30.507  14.672  0.0809 -0.2051 -0.1391
 1482POPC   GL117907   4.117  30.744  14.994 -0.0247 -0.0800  0.1786
 1482POPC   GL217908   3.961  30.751  15.139  0.0062  0.1269 -0.0136
 1482POPC   C1A17909   4.310  30.981  15.326  0.4057  0.1234 -0.0588
 1482POPC   D2A17910   4.467  31.328  15.576 -0.3734 -0.3386  0.2310
 1482POPC   C3A17911   4.157  31.621  15.799 -0.0168  0.1914 -0.0499
 1482POPC   C4A17912   4.118  32.009  16.053  0.0197  0.1523  0.0959
 1482POPC   C1B17913   3.894  30.804  15.583  0.2491  0.2951  0.2270
 1482POPC   C2B17914   4.027  31.035  15.922 -0.2338 -0.0516  0.1549
 1482POPC   C3B17915   4.322  31.149  16.290 -0.0086 -0.0147  0.2194
 1482POPC   C4B17916   4.359  31.125  16.685  0.1829  0.1677 -0.2167
 1483POPC   NC317917  12.438   1.482  15.218  0.5602  0.2557 -0.1157
 1483POPC   PO417918  12.225   1.865  15.335  0.1554  0.0014 -0.0773
 1483POPC   GL117919  12.363   1.696  15.696  0.2330 -0.3204 -0.1799
 1483POPC   GL217920  12.655   1.614  15.864  0.1424  0.0513  0.2223
 1483POPC   C1A17921  12.124   1.693  16.075  0.2183 -0.0051 -0.0757
 1483POPC   D2A17922  12.016   1.563  16.465 -0.2042  0.1554  0.2408
 1483POPC   C3A17923  12.259   1.720  16.818  0.2703  0.2421 -0.2478
 1483POPC   C4A17924  12.450   1.576  17.202  0.0464  0.2028  0.1211
 1483POPC   C1B17925  12.998   1.664  16.210  0.0486 -0.1340  0.1489
 1483POPC   C2B17926  13.163   1.464  16.637  0.0847  0.1025  0.1855
 1483POPC   C3B17927  12.956   1.395  17.076  0.1394 -0.1157 -0.1196
 1483POPC   C4B17928  12.814   1.008  17.215 -0.1887 -0.1136 -0.1892
 1484POPC   NC317929  12.265   6.017  14.952  0.3231  0.2408 -0.0686
 1484POPC   PO417930  11.898   6.011  14.954 -0.3485 -0.2739 -0.0204
 1484POPC   GL117931  12.086   5.985  15.394  0.2861 -0.0619  0.4834
 1484POPC   GL217932  12.387   6.070  15.446 -0.1015 -0.1849 -0.0797
 1484POPC   C1A17933  12.103   5.614  15.693 -0.2450 -0.1103 -0.1019
 1484POPC   D2A17934  11.780   5.281  15.747  0.0841 -0.0735  0.0352
 1484POPC   C3A17935  11.406   5.485  15.948 -0.0218  0.1487 -0.2153
 1484POPC   C4A17936  11.221   5.926  15.871 -0.2439  0.0185 -0.0465
 1484POPC   C1B17937  12.655   5.898  15.782 -0.4587 -0.0124 -0.1123
 1484POPC   C2B17938  12.722   6.043  16.273  0.0817  0.0849  0.3069
 1484POPC   C3B17939  12.775   6.161  16.680 -0.0374 -0.1561 -0.1161
 1484POPC   C4B17940  12.959   6.187  17.100 -0.0594 -0.1621  0.0035
 1485POPC   NC317941   2.959   0.235  14.716 -0.2964  0.3120  0.1643
 1485POPC   PO417942   3.042   0.619  14.741  0.3583 -0.0876  0.0573
 1485POPC   GL117943   3.323   0.384  14.929 -0.0553  0.1494  0.1408
 1485POPC   GL217944   3.171   0.302  15.222  0.3013  0.1591  0.0957
 1485POPC   C1A17945   3.274  -0.071  14.860  0.2929 -0.3223  0.0254
 1485POPC   D2A17946   3.202  -0.399  15.089  0.2902 -0.0468 -0.0479
 1485POPC   C3A17947   3.495  -0.373  15.424 -0.5320  0.2273  0.1344
 1485POPC   C4A17948   3.938  -0.436  15.454 -0.0009 -0.2245  0.0966
 1485POPC   C1B17949   3.250   0.057  15.552  0.0374  0.2228 -0.0082
 1485POPC   C2B17950   3.620  -0.024  15.826 -0.0867 -0.3039  0.2046
 1485POPC   C3B17951   3.714  -0.353  16.150  0.1360 -0.0644 -0.1761
 1485POPC   C4B17952   3.852  -0.633  16.480 -0.0997  0.2703  0.1997
 1486POPC   NC317953   3.646   4.842  14.496  0.1749 -0.3456 -0.0169
 1486POPC   PO417954   3.375   4.840  14.788 -0.0474  0.1644 -0.1526
 1486POPC   GL117955   3.496   4.707  15.175 -0.3843  0.2683 -0.2514
 1486POPC   GL217956   3.438   4.956  15.283  0.1070  0.2236 -0.1089
 1486POPC   C1A17957   3.652   4.555  15.578  0.3071 -0.0450 -0.0367
 1486POPC   D2A17958   3.437   4.163  15.681  0.2597  0.2050  0.0327
 1486POPC   C3A17959   3.158   4.198  16.130 -0.0637 -0.0646  0.3738
 1486POPC   C4A17960   2.718   4.400  16.259  0.1622 -0.0106 -0.0023
 1486POPC   C1B17961   3.588   4.989  15.748  0.1770 -0.2531 -0.4253
 1486POPC   C2B17962   3.818   4.698  16.046  0.2329 -0.0691  0.2144
 1486POPC   C3B17963   4.138   4.570  16.349 -0.0190  0.1325  0.0122
 1486POPC   C4B17964   4.411   4.493  16.686  0.2794 -0.1048 -0.0181
 1487POPC   NC317965  11.671   0.194  15.094 -0.3019 -0.0700 -0.2181
 1487POPC   PO417966  11.944   0.436  14.921  0.0813 -0.0165 -0.4160
 1487POPC   GL117967  12.192   0.402  15.242  0.2161  0.2630 -0.0525
 1487POPC   GL217968  12.315   0.129  15.381 -0.0604  0.1917 -0.2294
 1487POPC   C1A17969  11.978   0.378  15.664 -0.1049 -0.1879  0.2609
 1487POPC   D2A17970  11.751   0.120  15.982  0.0468 -0.0964  0.1190
 1487POPC   C3A17971  11.848   0.233  16.376  0.0010  0.0846 -0.2810
 1487POPC   C4A17972  11.950   0.448  16.707  0.0926 -0.2732 -0.1236
 1487POPC   C1B17973  12.487   0.246  15.766 -0.0030 -0.0117 -0.5103
 1487POPC   C2B17974  12.574   0.187  16.217 -0.0375 -0.1421 -0.1379
 1487POPC   C3B17975  12.424   0.459  16.564 -0.1328 -0.0192  0.0730
 1487POPC   C4B17976  12.631   0.797  16.762  0.0588 -0.2455  0.1227
 1488POPC   NC317977   7.101   4.691  14.475  0.0725 -0.0874  0.0755
 1488POPC   PO417978   7.020   4.799  14.825  0.0823 -0.0143 -0.0009
 1488POPC   GL117979   6.872   4.535  15.118  0.0346  0.1428 -0.5891
 1488POPC   GL217980   6.613   4.619  15.201 -0.1117 -0.0258 -0.0281
 1488POPC   C1A17981   6.892   4.500  15.574  0.1266 -0.1006 -0.1317
 1488POPC   D2A17982   6.999   4.730  15.964 -0.0942 -0.0841 -0.1106
 1488POPC   C3A17983   7.057   5.174  16.102  0.2414  0.0711 -0.0379
 1488POPC   C4A17984   7.013   5.249  16.513  0.4247 -0.1684 -0.0197
 1488POPC   C1B17985   6.421   4.780  15.631  0.2939  0.3361 -0.0174
 1488POPC   C2B17986   6.408   4.657  16.066 -0.0320  0.1143 -0.0797
 1488POPC   C3B17987   6.712   4.868  16.327  0.2149  0.0874  0.1739
 1488POPC   C4B17988   6.721   4.894  16.792 -0.0780 -0.0516  0.0225
 1489POPC   NC317989   7.896  19.255  15.245  0.1276  0.1744 -0.0426
 1489POPC   PO417990   8.113  18.902  15.160 -0.0207 -0.0885 -0.2849
 1489POPC   GL117991   7.943  18.885  15.464 -0.0046 -0.0430 -0.0363
 1489POPC   GL217992   7.923  18.715  15.698  0.1991 -0.2696  0.1036
 1489POPC   C1A17993   7.598  19.052  15.716  0.1270 -0.3257  0.0100
 1489POPC   D2A17994   7.504  19.455  15.885  0.0600 -0.0803 -0.2630
 1489POPC   C3A17995   7.720  19.741  16.206 -0.0124 -0.1987 -0.0119
 1489POPC   C4A17996   7.626  19.935  16.611  0.1027  0.1515 -0.1780
 1489POPC   C1B17997   7.789  18.692  16.172  0.3918  0.0250 -0.1025
 1489POPC   C2B17998   7.684  18.619  16.638  0.1494 -0.1904 -0.1352
 1489POPC   C3B17999   7.593  18.463  17.131  0.0327  0.0953 -0.0928
 1489POPC   C4B18000   7.695  18.376  17.535  0.2422  0.0865 -0.0373
 1490POPC   NC318001  11.885   6.508  14.893  0.0939 -0.2714  0.0961
 1490POPC   PO418002  11.513   6.347  14.914 -0.3092  0.1309  0.0181
 1490POPC   GL118003  11.631   6.251  15.348 -0.4723  0.0683  0.2695
 1490POPC   GL218004  11.538   6.266  15.611 -0.1902  0.1924 -0.0026
 1490POPC   C1A18005  11.654   5.834  15.573 -0.2819  0.1406  0.0491
 1490POPC   D2A18006  11.798   5.773  16.060  0.2567  0.2855  0.0457
 1490POPC   C3A18007  11.474   5.801  16.396  0.0273 -0.0100  0.0010
 1490POPC   C4A18008  11.398   5.674  16.828 -0.1015 -0.2114 -0.3126
 1490POPC   C1B18009  11.648   6.202  16.023 -0.2330  0.0912 -0.1697
 1490POPC   C2B18010  11.444   6.322  16.464  0.0987  0.2799 -0.0910
 1490POPC   C3B18011  11.461   6.149  16.885  0.0842 -0.2102 -0.3098
 1490POPC   C4B18012  11.615   6.098  17.352 -0.1602 -0.0166 -0.0563
 1491POPC   NC318013  15.285  27.870  15.369  0.1206  0.3776  0.1502
 1491POPC   PO418014  14.990  27.650  15.528  0.0286  0.0135 -0.0750
 1491POPC   GL118015  15.066  27.593  15.954  0.0587 -0.0312 -0.0382
 1491POPC   GL218016  15.017  27.910  15.984  0.1725 -0.2605  0.0170
 1491POPC   C1A18017  15.425  27.672  16.180 -0.0051  0.0188 -0.0699
 1491POPC   D2A18018  15.511  27.676  16.650 -0.2423 -0.1807 -0.1466
 1491POPC   C3A18019  15.336  27.363  16.986  0.0334 -0.3711  0.0020
 1491POPC   C4A18020  15.288  27.098  17.285 -0.2042 -0.1413 -0.1433
 1491POPC   C1B18021  15.011  27.832  16.415 -0.3078  0.0210  0.1334
 1491POPC   C2B18022  14.983  27.731  16.844 -0.0727 -0.0003 -0.2170
 1491POPC   C3B18023  15.182  27.933  17.255 -0.2440 -0.3301 -0.0420
 1491POPC   C4B18024  15.241  28.291  17.379  0.2152 -0.3204 -0.1598
 1492POPC   NC318025   5.309  27.166  15.215 -0.1597 -0.1826  0.0587
 1492POPC   PO418026   5.527  26.870  15.326  0.1832 -0.1517  0.1538
 1492POPC   GL118027   5.609  26.926  15.650 -0.0657 -0.0988  0.2498
 1492POPC   GL218028   5.913  26.792  15.763 -0.0518 -0.2910 -0.1765
 1492POPC   C1A18029   5.635  27.047  16.097  0.1294  0.0319  0.1062
 1492POPC   D2A18030   5.861  27.177  16.451  0.1197 -0.0811 -0.0203
 1492POPC   C3A18031   6.118  27.285  16.762 -0.0020 -0.0684 -0.1539
 1492POPC   C4A18032   6.373  27.391  17.161 -0.4822  0.0963 -0.0226
 1492POPC   C1B18033   6.186  26.981  16.085 -0.2032 -0.0167  0.2082
 1492POPC   C2B18034   6.422  27.025  16.458 -0.1296  0.1039 -0.2015
 1492POPC   C3B18035   6.650  27.027  16.887 -0.1937 -0.3471 -0.1329
 1492POPC   C4B18036   6.903  27.085  17.275  0.0902 -0.0140 -0.0980
 1493POPC   NC318037  10.859  14.083  14.900 -0.1909  0.0731 -0.5447
 1493POPC   PO418038  11.043  13.751  14.869  0.3171  0.0023  0.1052
 1493POPC   GL118039  10.889  13.794  15.264 -0.0966 -0.4289 -0.1555
 1493POPC   GL218040  11.002  13.668  15.457  0.2870  0.0560 -0.1206
 1493POPC   C1A18041  10.890  14.152  15.564  0.2657  0.2241  0.0283
 1493POPC   D2A18042  10.842  14.572  15.795  0.1066  0.0315 -0.0090
 1493POPC   C3A18043  11.191  14.734  16.141 -0.0665  0.0810  0.2169
 1493POPC   C4A18044  11.441  14.887  16.472 -0.0885  0.0854 -0.0928
 1493POPC   C1B18045  11.003  13.813  15.898 -0.4021  0.0207  0.0924
 1493POPC   C2B18046  10.736  13.817  16.273 -0.1259 -0.0344 -0.1003
 1493POPC   C3B18047  10.570  13.696  16.681  0.1390  0.1521  0.0515
 1493POPC   C4B18048  10.466  13.443  17.038  0.0613 -0.2391  0.2038
 1494POPC   NC318049   4.046   2.797  15.209  0.1110 -0.0504  0.5175
 1494POPC   PO418050   4.027   3.167  15.400 -0.2059  0.0515 -0.0496
 1494POPC   GL118051   4.092   3.332  15.737 -0.0243 -0.2436 -0.0340
 1494POPC   GL218052   4.329   3.463  15.705  0.1425 -0.1881  0.0000
 1494POPC   C1A18053   3.876   3.657  16.010  0.0441 -0.1003 -0.0828
 1494POPC   D2A18054   3.473   3.871  16.180  0.0185 -0.0891  0.1600
 1494POPC   C3A18055   3.418   4.015  16.533 -0.2637 -0.1024 -0.0727
 1494POPC   C4A18056   3.440   4.269  16.876 -0.1679  0.0779 -0.2120
 1494POPC   C1B18057   4.311   3.515  16.172 -0.2129 -0.0321  0.0562
 1494POPC   C2B18058   4.294   3.606  16.568 -0.2046 -0.1612  0.1034
 1494POPC   C3B18059   4.024   3.549  16.930  0.2236 -0.0233 -0.1360
 1494POPC   C4B18060   3.732   3.857  17.088 -0.0434 -0.0411 -0.0577
 1495POPC   NC318061   3.112  21.945  14.902 -0.2256 -0.1554 -0.3468
 1495POPC   PO418062   3.394  22.003  15.185 -0.2700  0.4136  0.2994
 1495POPC   GL118063   3.583  21.923  15.447  0.1389  0.0049  0.1354
 1495POPC   GL218064   3.816  22.132  15.494  0.0892 -0.1319 -0.0927
 1495POPC   C1A18065   3.465  21.764  15.846 -0.0289 -0.0963  0.0579
 1495POPC   D2A18066   3.444  21.732  16.219 -0.1509  0.0525  0.1437
 1495POPC   C3A18067   3.117  21.779  16.511  0.1259  0.4827  0.1399
 1495POPC   C4A18068   2.725  22.058  16.550 -0.1502  0.1581  0.3025
 1495POPC   C1B18069   3.590  22.445  15.825 -0.0786 -0.0849  0.2455
 1495POPC   C2B18070   3.659  22.620  16.224  0.2622  0.0905  0.0019
 1495POPC   C3B18071   3.764  22.704  16.689  0.2155  0.1157 -0.1022
 1495POPC   C4B18072   3.762  22.718  17.102 -0.1362 -0.0710  0.0619
 1496POPC   NC318073   3.269  13.486  15.121 -0.1982 -0.1678  0.1003
 1496POPC   PO418074   3.008  13.760  15.212  0.1117 -0.0632  0.0220
 1496POPC   GL118075   3.019  13.706  15.605  0.3693  0.1869 -0.1320
 1496POPC   GL218076   3.293  13.567  15.634  0.2087 -0.0690  0.3181
 1496POPC   C1A18077   2.778  13.449  15.959 -0.4237  0.1222  0.0645
 1496POPC   D2A18078   2.539  13.185  16.217  0.2340 -0.2036  0.1171
 1496POPC   C3A18079   2.487  12.841  16.585 -0.1648 -0.0553 -0.0881
 1496POPC   C4A18080   2.073  12.644  16.624  0.0204 -0.1952  0.1197
 1496POPC   C1B18081   3.389  13.781  15.973  0.1346 -0.0225 -0.0475
 1496POPC   C2B18082   3.216  14.082  16.296  0.0781  0.1072 -0.0205
 1496POPC   C3B18083   2.796  14.143  16.506 -0.2072  0.0966 -0.2526
 1496POPC   C4B18084   2.600  14.155  16.949  0.2094 -0.2207 -0.3590
 1497POPC   NC318085   8.724  18.020  15.024 -0.0526  0.1760 -0.2276
 1497POPC   PO418086   8.652  18.255  15.360 -0.0177 -0.0909  0.2028
 1497POPC   GL118087   8.694  18.487  15.759  0.1206 -0.1904  0.0360
 1497POPC   GL218088   8.918  18.548  15.937  0.4142 -0.1710 -0.0526
 1497POPC   C1A18089   8.519  18.497  16.232  0.0672 -0.1971 -0.0146
 1497POPC   D2A18090   8.623  18.151  16.514  0.1026  0.0232 -0.4682
 1497POPC   C3A18091   8.574  18.231  17.000  0.1064 -0.1710  0.2471
 1497POPC   C4A18092   8.738  18.333  17.429 -0.0746  0.0967  0.1151
 1497POPC   C1B18093   9.003  18.506  16.393  0.0917  0.0502  0.2459
 1497POPC   C2B18094   9.074  18.390  16.799 -0.0192  0.1249  0.0144
 1497POPC   C3B18095   9.033  18.715  17.173  0.1703  0.1227 -0.2013
 1497POPC   C4B18096   8.833  18.804  17.586 -0.0109  0.2344  0.0007
 1498POPC   NC318097  10.917  11.864  15.075  0.1751 -0.3257 -0.3986
 1498POPC   PO418098  10.869  11.527  15.294 -0.1440 -0.0230 -0.0256
 1498POPC   GL118099  10.903  11.546  15.679 -0.4541 -0.2138  0.1602
 1498POPC   GL218100  10.618  11.473  15.741  0.1198  0.1031  0.0769
 1498POPC   C1A18101  10.902  11.895  15.926  0.1618  0.0322  0.0126
 1498POPC   D2A18102  10.705  12.046  16.345  0.0500  0.0208 -0.1983
 1498POPC   C3A18103  10.899  12.316  16.614 -0.0503 -0.1891 -0.1425
 1498POPC   C4A18104  11.275  12.141  16.808  0.4485  0.2959 -0.1559
 1498POPC   C1B18105  10.400  11.511  16.161  0.0634 -0.1820  0.2812
 1498POPC   C2B18106  10.457  11.678  16.593  0.0726  0.0014  0.3221
 1498POPC   C3B18107  10.500  12.032  16.836 -0.1961 -0.0318  0.1331
 1498POPC   C4B18108  10.267  12.308  17.074  0.5356 -0.0743 -0.0070
 1499POPC   NC318109   1.240  31.365  15.044  0.1451  0.0705  0.0757
 1499POPC   PO418110   0.982  31.379  15.297  0.2919 -0.0285 -0.1337
 1499POPC   GL118111   0.946  31.453  15.639  0.2097  0.0736 -0.3021
 1499POPC   GL218112   0.918  31.202  15.784  0.1540  0.1408  0.2690
 1499POPC   C1A18113   1.212  31.605  16.019 -0.0227 -0.1160 -0.0727
 1499POPC   D2A18114   1.435  31.631  16.419 -0.3911 -0.0300 -0.2358
 1499POPC   C3A18115   1.160  31.621  16.732 -0.2200  0.1490  0.0279
 1499POPC   C4A18116   0.865  31.515  17.100 -0.3380  0.0821 -0.4022
 1499POPC   C1B18117   0.800  31.312  16.197  0.1773 -0.2554 -0.3499
 1499POPC   C2B18118   0.985  31.136  16.611  0.0265  0.1313 -0.0350
 1499POPC   C3B18119   1.204  31.118  17.048  0.0172 -0.0083 -0.2836
 1499POPC   C4B18120   1.391  30.806  17.364 -0.0556 -0.1576  0.0241
 1500POPC   NC318121   5.171   7.656  14.582 -0.2350  0.0757 -0.0586
 1500POPC   PO418122   5.171   8.018  14.763 -0.2070  0.2489  0.1178
 1500POPC   GL118123   5.213   8.207  15.161 -0.1277  0.5113 -0.0303
 1500POPC   GL218124   5.135   8.402  15.073 -0.2963  0.2265 -0.2870
 1500POPC   C1A18125   5.549   8.143  15.492  0.1794 -0.1541 -0.1885
 1500POPC   D2A18126   5.935   8.404  15.588  0.2348 -0.0629  0.0745
 1500POPC   C3A18127   6.308   8.203  15.771  0.4316  0.0402  0.1952
 1500POPC   C4A18128   6.464   7.785  15.582  0.1917 -0.0823 -0.1513
 1500POPC   C1B18129   5.157   8.465  15.571  0.0296  0.0782  0.3008
 1500POPC   C2B18130   5.407   8.285  15.949 -0.1027 -0.3005  0.2542
 1500POPC   C3B18131   5.469   8.337  16.430 -0.0251 -0.0004  0.0950
 1500POPC   C4B18132   5.550   7.995  16.775 -0.0004 -0.0445 -0.1242
 1501POPC   NC318133   9.449   2.318  15.179 -0.3296 -0.1560  0.0167
 1501POPC   PO418134   9.820   2.397  15.121 -0.1361 -0.1681 -0.0891
 1501POPC   GL118135   9.904   2.264  15.457 -0.0026  0.3967  0.0934
 1501POPC   GL218136  10.059   2.415  15.594 -0.0479 -0.3089  0.0971
 1501POPC   C1A18137   9.882   2.063  15.879  0.2510  0.1030 -0.1051
 1501POPC   D2A18138   9.817   1.991  16.338 -0.1359  0.2524 -0.1126
 1501POPC   C3A18139   9.759   2.206  16.707 -0.1006  0.2053  0.1306
 1501POPC   C4A18140   9.429   2.337  17.115  0.0952 -0.3583  0.1480
 1501POPC   C1B18141   9.957   2.493  16.073  0.2770 -0.0940  0.0449
 1501POPC   C2B18142  10.079   2.676  16.514 -0.1167  0.4895 -0.0003
 1501POPC   C3B18143  10.106   2.999  16.925 -0.0327 -0.0792 -0.0702
 1501POPC   C4B18144   9.905   3.434  16.862 -0.0021 -0.2790 -0.3050
 1502POPC   NC318145   9.527  28.015  15.269 -0.0339 -0.1024 -0.0922
 1502POPC   PO418146   9.749  28.168  15.010 -0.1598  0.2064 -0.2154
 1502POPC   GL118147   9.848  28.283  15.467  0.1644 -0.3373 -0.1437
 1502POPC   GL218148   9.968  28.013  15.542 -0.0318  0.2133  0.2283
 1502POPC   C1A18149   9.517  28.190  15.785 -0.1054  0.3304  0.0410
 1502POPC   D2A18150   9.260  28.265  16.100  0.3861  0.1649  0.1330
 1502POPC   C3A18151   9.271  28.205  16.504 -0.2810 -0.0613  0.1898
 1502POPC   C4A18152   9.476  28.304  16.889 -0.0257  0.1216 -0.3458
 1502POPC   C1B18153  10.032  28.004  15.986 -0.2776 -0.0580  0.2742
 1502POPC   C2B18154  10.043  27.687  16.303  0.0297  0.0386  0.2777
 1502POPC   C3B18155  10.064  27.546  16.708  0.0092  0.1911  0.1435
 1502POPC   C4B18156  10.355  27.440  17.017  0.0373  0.2428  0.2432
 1503POPC   NC318157   2.889   6.522  14.945 -0.2304  0.1799  0.3152
 1503POPC   PO418158   3.152   6.255  15.118  0.2293 -0.1107  0.1116
 1503POPC   GL118159   3.206   5.904  15.437  0.0519 -0.2240 -0.3392
 1503POPC   GL218160   3.211   6.132  15.595  0.0613 -0.2968 -0.0401
 1503POPC   C1A18161   3.665   5.776  15.574 -0.1951 -0.4055 -0.2071
 1503POPC   D2A18162   3.870   5.875  15.956 -0.0660 -0.1728  0.0441
 1503POPC   C3A18163   4.007   6.286  16.197 -0.4677 -0.1031  0.0574
 1503POPC   C4A18164   4.300   6.401  16.454 -0.2384 -0.0656  0.4266
 1503POPC   C1B18165   3.378   5.882  15.937  0.1178  0.0946  0.1106
 1503POPC   C2B18166   3.317   5.707  16.346 -0.2595  0.1211 -0.0752
 1503POPC   C3B18167   3.266   5.978  16.781 -0.3096 -0.2448 -0.1769
 1503POPC   C4B18168   3.311   6.448  16.838  0.1121  0.0169  0.0339
 1504POPC   NC318169   6.315  24.936  15.449  0.1547 -0.2024  0.0757
 1504POPC   PO418170   5.993  24.734  15.503  0.4459 -0.2621  0.2035
 1504POPC   GL118171   5.891  24.425  15.709 -0.0169  0.1545  0.0919
 1504POPC   GL218172   5.638  24.399  15.622  0.5361  0.0881 -0.0357
 1504POPC   C1A18173   6.031  24.416  16.192  0.1237  0.1617 -0.1239
 1504POPC   D2A18174   6.288  24.289  16.545 -0.1260  0.0381  0.2789
 1504POPC   C3A18175   6.650  24.269  16.792  0.1348 -0.1182  0.1206
 1504POPC   C4A18176   7.082  24.152  16.723 -0.0432  0.0794 -0.4664
 1504POPC   C1B18177   5.417  24.466  16.041 -0.2710 -0.1692  0.2266
 1504POPC   C2B18178   5.133  24.544  16.474  0.0733 -0.2358  0.2417
 1504POPC   C3B18179   4.941  24.559  16.891 -0.0794  0.2752  0.0673
 1504POPC   C4B18180   4.946  24.718  17.338  0.3565 -0.0796 -0.1789
 1505POPC   NC318181   2.974  24.475  15.135  0.0494 -0.0293  0.2721
 1505POPC   PO418182   3.027  24.773  14.889  0.0307 -0.5466  0.1392
 1505POPC   GL118183   2.931  24.941  15.266 -0.0426 -0.2137  0.0393
 1505POPC   GL218184   3.196  25.018  15.392  0.1002 -0.0962  0.2440
 1505POPC   C1A18185   2.808  24.603  15.578 -0.2574  0.1532  0.0375
 1505POPC   D2A18186   2.784  24.255  15.889  0.2136 -0.4289 -0.1191
 1505POPC   C3A18187   3.017  24.443  16.243 -0.3217 -0.2068  0.1201
 1505POPC   C4A18188   3.462  24.323  16.422  0.0639 -0.1751 -0.2551
 1505POPC   C1B18189   3.419  25.288  15.721  0.1528 -0.1448 -0.0570
 1505POPC   C2B18190   3.421  25.615  16.104  0.0404  0.0145 -0.1853
 1505POPC   C3B18191   3.179  25.949  16.218 -0.0277 -0.1050 -0.2664
 1505POPC   C4B18192   3.067  26.112  16.692 -0.0796 -0.1200 -0.0842
 1506POPC   NC318193  11.123  29.494  15.203 -0.1210  0.1425 -0.3131
 1506POPC   PO418194  11.302  29.151  15.124  0.0641  0.1404 -0.0428
 1506POPC   GL118195  11.061  29.057  15.479  0.0152  0.1449  0.0104
 1506POPC   GL218196  10.791  29.163  15.348  0.3379  0.1057 -0.2005
 1506POPC   C1A18197  10.929  29.026  15.879  0.1725 -0.1130  0.2110
 1506POPC   D2A18198  10.644  28.929  16.243  0.0543 -0.0658 -0.0243
 1506POPC   C3A18199  10.331  29.093  16.567  0.1409 -0.0048 -0.1669
 1506POPC   C4A18200   9.970  29.082  16.875 -0.4805 -0.0572  0.2901
 1506POPC   C1B18201  10.480  29.114  15.684  0.0278 -0.0718 -0.1357
 1506POPC   C2B18202  10.197  29.070  16.035 -0.2774 -0.0031 -0.1075
 1506POPC   C3B18203   9.920  28.844  16.260 -0.3453  0.1030  0.0387
 1506POPC   C4B18204   9.671  28.669  16.641 -0.0837  0.0073  0.0304
 1507POPC   NC318205  13.259  22.006  14.863 -0.1133  0.2003  0.2416
 1507POPC   PO418206  13.321  22.172  15.191  0.0478 -0.2297 -0.0347
 1507POPC   GL118207  13.261  22.220  15.502 -0.2887  0.0192  0.1427
 1507POPC   GL218208  13.256  22.482  15.662  0.3160 -0.0357  0.2046
 1507POPC   C1A18209  13.495  22.126  15.914 -0.0241  0.1514  0.1277
 1507POPC   D2A18210  13.399  21.872  16.303  0.2005 -0.0756  0.0616
 1507POPC   C3A18211  13.523  21.820  16.733 -0.1434  0.0625  0.0204
 1507POPC   C4A18212  13.751  21.592  17.132 -0.2194 -0.1247  0.3587
 1507POPC   C1B18213  13.304  22.845  16.021 -0.0473  0.0553  0.0541
 1507POPC   C2B18214  13.050  23.145  16.262  0.1266  0.0073 -0.1453
 1507POPC   C3B18215  12.994  23.217  16.722  0.2231  0.3540 -0.1431
 1507POPC   C4B18216  13.090  22.959  17.109 -0.0590 -0.2780 -0.0580
 1508POPC   NC318217   8.921  17.134  15.104  0.1393  0.2133 -0.0014
 1508POPC   PO418218   8.639  17.405  15.190  0.1550 -0.0110 -0.1383
 1508POPC   GL118219   8.550  17.381  15.656  0.1779  0.0279 -0.0340
 1508POPC   GL218220   8.523  17.075  15.611  0.1213 -0.2859  0.1269
 1508POPC   C1A18221   8.483  17.227  16.119  0.1613  0.0706  0.1799
 1508POPC   D2A18222   8.151  17.311  16.369 -0.3102  0.3204 -0.1517
 1508POPC   C3A18223   8.110  17.463  16.797 -0.0993 -0.0406  0.0688
 1508POPC   C4A18224   8.164  17.689  17.199  0.1602  0.1073 -0.0675
 1508POPC   C1B18225   8.690  16.810  15.967  0.1399 -0.0234 -0.2718
 1508POPC   C2B18226   8.615  16.865  16.404 -0.0772 -0.2299 -0.0466
 1508POPC   C3B18227   8.714  16.706  16.871 -0.1750 -0.0735  0.5212
 1508POPC   C4B18228   8.852  16.424  17.204 -0.0221 -0.0536 -0.0531
 1509POPC   NC318229   9.278  29.057  15.055  0.2280  0.0062 -0.0097
 1509POPC   PO418230   9.464  29.385  15.152 -0.2313 -0.1792 -0.2323
 1509POPC   GL118231   9.611  29.584  15.484  0.0978  0.3632  0.1851
 1509POPC   GL218232   9.615  29.799  15.448 -0.2533 -0.0853 -0.0025
 1509POPC   C1A18233   9.430  29.557  15.905  0.2609 -0.0476  0.2053
 1509POPC   D2A18234   9.377  29.219  16.260 -0.1446 -0.0096  0.0556
 1509POPC   C3A18235   9.000  29.214  16.486  0.0788  0.3117  0.0226
 1509POPC   C4A18236   8.620  29.342  16.759  0.0749  0.2402  0.1000
 1509POPC   C1B18237   9.884  29.887  15.822 -0.0861 -0.2339  0.2060
 1509POPC   C2B18238   9.904  29.861  16.291 -0.1613  0.0087  0.1973
 1509POPC   C3B18239   9.842  30.099  16.648  0.2619 -0.0879  0.0380
 1509POPC   C4B18240   9.733  30.205  17.078  0.0558 -0.0530  0.1076
 1510POPC   NC318241  13.038  12.843  15.334  0.0835  0.0031 -0.0545
 1510POPC   PO418242  13.430  12.851  15.385  0.1582  0.0550  0.0167
 1510POPC   GL118243  13.649  12.780  15.745  0.0089 -0.0950 -0.2170
 1510POPC   GL218244  13.416  13.046  15.842 -0.0016 -0.0865 -0.2824
 1510POPC   C1A18245  13.875  12.722  16.163  0.0388 -0.3021 -0.0845
 1510POPC   D2A18246  14.013  12.572  16.571  0.1222 -0.1747  0.1513
 1510POPC   C3A18247  13.699  12.315  16.758  0.0912  0.1950  0.0888
 1510POPC   C4A18248  13.315  11.983  16.798  0.1159  0.1285  0.1841
 1510POPC   C1B18249  13.620  13.286  16.191  0.0385  0.0861 -0.2169
 1510POPC   C2B18250  13.906  13.113  16.479 -0.1303 -0.0648  0.1302
 1510POPC   C3B18251  13.887  12.997  16.926  0.1571  0.2552  0.0627
 1510POPC   C4B18252  13.927  12.834  17.400 -0.0541 -0.0330  0.0713
 1511POPC   NC318253   4.189  26.891  15.353  0.0286 -0.1649  0.0892
 1511POPC   PO418254   4.039  26.745  15.672  0.1164  0.1427  0.3444
 1511POPC   GL118255   3.804  26.579  15.921  0.1980  0.4548  0.1691
 1511POPC   GL218256   3.696  26.839  16.051 -0.2179 -0.0395  0.0297
 1511POPC   C1A18257   3.985  26.476  16.369  0.1347  0.3878 -0.0807
 1511POPC   D2A18258   4.203  26.383  16.843  0.0683 -0.0470  0.0189
 1511POPC   C3A18259   4.592  26.278  17.028 -0.1793  0.2766 -0.0098
 1511POPC   C4A18260   4.944  25.945  16.982  0.1601 -0.2149  0.1445
 1511POPC   C1B18261   3.482  26.939  16.467 -0.0466  0.1373 -0.1651
 1511POPC   C2B18262   3.299  26.985  16.927 -0.0239  0.1365 -0.1037
 1511POPC   C3B18263   2.899  26.832  17.191 -0.0442 -0.0625  0.0154
 1511POPC   C4B18264   2.686  26.754  17.562  0.0436 -0.0867 -0.1581
 1512POPC   NC318265   1.426  13.334  15.307 -0.3480  0.1926  0.0123
 1512POPC   PO418266   1.699  13.145  15.137  0.2457 -0.1528  0.1800
 1512POPC   GL118267   1.947  13.044  15.471 -0.1791 -0.0088 -0.0499
 1512POPC   GL218268   1.708  13.149  15.706 -0.1049 -0.3621  0.0309
 1512POPC   C1A18269   2.186  13.212  15.837  0.0545 -0.2442  0.0944
 1512POPC   D2A18270   2.060  13.011  16.268 -0.1267 -0.4135  0.1053
 1512POPC   C3A18271   2.222  13.241  16.623  0.1230 -0.0635 -0.0932
 1512POPC   C4A18272   2.426  13.228  17.046 -0.3059 -0.1151 -0.1334
 1512POPC   C1B18273   1.565  13.233  16.244  0.1319  0.4019  0.2257
 1512POPC   C2B18274   1.678  13.040  16.656 -0.0863  0.4694 -0.0608
 1512POPC   C3B18275   1.546  13.115  17.090  0.0661  0.1438  0.2285
 1512POPC   C4B18276   1.733  13.193  17.513 -0.1574  0.2065  0.0284
 1513POPC   NC318277  14.454  12.477  15.253 -0.0403 -0.0631 -0.0764
 1513POPC   PO418278  14.142  12.216  15.140  0.2349 -0.0501 -0.0658
 1513POPC   GL118279  14.254  12.178  15.596 -0.0954 -0.2696 -0.0085
 1513POPC   GL218280  13.963  12.099  15.653 -0.1094  0.3306  0.1209
 1513POPC   C1A18281  14.304  12.010  16.020  0.0023  0.1586 -0.3322
 1513POPC   D2A18282  14.483  12.027  16.420 -0.1314  0.2251 -0.0135
 1513POPC   C3A18283  14.246  12.198  16.757 -0.2291 -0.1170  0.1892
 1513POPC   C4A18284  14.129  12.400  17.199 -0.2035  0.1990  0.1099
 1513POPC   C1B18285  13.841  12.278  16.036 -0.1957  0.1488 -0.1813
 1513POPC   C2B18286  13.525  12.375  16.332 -0.1277 -0.2330 -0.2063
 1513POPC   C3B18287  13.501  12.794  16.565  0.0920 -0.1034 -0.2002
 1513POPC   C4B18288  13.468  13.264  16.715  0.2419 -0.3145  0.1471
 1514POPC   NC318289   3.917   5.584  14.923  0.2021  0.3316  0.0335
 1514POPC   PO418290   3.861   5.907  14.817  0.1793 -0.1887  0.1310
 1514POPC   GL118291   3.978   5.946  15.218  0.0719 -0.0341 -0.0752
 1514POPC   GL218292   4.200   5.750  15.310  0.1003 -0.0251  0.1063
 1514POPC   C1A18293   3.897   6.243  15.543  0.3329  0.1118 -0.1477
 1514POPC   D2A18294   3.573   6.423  15.843 -0.2026  0.1511 -0.0992
 1514POPC   C3A18295   3.670   6.659  16.300 -0.0813  0.2266  0.0723
 1514POPC   C4A18296   3.865   6.471  16.694  0.1930 -0.1381  0.2973
 1514POPC   C1B18297   4.157   5.550  15.675  0.1147  0.2296 -0.4033
 1514POPC   C2B18298   4.261   5.575  16.080  0.0686 -0.0953 -0.2332
 1514POPC   C3B18299   4.301   5.435  16.512 -0.0684  0.0845 -0.1843
 1514POPC   C4B18300   4.289   5.247  16.948  0.1025 -0.1638  0.3202
 1515POPC   NC318301  12.992  22.593  15.223 -0.0666  0.0227 -0.5101
 1515POPC   PO418302  12.627  22.579  15.116  0.0484 -0.2355 -0.0981
 1515POPC   GL118303  12.667  22.536  15.594 -0.0292 -0.1587 -0.0343
 1515POPC   GL218304  12.815  22.315  15.614  0.5050 -0.0682 -0.0233
 1515POPC   C1A18305  12.396  22.470  15.938  0.0494  0.0212 -0.0549
 1515POPC   D2A18306  11.980  22.480  16.108  0.1266 -0.1434  0.0421
 1515POPC   C3A18307  11.840  22.533  16.540  0.0069  0.1534  0.2509
 1515POPC   C4A18308  11.791  22.359  16.999 -0.1283  0.2599  0.3493
 1515POPC   C1B18309  12.969  22.345  16.032 -0.2891  0.0315 -0.1046
 1515POPC   C2B18310  13.034  22.108  16.483  0.5357  0.2433  0.0981
 1515POPC   C3B18311  13.195  22.225  16.866  0.0386  0.0627  0.2495
 1515POPC   C4B18312  13.109  22.163  17.308  0.2860  0.1455 -0.2925
 1516POPC   NC318313   0.336  18.953  15.662 -0.1855  0.3120  0.0977
 1516POPC   PO418314   0.503  18.707  15.363  0.2996  0.1271 -0.2514
 1516POPC   GL118315   0.834  18.747  15.592  0.2357  0.5423 -0.2597
 1516POPC   GL218316   0.809  19.030  15.701  0.1931  0.2767 -0.0601
 1516POPC   C1A18317   0.716  18.677  16.032  0.2053  0.2332  0.1665
 1516POPC   D2A18318   0.655  18.773  16.490 -0.1552  0.0160 -0.2275
 1516POPC   C3A18319   0.434  18.781  16.900 -0.2072  0.0525 -0.1147
 1516POPC   C4A18320   0.315  19.044  17.239  0.0301 -0.0686  0.1209
 1516POPC   C1B18321   0.978  19.116  16.157 -0.1286  0.1584 -0.0436
 1516POPC   C2B18322   1.339  19.334  16.410  0.0565  0.0499  0.3845
 1516POPC   C3B18323   1.317  19.407  16.880  0.0110 -0.0272  0.0634
 1516POPC   C4B18324   1.218  19.168  17.263  0.0098  0.2596  0.0161
 1517POPC   NC318325   3.499  14.426  15.456 -0.4233 -0.0782 -0.4794
 1517POPC   PO418326   3.564  14.073  15.227 -0.0414  0.0638 -0.5326
 1517POPC   GL118327   3.648  14.081  15.648  0.2026  0.1015 -0.0396
 1517POPC   GL218328   3.839  13.871  15.805 -0.1075  0.0246 -0.1789
 1517POPC   C1A18329   3.506  14.417  15.963 -0.1625 -0.1338 -0.0255
 1517POPC   D2A18330   3.204  14.530  16.363 -0.2466 -0.2035 -0.0171
 1517POPC   C3A18331   3.154  14.425  16.819  0.0600 -0.2091  0.1622
 1517POPC   C4A18332   3.030  14.515  17.233 -0.0134 -0.2333 -0.1600
 1517POPC   C1B18333   3.850  14.107  16.222  0.0188 -0.1334 -0.0785
 1517POPC   C2B18334   3.605  14.259  16.610 -0.2148  0.0718  0.0240
 1517POPC   C3B18335   3.662  14.411  17.041 -0.0034 -0.0676  0.2605
 1517POPC   C4B18336   3.860  14.793  17.092 -0.1872  0.1170  0.0206
 1518POPC   NC318337   6.937  29.409  15.175  0.3498 -0.0397 -0.4131
 1518POPC   PO418338   7.250  29.629  15.190  0.0548 -0.0058  0.2381
 1518POPC   GL118339   7.353  29.584  15.619 -0.1272  0.1429 -0.3550
 1518POPC   GL218340   7.690  29.580  15.609 -0.0605  0.1072  0.1604
 1518POPC   C1A18341   7.043  29.659  15.992 -0.3400 -0.0171 -0.2071
 1518POPC   D2A18342   6.669  29.531  16.283 -0.2497  0.1042 -0.1651
 1518POPC   C3A18343   6.856  29.367  16.681 -0.1266 -0.2700  0.3798
 1518POPC   C4A18344   7.189  29.091  16.943  0.1361 -0.1332 -0.0464
 1518POPC   C1B18345   7.566  29.379  15.956  0.1133 -0.0583 -0.3399
 1518POPC   C2B18346   7.467  29.622  16.313 -0.3618  0.2381  0.2642
 1518POPC   C3B18347   7.351  29.621  16.748 -0.0546 -0.0270 -0.5261
 1518POPC   C4B18348   7.064  29.525  17.106 -0.2806 -0.2057  0.0712
 1519POPC   NC318349  15.290  12.358  15.289 -0.3825  0.0114  0.2354
 1519POPC   PO418350  15.685  12.423  15.108  0.2814 -0.0757 -0.0283
 1519POPC   GL118351  15.753  12.411  15.377  0.1806  0.2197  0.1647
 1519POPC   GL218352  15.668  12.467  15.646  0.3167 -0.3926  0.2121
 1519POPC   C1A18353  16.211  12.386  15.610  0.1534 -0.4003 -0.0235
 1519POPC   D2A18354  16.564  12.411  15.822  0.2523  0.2923 -0.0394
 1519POPC   C3A18355  16.793  12.507  16.230  0.0313 -0.0001  0.0402
 1519POPC   C4A18356  16.889  12.597  16.657  0.1907 -0.0703 -0.2193
 1519POPC   C1B18357  15.898  12.631  16.030 -0.0436 -0.0484 -0.1612
 1519POPC   C2B18358  15.745  12.667  16.498  0.1477 -0.0531  0.0451
 1519POPC   C3B18359  15.879  12.880  16.829 -0.2811  0.3605  0.1608
 1519POPC   C4B18360  16.206  12.873  17.183  0.1984  0.2139 -0.0342
 1520POPC   NC318361  14.421  13.965  15.325 -0.0419  0.2104 -0.1602
 1520POPC   PO418362  14.156  13.671  15.191 -0.1349  0.1856 -0.1586
 1520POPC   GL118363  14.102  13.760  15.557  0.1522 -0.1597  0.1647
 1520POPC   GL218364  13.927  13.982  15.567  0.3829 -0.4062 -0.0539
 1520POPC   C1A18365  14.269  13.937  15.997  0.1287 -0.3113  0.0162
 1520POPC   D2A18366  14.619  14.120  16.185  0.3844 -0.0226  0.4138
 1520POPC   C3A18367  14.753  14.511  16.396  0.0541 -0.3072  0.1484
 1520POPC   C4A18368  15.002  14.615  16.713 -0.1504  0.1796 -0.1046
 1520POPC   C1B18369  13.747  13.882  15.999 -0.2448  0.1384  0.3188
 1520POPC   C2B18370  13.527  13.749  16.397 -0.4574  0.1933 -0.1585
 1520POPC   C3B18371  13.436  13.747  16.876 -0.2800  0.0861  0.2370
 1520POPC   C4B18372  13.296  13.762  17.314  0.0326 -0.0507 -0.2743
 1521POPC   NC318373   9.069  26.561  14.351  0.0931 -0.0427 -0.1116
 1521POPC   PO418374   9.214  26.444  14.651  0.0045  0.1668 -0.1512
 1521POPC   GL118375   9.106  26.237  14.981  0.0385  0.0074  0.0417
 1521POPC   GL218376   9.005  26.492  15.165 -0.0432  0.0725  0.2762
 1521POPC   C1A18377   9.161  26.051  15.422 -0.1255  0.1785  0.0626
 1521POPC   D2A18378   9.328  25.622  15.522  0.2404  0.2762 -0.3008
 1521POPC   C3A18379   9.114  25.759  15.904 -0.3702  0.0184 -0.1273
 1521POPC   C4A18380   9.050  25.928  16.357 -0.0531 -0.1152 -0.2320
 1521POPC   C1B18381   8.759  26.472  15.540  0.0238 -0.2255  0.1437
 1521POPC   C2B18382   8.661  26.654  15.959 -0.0966  0.0082  0.2980
 1521POPC   C3B18383   8.410  26.730  16.316 -0.2672 -0.2010 -0.3357
 1521POPC   C4B18384   8.157  26.633  16.697 -0.2696  0.1596 -0.0018
 1522POPC   NC318385  13.346  17.545  14.647 -0.1928  0.1249  0.3343
 1522POPC   PO418386  13.263  17.387  15.033 -0.1477 -0.0630 -0.1776
 1522POPC   GL118387  13.387  17.294  15.456  0.1506 -0.0189 -0.0568
 1522POPC   GL218388  13.210  17.383  15.566  0.3319  0.0120 -0.0773
 1522POPC   C1A18389  13.367  16.929  15.815  0.4265 -0.0105 -0.0796
 1522POPC   D2A18390  13.048  16.677  16.045  0.1448  0.0640  0.2407
 1522POPC   C3A18391  12.839  16.781  16.456  0.1873  0.1280  0.0460
 1522POPC   C4A18392  13.014  16.746  16.876 -0.0951 -0.1637  0.1680
 1522POPC   C1B18393  13.352  17.475  15.995  0.1199 -0.0415  0.1256
 1522POPC   C2B18394  13.364  17.386  16.454 -0.2244 -0.0566 -0.1346
 1522POPC   C3B18395  13.170  17.243  16.828 -0.2070 -0.0285 -0.0443
 1522POPC   C4B18396  13.292  16.986  17.175 -0.4219 -0.0827  0.1676
 1523POPC   NC318397   0.484   9.087  14.438 -0.0330  0.1082 -0.1013
 1523POPC   PO418398   0.286   9.377  14.631  0.0482 -0.1454 -0.1705
 1523POPC   GL118399   0.599   9.444  14.782 -0.0718 -0.0835  0.2929
 1523POPC   GL218400   0.697   9.237  14.982  0.2816  0.1651 -0.1140
 1523POPC   C1A18401   0.629   9.651  15.265 -0.0771  0.2542  0.1653
 1523POPC   D2A18402   0.599   9.680  15.749 -0.1023 -0.0650  0.1647
 1523POPC   C3A18403   0.569   9.284  15.987 -0.0044  0.1841 -0.1115
 1523POPC   C4A18404   0.898   8.985  16.081 -0.0636 -0.0863  0.3239
 1523POPC   C1B18405   0.959   9.231  15.380  0.3905  0.1194  0.1587
 1523POPC   C2B18406   1.030   9.410  15.830  0.3174 -0.2988 -0.1578
 1523POPC   C3B18407   1.049   9.790  16.064  0.0871 -0.1317 -0.0429
 1523POPC   C4B18408   1.203  10.245  16.043 -0.1812  0.1375 -0.4762
 1524POPC   NC318409  11.514   0.687  14.856  0.1507  0.0080 -0.3997
 1524POPC   PO418410  11.580   0.741  15.232 -0.3020  0.0299 -0.0075
 1524POPC   GL118411  11.676   0.823  15.654 -0.2392  0.0970 -0.0321
 1524POPC   GL218412  11.470   0.959  15.811  0.0800 -0.2964 -0.0789
 1524POPC   C1A18413  11.935   1.000  16.052  0.1701 -0.1060 -0.0802
 1524POPC   D2A18414  11.950   0.970  16.531  0.3252  0.1630  0.0656
 1524POPC   C3A18415  12.195   0.986  16.893  0.0780  0.0070  0.0792
 1524POPC   C4A18416  12.334   1.142  17.365  0.2193  0.1983 -0.1879
 1524POPC   C1B18417  11.210   0.845  16.134 -0.0729 -0.3366 -0.2364
 1524POPC   C2B18418  11.077   0.725  16.532  0.1450 -0.2247  0.0334
 1524POPC   C3B18419  11.018   0.333  16.800  0.1572 -0.1311  0.0913
 1524POPC   C4B18420  10.927  -0.075  16.517 -0.1410  0.2466 -0.0864
 1525POPC   NC318421   5.240   6.028  15.159 -0.2108  0.2734  0.0211
 1525POPC   PO418422   5.170   5.630  15.137  0.2639  0.3054 -0.2475
 1525POPC   GL118423   5.096   5.545  15.471  0.2901  0.2651  0.1252
 1525POPC   GL218424   5.270   5.380  15.691 -0.1992  0.0372 -0.2774
 1525POPC   C1A18425   4.840   5.663  15.840  0.2021  0.0822 -0.1006
 1525POPC   D2A18426   4.797   5.711  16.316  0.0706 -0.3229  0.2767
 1525POPC   C3A18427   4.734   5.379  16.729 -0.0911 -0.0270 -0.3115
 1525POPC   C4A18428   4.688   4.961  16.964  0.1242 -0.0037  0.0527
 1525POPC   C1B18429   5.337   5.576  16.112  0.0296  0.4732 -0.1157
 1525POPC   C2B18430   5.283   5.407  16.513  0.0127 -0.0121  0.1726
 1525POPC   C3B18431   5.474   5.422  16.905 -0.2473 -0.0769 -0.1801
 1525POPC   C4B18432   5.850   5.520  17.127 -0.0571 -0.1353 -0.0172
 1526POPC   NC318433   6.965   5.288  14.829 -0.0838  0.0080  0.2964
 1526POPC   PO418434   6.625   5.485  14.897 -0.2990 -0.3479  0.2078
 1526POPC   GL118435   6.490   5.439  15.223 -0.1295  0.1813  0.0288
 1526POPC   GL218436   6.483   5.231  15.397 -0.3634  0.0536  0.2072
 1526POPC   C1A18437   6.232   5.636  15.577  0.3222 -0.3443  0.0344
 1526POPC   D2A18438   6.184   5.682  16.053  0.0641 -0.0260 -0.0220
 1526POPC   C3A18439   6.393   5.958  16.355 -0.1509  0.2774 -0.0250
 1526POPC   C4A18440   6.858   5.889  16.579  0.1445  0.0424 -0.0036
 1526POPC   C1B18441   6.653   5.335  15.789  0.0784 -0.1375  0.1881
 1526POPC   C2B18442   6.678   5.534  16.190  0.0934  0.0207 -0.1708
 1526POPC   C3B18443   6.517   5.402  16.607 -0.1374  0.1660 -0.0732
 1526POPC   C4B18444   6.362   5.668  16.999 -0.0514  0.0346 -0.0982
 1527POPC   NC318445  15.189   2.541  15.368  0.4565  0.2236  0.0673
 1527POPC   PO418446  15.104   2.922  15.385 -0.0713  0.1939  0.0144
 1527POPC   GL118447  15.055   2.938  15.821 -0.0892  0.0434  0.1822
 1527POPC   GL218448  15.258   2.714  15.861  0.2284 -0.1700 -0.1321
 1527POPC   C1A18449  15.162   3.204  16.185  0.0675  0.0880 -0.0370
 1527POPC   D2A18450  15.099   3.624  16.344  0.1288 -0.2843  0.1165
 1527POPC   C3A18451  15.444   3.523  16.598  0.4019 -0.1982 -0.2282
 1527POPC   C4A18452  15.837   3.333  16.735  0.0723 -0.4177 -0.2805
 1527POPC   C1B18453  15.147   2.740  16.330  0.0946 -0.2361 -0.0992
 1527POPC   C2B18454  15.228   3.058  16.693  0.2045  0.1519  0.1095
 1527POPC   C3B18455  15.408   3.386  17.030 -0.0069 -0.0574  0.2224
 1527POPC   C4B18456  15.751   3.614  17.232 -0.0054 -0.0722  0.2039
 1528POPC   NC318457   4.501  27.521  15.609  0.0425 -0.0929 -0.0617
 1528POPC   PO418458   4.146  27.671  15.591 -0.1272  0.0105  0.0886
 1528POPC   GL118459   4.099  27.547  15.906 -0.2247 -0.1860  0.5055
 1528POPC   GL218460   4.234  27.701  16.082 -0.2516 -0.1577 -0.3659
 1528POPC   C1A18461   3.961  27.263  16.268  0.2936  0.0697  0.2255
 1528POPC   D2A18462   4.093  26.924  16.572 -0.0078  0.0271  0.2246
 1528POPC   C3A18463   3.832  26.751  16.871  0.3285 -0.1578 -0.0267
 1528POPC   C4A18464   3.807  26.607  17.326  0.0728  0.4174  0.0549
 1528POPC   C1B18465   3.817  27.829  16.274 -0.1755  0.1190  0.1230
 1528POPC   C2B18466   3.778  27.969  16.739 -0.0802  0.1629  0.0106
 1528POPC   C3B18467   3.759  28.234  17.099 -0.1923  0.0918 -0.0231
 1528POPC   C4B18468   3.554  28.393  17.497  0.1432 -0.2201  0.0927
 1529POPC   NC318469  14.525  26.155  15.092 -0.0393  0.1827  0.0348
 1529POPC   PO418470  14.794  26.261  15.357 -0.0195 -0.1098 -0.3029
 1529POPC   GL118471  14.880  26.162  15.797  0.0112 -0.1174  0.2584
 1529POPC   GL218472  15.144  26.292  15.757 -0.1941 -0.2742 -0.1879
 1529POPC   C1A18473  14.746  26.266  16.228 -0.2773  0.1532 -0.0980
 1529POPC   D2A18474  14.742  26.154  16.645 -0.1079  0.2554  0.1245
 1529POPC   C3A18475  14.360  26.303  16.932  0.2927 -0.0475  0.0658
 1529POPC   C4A18476  13.986  26.318  17.204 -0.1407  0.2464  0.0198
 1529POPC   C1B18477  15.226  26.333  16.194  0.1851  0.1874 -0.2348
 1529POPC   C2B18478  15.269  26.293  16.663 -0.0231  0.2288  0.2587
 1529POPC   C3B18479  15.003  26.134  17.025 -0.0595  0.3446  0.0663
 1529POPC   C4B18480  14.696  25.821  17.187  0.2702 -0.0374 -0.2819
 1530POPC   NC318481   6.748  12.291  15.117  0.0688  0.1864  0.0311
 1530POPC   PO418482   6.472  12.059  15.249 -0.1683  0.2202 -0.0160
 1530POPC   GL118483   6.532  12.122  15.673  0.2781  0.3303  0.2163
 1530POPC   GL218484   6.409  11.883  15.841 -0.1044 -0.1442  0.0277
 1530POPC   C1A18485   6.633  12.395  16.029  0.1736 -0.1332 -0.0558
 1530POPC   D2A18486   6.600  12.729  16.306  0.0768 -0.0320  0.2861
 1530POPC   C3A18487   6.987  12.891  16.540  0.0599  0.0174 -0.1339
 1530POPC   C4A18488   7.272  12.740  16.861 -0.0754 -0.4149 -0.0748
 1530POPC   C1B18489   6.353  12.020  16.264 -0.0737  0.0177 -0.4048
 1530POPC   C2B18490   6.480  12.064  16.731 -0.2095 -0.0077 -0.3867
 1530POPC   C3B18491   6.620  12.172  17.180 -0.2620  0.1785  0.1612
 1530POPC   C4B18492   6.879  11.872  17.412  0.1852 -0.1932 -0.0179
 1531POPC   NC318493   6.202  25.866  15.323  0.2080 -0.0747 -0.1301
 1531POPC   PO418494   6.401  26.087  15.083  0.3239  0.3133  0.0689
 1531POPC   GL118495   6.471  26.235  15.489  0.1226 -0.2895 -0.0202
 1531POPC   GL218496   6.824  26.256  15.336  0.0297  0.1691 -0.0889
 1531POPC   C1A18497   6.695  26.135  15.899 -0.0607  0.1703 -0.0091
 1531POPC   D2A18498   7.008  25.870  16.177  0.0635  0.1795 -0.0873
 1531POPC   C3A18499   6.969  25.967  16.669 -0.2443  0.2049  0.0342
 1531POPC   C4A18500   6.979  25.959  17.103 -0.0606 -0.0188  0.4030
 1531POPC   C1B18501   6.898  26.516  15.700 -0.0250  0.2034  0.0734
 1531POPC   C2B18502   6.935  26.503  16.156  0.1752 -0.1841 -0.0873
 1531POPC   C3B18503   6.858  26.606  16.624 -0.0298  0.4068  0.1313
 1531POPC   C4B18504   6.983  26.670  17.054  0.2268 -0.2719  0.1230
 1532POPC   NC318505   3.173  26.847  15.250 -0.0792  0.1738 -0.0639
 1532POPC   PO418506   3.339  27.195  15.178  0.2881 -0.0646  0.2501
 1532POPC   GL118507   3.266  27.212  15.568  0.1028  0.1042 -0.0203
 1532POPC   GL218508   2.968  27.247  15.557  0.1304 -0.0624  0.0792
 1532POPC   C1A18509   3.089  27.478  15.940 -0.2771  0.3669  0.0056
 1532POPC   D2A18510   2.936  27.708  16.320 -0.1801 -0.3885 -0.3119
 1532POPC   C3A18511   3.161  27.671  16.696 -0.2122  0.0090 -0.1091
 1532POPC   C4A18512   3.350  27.501  17.041 -0.1514  0.2458 -0.1038
 1532POPC   C1B18513   2.654  27.050  15.900 -0.1117  0.2021  0.0523
 1532POPC   C2B18514   2.695  26.780  16.294 -0.0397  0.2229  0.0309
 1532POPC   C3B18515   2.468  26.823  16.661  0.1245  0.0036 -0.2082
 1532POPC   C4B18516   2.186  27.187  16.758 -0.0875  0.2060  0.0257
 1533POPC   NC318517  14.007   2.785  15.239  0.2106  0.2102 -0.0734
 1533POPC   PO418518  13.632   2.587  15.254  0.1583 -0.0083 -0.2789
 1533POPC   GL118519  13.398   2.418  15.553 -0.0485 -0.4409 -0.3615
 1533POPC   GL218520  13.276   2.580  15.795 -0.1791  0.0289 -0.2079
 1533POPC   C1A18521  13.568   2.186  15.887 -0.3540 -0.1296  0.0671
 1533POPC   D2A18522  13.343   2.039  16.248  0.1617  0.0131 -0.1119
 1533POPC   C3A18523  13.503   1.796  16.641 -0.0370 -0.0545  0.1926
 1533POPC   C4A18524  13.525   1.471  17.012 -0.2218  0.1166 -0.0536
 1533POPC   C1B18525  13.344   2.511  16.232 -0.0924 -0.1290 -0.0185
 1533POPC   C2B18526  13.382   2.346  16.686  0.0640  0.0982  0.1326
 1533POPC   C3B18527  13.435   2.399  17.102  0.3008 -0.1087 -0.3058
 1533POPC   C4B18528  13.392   2.751  17.406 -0.2910  0.2261 -0.0684
 1534POPC   NC318529   1.890  20.526  15.123 -0.0216 -0.0404 -0.1787
 1534POPC   PO418530   1.653  20.827  15.076  0.0952  0.3495 -0.1944
 1534POPC   GL118531   2.016  20.951  15.366 -0.1123 -0.0521 -0.0132
 1534POPC   GL218532   1.840  21.202  15.376  0.0374 -0.0554  0.1419
 1534POPC   C1A18533   2.274  20.826  15.748  0.2704  0.0076  0.0662
 1534POPC   D2A18534   2.419  20.578  16.092  0.1636  0.1914  0.0235
 1534POPC   C3A18535   2.390  20.491  16.561  0.0361  0.0302  0.0213
 1534POPC   C4A18536   2.047  20.354  16.820  0.0459 -0.0598  0.3112
 1534POPC   C1B18537   1.700  20.826  15.688 -0.0613 -0.1581  0.0982
 1534POPC   C2B18538   1.593  20.753  16.112  0.1372  0.0669  0.0398
 1534POPC   C3B18539   1.571  20.832  16.599  0.1464  0.1992  0.0323
 1534POPC   C4B18540   1.712  20.710  17.006 -0.2289  0.0944 -0.0021
 1535POPC   NC318541  15.180   1.002  14.678  0.0796  0.0460  0.1029
 1535POPC   PO418542  15.156   0.640  14.919 -0.1739 -0.0331 -0.0511
 1535POPC   GL118543  15.163   0.449  15.176  0.4262 -0.2008  0.5425
 1535POPC   GL218544  15.256   0.585  15.462  0.2174 -0.2013 -0.3340
 1535POPC   C1A18545  15.062   0.099  15.403  0.1972 -0.1115  0.1580
 1535POPC   D2A18546  14.942   0.079  15.885  0.5460  0.1103 -0.1467
 1535POPC   C3A18547  14.548   0.160  16.045 -0.0143  0.0609  0.3524
 1535POPC   C4A18548  14.161   0.057  16.329 -0.0090 -0.1137  0.1206
 1535POPC   C1B18549  15.062   0.987  15.644  0.4001  0.3181 -0.1293
 1535POPC   C2B18550  14.936   1.082  16.085  0.1427 -0.1776 -0.1042
 1535POPC   C3B18551  14.802   1.239  16.537 -0.0944 -0.4871 -0.1358
 1535POPC   C4B18552  14.663   1.466  16.910  0.0675 -0.2235  0.0528
 1536POPC   NC318553   4.435   3.944  14.914  0.3931 -0.0659  0.1310
 1536POPC   PO418554   4.751   3.851  15.189  0.1322 -0.0656 -0.3146
 1536POPC   GL118555   4.727   3.799  15.538  0.1087  0.2024  0.0807
 1536POPC   GL218556   4.901   3.625  15.691  0.1062  0.0136  0.2718
 1536POPC   C1A18557   4.538   3.918  15.903 -0.3503  0.1036 -0.1460
 1536POPC   D2A18558   4.196   4.019  16.177  0.0114 -0.0914  0.0046
 1536POPC   C3A18559   4.039   4.012  16.588 -0.1497 -0.3464  0.1432
 1536POPC   C4A18560   3.949   4.293  16.956  0.1645  0.0667 -0.1794
 1536POPC   C1B18561   5.254   3.856  15.895  0.2877 -0.1202 -0.0473
 1536POPC   C2B18562   5.185   3.963  16.351  0.0914 -0.2809  0.2592
 1536POPC   C3B18563   5.094   3.904  16.790 -0.0520 -0.0392 -0.1239
 1536POPC   C4B18564   5.052   3.596  17.186  0.2081  0.3843  0.0284
 1537POPC   NC318565   7.223   1.830  15.404  0.1410  0.0597 -0.2008
 1537POPC   PO418566   6.830   1.746  15.318 -0.0753 -0.1016  0.0511
 1537POPC   GL118567   6.768   1.548  15.761  0.0094 -0.2348  0.3483
 1537POPC   GL218568   7.026   1.744  15.854  0.3356  0.3362  0.0814
 1537POPC   C1A18569   6.812   1.361  16.137  0.2051 -0.1848  0.2236
 1537POPC   D2A18570   6.759   1.033  16.422 -0.1743  0.1649 -0.1159
 1537POPC   C3A18571   6.822   0.929  16.896 -0.0439 -0.0780 -0.2611
 1537POPC   C4A18572   6.663   1.025  17.296 -0.0616  0.1342 -0.0994
 1537POPC   C1B18573   6.944   1.839  16.277  0.0441 -0.2388 -0.0426
 1537POPC   C2B18574   6.865   1.648  16.727  0.2953  0.0566 -0.1651
 1537POPC   C3B18575   6.816   1.554  17.203  0.1130 -0.0319  0.0187
 1537POPC   C4B18576   7.066   1.426  17.608  0.2268  0.0722  0.1781
 1538POPC   NC318577  10.059  11.348  15.798 -0.0215 -0.0147 -0.1012
 1538POPC   PO418578  10.283  11.099  15.585  0.0790  0.1908 -0.0993
 1538POPC   GL118579  10.471  11.091  15.935 -0.1440 -0.0781  0.0684
 1538POPC   GL218580  10.255  11.018  16.155  0.3980  0.0846 -0.2677
 1538POPC   C1A18581  10.672  10.865  16.299  0.0521  0.1311 -0.1539
 1538POPC   D2A18582  10.908  11.090  16.615 -0.0185 -0.2015 -0.0803
 1538POPC   C3A18583  10.865  10.885  17.021  0.3021 -0.0578  0.0378
 1538POPC   C4A18584  10.978  10.854  17.451  0.2642 -0.0190 -0.0426
 1538POPC   C1B18585  10.397  11.065  16.618  0.1358  0.0390 -0.3265
 1538POPC   C2B18586  10.620  11.360  16.970  0.1171  0.2694 -0.2575
 1538POPC   C3B18587  10.555  11.728  17.301 -0.0308  0.0402 -0.2525
 1538POPC   C4B18588  10.213  11.970  17.448  0.4230  0.0510 -0.1249
 1539POPC   NC318589  10.024   9.917  15.896 -0.2367  0.4392  0.0717
 1539POPC   PO418590  10.398   9.874  15.767  0.0057  0.0347 -0.0585
 1539POPC   GL118591  10.406  10.002  16.173  0.0405  0.0973 -0.0251
 1539POPC   GL218592  10.273   9.753  16.298 -0.1572  0.0276  0.2854
 1539POPC   C1A18593  10.653  10.017  16.571 -0.2414 -0.4074  0.1556
 1539POPC   D2A18594  10.924   9.681  16.707 -0.1707 -0.0716 -0.1778
 1539POPC   C3A18595  10.898   9.478  17.079  0.0446  0.2253  0.1333
 1539POPC   C4A18596  10.503   9.528  17.293 -0.3579 -0.1696  0.2230
 1539POPC   C1B18597  10.239   9.754  16.742 -0.0907 -0.1382  0.0243
 1539POPC   C2B18598  10.419   9.995  17.121  0.1564  0.0235  0.0382
 1539POPC   C3B18599  10.584   9.999  17.561  0.1439  0.1794 -0.1853
 1539POPC   C4B18600  10.708   9.967  17.984  0.1576  0.0978 -0.1598
 1540POPC   NC318601  13.055  18.303  15.176  0.1094 -0.0260  0.0550
 1540POPC   PO418602  12.784  18.307  14.888  0.0120 -0.0773 -0.0752
 1540POPC   GL118603  12.758  18.695  15.042  0.0315  0.0086 -0.1251
 1540POPC   GL218604  13.049  18.835  15.102  0.2980 -0.0651 -0.3548
 1540POPC   C1A18605  12.782  18.686  15.496 -0.0217 -0.0754  0.0449
 1540POPC   D2A18606  12.912  18.907  15.926 -0.0679  0.0006 -0.0654
 1540POPC   C3A18607  13.064  18.689  16.311 -0.0074  0.1547  0.2807
 1540POPC   C4A18608  13.151  18.831  16.774  0.0806  0.1300  0.0240
 1540POPC   C1B18609  12.928  19.164  15.416  0.1790 -0.2203  0.2639
 1540POPC   C2B18610  12.896  19.395  15.842 -0.0320 -0.1144 -0.1707
 1540POPC   C3B18611  12.883  19.292  16.323  0.1232  0.3560  0.0725
 1540POPC   C4B18612  12.966  19.262  16.769 -0.0927  0.0406 -0.0712
 1541POPC   NC318613   6.628  27.236  15.187 -0.1498 -0.0883 -0.1571
 1541POPC   PO418614   6.730  27.612  15.159  0.0299 -0.0728  0.1539
 1541POPC   GL118615   6.840  27.643  15.520 -0.2422 -0.0216 -0.6427
 1541POPC   GL218616   6.999  27.379  15.510  0.2557  0.2469  0.0583
 1541POPC   C1A18617   7.200  27.844  15.771 -0.0420  0.0782  0.3524
 1541POPC   D2A18618   7.537  27.804  16.134 -0.3671  0.0431 -0.2944
 1541POPC   C3A18619   7.542  27.862  16.652 -0.3332  0.1334 -0.1213
 1541POPC   C4A18620   7.466  27.621  17.045 -0.0339 -0.1695 -0.2298
 1541POPC   C1B18621   6.780  27.403  15.906 -0.1051 -0.0313  0.1067
 1541POPC   C2B18622   6.558  27.459  16.318  0.3697  0.0104  0.1453
 1541POPC   C3B18623   6.239  27.696  16.563  0.1117 -0.1456  0.0159
 1541POPC   C4B18624   6.008  27.725  16.970  0.0510  0.3589  0.2061
 1542POPC   NC318625   4.223  22.774  15.050  0.2586 -0.0074 -0.0176
 1542POPC   PO418626   4.044  22.440  15.098 -0.0716  0.0340 -0.0605
 1542POPC   GL118627   4.199  22.403  15.501  0.2121 -0.0910  0.1335
 1542POPC   GL218628   4.136  22.717  15.529  0.0988 -0.1005  0.4578
 1542POPC   C1A18629   4.095  22.401  15.952 -0.0865 -0.0602  0.0919
 1542POPC   D2A18630   4.248  22.575  16.350  0.0517  0.5523 -0.2678
 1542POPC   C3A18631   4.603  22.563  16.592 -0.1457  0.0082  0.1036
 1542POPC   C4A18632   4.622  22.707  17.003  0.1110  0.2461 -0.0661
 1542POPC   C1B18633   3.979  22.889  15.878 -0.2400 -0.0917 -0.1696
 1542POPC   C2B18634   4.174  23.055  16.215  0.2307 -0.1131 -0.1449
 1542POPC   C3B18635   4.260  22.972  16.663  0.0493  0.3222  0.0111
 1542POPC   C4B18636   4.182  23.045  17.108  0.0068 -0.1128  0.2121
 1543POPC   NC318637   5.944  29.915  14.982 -0.0987 -0.1221 -0.2843
 1543POPC   PO418638   5.856  29.526  15.119  0.0296 -0.0483 -0.1653
 1543POPC   GL118639   5.768  29.667  15.456 -0.0922  0.0158  0.2956
 1543POPC   GL218640   5.472  29.579  15.472  0.0926  0.2159  0.1330
 1543POPC   C1A18641   5.705  30.096  15.572 -0.0812 -0.2180 -0.1009
 1543POPC   D2A18642   5.914  30.442  15.800 -0.0784  0.3180  0.2993
 1543POPC   C3A18643   6.076  30.553  16.205  0.0328 -0.0522  0.0324
 1543POPC   C4A18644   6.316  30.713  16.558  0.0113 -0.5087 -0.1685
 1543POPC   C1B18645   5.638  29.509  15.915  0.1482 -0.3461  0.2848
 1543POPC   C2B18646   5.675  29.560  16.410  0.1978 -0.0451  0.1855
 1543POPC   C3B18647   5.859  29.699  16.827 -0.0616 -0.3151  0.0176
 1543POPC   C4B18648   5.765  30.096  17.041 -0.0571  0.0401  0.1017
 1544POPC   NC318649  11.539  30.747  15.334  0.2862  0.3287  0.5278
 1544POPC   PO418650  11.716  31.092  15.424  0.3414 -0.3449  0.0282
 1544POPC   GL118651  11.815  31.156  15.758 -0.2108  0.0785  0.0783
 1544POPC   GL218652  11.978  31.206  15.958 -0.1312 -0.0806  0.2662
 1544POPC   C1A18653  11.597  31.344  16.159  0.0904 -0.0762 -0.1106
 1544POPC   D2A18654  11.327  31.253  16.516 -0.1651 -0.2086 -0.2829
 1544POPC   C3A18655  11.543  31.407  16.917 -0.1225  0.1764  0.1160
 1544POPC   C4A18656  11.775  31.469  17.304  0.0617  0.0441  0.0101
 1544POPC   C1B18657  12.338  31.091  16.328 -0.0489 -0.0404 -0.2097
 1544POPC   C2B18658  12.381  31.043  16.792 -0.3060 -0.0555 -0.1006
 1544POPC   C3B18659  12.499  31.327  17.137 -0.1075 -0.2782  0.1933
 1544POPC   C4B18660  12.766  31.596  17.439  0.1154 -0.2858 -0.0152
 1545POPC   NC318661   2.061  21.010  14.907  0.0987  0.2043  0.2783
 1545POPC   PO418662   2.357  21.151  15.029  0.0624  0.0841 -0.1249
 1545POPC   GL118663   2.393  21.208  15.453  0.0341 -0.3331  0.0548
 1545POPC   GL218664   2.680  21.307  15.573 -0.0964 -0.2555  0.0317
 1545POPC   C1A18665   2.252  21.351  15.873  0.1088 -0.3854 -0.0797
 1545POPC   D2A18666   2.187  21.432  16.285 -0.2502  0.1417  0.4959
 1545POPC   C3A18667   2.289  21.410  16.793 -0.3203  0.0446  0.3462
 1545POPC   C4A18668   2.317  21.430  17.245  0.3833 -0.3557 -0.2928
 1545POPC   C1B18669   2.656  21.150  16.005 -0.0400  0.1872  0.2595
 1545POPC   C2B18670   2.527  21.075  16.427  0.2170  0.3932 -0.0697
 1545POPC   C3B18671   2.626  20.939  16.777  0.1849 -0.1369 -0.1741
 1545POPC   C4B18672   2.560  20.526  17.072  0.2606  0.1622  0.0226
 1546POPC   NC318673   2.856   7.316  15.312  0.2783 -0.1761  0.1024
 1546POPC   PO418674   2.576   7.254  15.580 -0.1094  0.0641  0.0695
 1546POPC   GL118675   2.396   7.435  15.903 -0.0244 -0.0856  0.0384
 1546POPC   GL218676   2.248   7.800  15.806  0.2823  0.1480 -0.1911
 1546POPC   C1A18677   2.545   7.666  16.264  0.1199 -0.0036 -0.4049
 1546POPC   D2A18678   2.674   7.731  16.715  0.1439 -0.1335 -0.3807
 1546POPC   C3A18679   2.904   7.536  17.055  0.0785  0.1836  0.2050
 1546POPC   C4A18680   3.210   7.594  17.270  0.3237  0.0907 -0.0407
 1546POPC   C1B18681   2.173   8.159  16.093  0.0448  0.0157 -0.0202
 1546POPC   C2B18682   2.200   8.443  16.407 -0.0702 -0.0323  0.0395
 1546POPC   C3B18683   2.615   8.642  16.590  0.1816  0.3819  0.2526
 1546POPC   C4B18684   2.896   8.751  16.952  0.1783 -0.0021  0.1127
 1547POPC   NC318685   6.905  25.606  14.336 -0.2015  0.3371 -0.0434
 1547POPC   PO418686   6.921  25.232  14.338  0.0679  0.0595  0.0752
 1547POPC   GL118687   7.035  25.297  14.749 -0.1530 -0.0982 -0.2539
 1547POPC   GL218688   6.788  25.306  14.856 -0.0263  0.0151  0.0547
 1547POPC   C1A18689   7.339  25.123  15.071 -0.0573  0.3052  0.0911
 1547POPC   D2A18690   7.738  25.003  15.218 -0.2293 -0.1332 -0.2946
 1547POPC   C3A18691   8.077  25.285  15.150 -0.1523  0.0327 -0.2485
 1547POPC   C4A18692   8.436  25.583  15.393 -0.0819  0.1319  0.2781
 1547POPC   C1B18693   7.010  25.573  15.198  0.0351  0.0198  0.0826
 1547POPC   C2B18694   7.039  25.757  15.589 -0.0669  0.0359 -0.0754
 1547POPC   C3B18695   7.271  26.087  15.835  0.0482  0.0993 -0.0493
 1547POPC   C4B18696   7.435  26.057  16.247  0.0220  0.0503  0.0329
 1548POPC   NC318697   4.590   7.110  15.117  0.1276 -0.2590  0.0382
 1548POPC   PO418698   4.428   7.228  15.464  0.0871  0.0824  0.0518
 1548POPC   GL118699   4.529   7.173  15.859 -0.2405 -0.2873 -0.3089
 1548POPC   GL218700   4.555   6.957  15.838 -0.0958  0.2350  0.2411
 1548POPC   C1A18701   4.439   7.279  16.305 -0.1611  0.0859 -0.1492
 1548POPC   D2A18702   4.408   7.588  16.582 -0.1178 -0.0542  0.0029
 1548POPC   C3A18703   4.406   7.411  16.985  0.0304  0.1422  0.1477
 1548POPC   C4A18704   4.372   7.035  17.261  0.1238 -0.1507  0.1664
 1548POPC   C1B18705   4.877   7.108  16.177  0.0057 -0.2943 -0.0886
 1548POPC   C2B18706   4.955   7.514  16.451  0.1346  0.1426  0.0319
 1548POPC   C3B18707   4.859   7.650  16.875 -0.0936  0.4043  0.0960
 1548POPC   C4B18708   4.943   7.242  17.111 -0.1768 -0.0751 -0.0354
 1549POPC   NC318709  13.379  28.520  15.521  0.1574  0.0888  0.0805
 1549POPC   PO418710  13.667  28.650  15.265 -0.1022 -0.0706 -0.1295
 1549POPC   GL118711  14.048  28.681  15.415  0.0318 -0.1091 -0.1171
 1549POPC   GL218712  14.103  28.476  15.557 -0.1199  0.0786  0.2758
 1549POPC   C1A18713  14.169  29.033  15.670 -0.0332  0.1555 -0.2055
 1549POPC   D2A18714  14.571  29.069  15.777  0.3451 -0.0818 -0.2227
 1549POPC   C3A18715  14.389  29.135  16.204 -0.0166  0.0400 -0.2230
 1549POPC   C4A18716  14.400  29.199  16.663  0.1443 -0.2379  0.2460
 1549POPC   C1B18717  14.269  28.606  15.997 -0.0012  0.0279  0.1427
 1549POPC   C2B18718  14.464  28.646  16.442 -0.0727 -0.0336 -0.0084
 1549POPC   C3B18719  14.602  28.612  16.885 -0.0795 -0.4756  0.0610
 1549POPC   C4B18720  14.701  28.258  17.188  0.2165  0.1328 -0.0472
 1550POPC   NC318721  15.666  12.917  14.946 -0.2098  0.2653 -0.0791
 1550POPC   PO418722  15.748  13.293  14.979 -0.1565  0.0112 -0.1495
 1550POPC   GL118723  16.029  13.237  15.262 -0.4444 -0.2202 -0.2151
 1550POPC   GL218724  16.083  12.987  15.352 -0.0261  0.2252  0.2053
 1550POPC   C1A18725  15.994  13.302  15.681 -0.0424  0.0335 -0.2294
 1550POPC   D2A18726  16.095  13.217  16.113 -0.2970 -0.0501  0.1416
 1550POPC   C3A18727  15.766  13.149  16.374  0.0953 -0.0036  0.0582
 1550POPC   C4A18728  15.309  13.091  16.511  0.3596  0.0889 -0.1405
 1550POPC   C1B18729  16.235  12.881  15.786 -0.1831 -0.1072 -0.0311
 1550POPC   C2B18730  16.379  12.729  16.192  0.1149 -0.0569  0.0420
 1550POPC   C3B18731  16.308  12.603  16.626  0.1077 -0.0463 -0.1107
 1550POPC   C4B18732  16.449  12.309  16.917  0.1799 -0.0731  0.0478
 1551POPC   NC318733  15.563  13.297  15.428  0.0054 -0.0359 -0.1352
 1551POPC   PO418734  15.450  12.898  15.413  0.2731 -0.1951 -0.0019
 1551POPC   GL118735  15.311  12.975  15.741 -0.0305 -0.1241 -0.1027
 1551POPC   GL218736  15.581  12.999  15.888 -0.2030 -0.2328 -0.0733
 1551POPC   C1A18737  15.123  13.295  16.058  0.1642  0.1691  0.2307
 1551POPC   D2A18738  14.693  13.470  16.014 -0.1608 -0.0142 -0.1126
 1551POPC   C3A18739  14.518  13.609  16.406 -0.0079 -0.2028  0.1037
 1551POPC   C4A18740  14.605  13.673  16.839 -0.0334 -0.1252 -0.0661
 1551POPC   C1B18741  15.576  13.468  16.035 -0.0127 -0.0691 -0.0806
 1551POPC   C2B18742  15.548  13.750  16.468 -0.1268 -0.1195 -0.2337
 1551POPC   C3B18743  15.691  13.956  16.883 -0.0574  0.0371  0.1739
 1551POPC   C4B18744  16.021  14.209  17.073  0.0871 -0.1205 -0.0239
 1552POPC   NC318745  11.779  18.663  14.907  0.0857  0.0302  0.0192
 1552POPC   PO418746  11.484  18.469  15.084 -0.0621 -0.1579  0.3202
 1552POPC   GL118747  11.548  18.263  15.315 -0.3060  0.0867 -0.1521
 1552POPC   GL218748  11.303  18.235  15.473 -0.1673 -0.0422  0.1033
 1552POPC   C1A18749  11.782  18.260  15.668 -0.3620 -0.3554  0.2284
 1552POPC   D2A18750  12.004  17.887  15.963 -0.1930  0.0765  0.0887
 1552POPC   C3A18751  11.956  17.626  16.360  0.2105 -0.3079  0.1126
 1552POPC   C4A18752  11.606  17.369  16.482 -0.2110  0.0427 -0.0995
 1552POPC   C1B18753  11.385  18.163  15.924  0.1883 -0.1515 -0.1021
 1552POPC   C2B18754  11.639  18.069  16.356 -0.0048 -0.0713 -0.2302
 1552POPC   C3B18755  11.756  18.451  16.624  0.0500 -0.1528  0.1313
 1552POPC   C4B18756  12.157  18.619  16.757 -0.0808  0.0277 -0.1552
 1553POPC   NC318757   9.994  24.831  14.769  0.0542 -0.1194 -0.0568
 1553POPC   PO418758   9.969  24.623  15.094 -0.0707 -0.3880  0.0639
 1553POPC   GL118759  10.033  24.717  15.436 -0.0255 -0.2164 -0.1626
 1553POPC   GL218760   9.810  24.930  15.442 -0.0974  0.1011  0.1070
 1553POPC   C1A18761   9.813  24.500  15.800  0.0560  0.0812 -0.0544
 1553POPC   D2A18762   9.543  24.407  16.223  0.1489  0.0993 -0.3264
 1553POPC   C3A18763   9.387  24.648  16.653 -0.0093 -0.0588  0.1010
 1553POPC   C4A18764   9.550  24.712  17.076  0.0868  0.0390 -0.3996
 1553POPC   C1B18765   9.884  25.110  15.810 -0.2261  0.0448 -0.2311
 1553POPC   C2B18766   9.836  25.341  16.235 -0.2158  0.0592 -0.0056
 1553POPC   C3B18767   9.675  25.666  16.537  0.1092  0.3236 -0.4370
 1553POPC   C4B18768   9.269  25.760  16.743  0.1710  0.0444 -0.0766
 1554POPC   NC318769   0.057  11.954  15.100  0.0297  0.0296  0.0726
 1554POPC   PO418770  -0.297  11.842  15.269  0.0437 -0.1916 -0.4462
 1554POPC   GL118771  -0.100  11.972  15.568  0.0969  0.4216  0.3942
 1554POPC   GL218772   0.237  11.902  15.548  0.1346 -0.2448 -0.1774
 1554POPC   C1A18773  -0.042  11.945  16.009  0.2552  0.0988 -0.3027
 1554POPC   D2A18774   0.140  12.185  16.365 -0.1182 -0.1906 -0.1507
 1554POPC   C3A18775   0.049  11.856  16.695  0.4487  0.3371 -0.1167
 1554POPC   C4A18776  -0.268  11.948  17.090 -0.1133  0.1892 -0.0964
 1554POPC   C1B18777   0.406  11.989  15.949  0.1139  0.1210  0.2282
 1554POPC   C2B18778   0.818  11.976  16.160  0.1503 -0.0201  0.4067
 1554POPC   C3B18779   0.986  12.052  16.598 -0.0134  0.0361  0.2009
 1554POPC   C4B18780   1.118  12.208  17.032 -0.0402 -0.3654 -0.0108
 1555POPC   NC318781   7.883  11.694  14.586 -0.0308  0.0445  0.0797
 1555POPC   PO418782   7.948  12.061  14.632 -0.3162 -0.0869 -0.2267
 1555POPC   GL118783   7.800  12.068  14.993  0.0508 -0.1181  0.1766
 1555POPC   GL218784   7.590  11.929  15.119  0.1854 -0.2675 -0.2185
 1555POPC   C1A18785   8.053  11.916  15.350  0.2000  0.0993 -0.0049
 1555POPC   D2A18786   8.016  11.910  15.816  0.1096  0.0637 -0.0896
 1555POPC   C3A18787   7.979  12.414  15.925  0.1665 -0.1364 -0.0261
 1555POPC   C4A18788   7.983  12.793  16.185  0.1505  0.0921 -0.0655
 1555POPC   C1B18789   7.557  11.985  15.549  0.0952 -0.0647  0.2745
 1555POPC   C2B18790   7.464  12.327  15.807  0.2772 -0.1170 -0.1620
 1555POPC   C3B18791   7.531  12.743  15.968 -0.2347 -0.3264  0.2709
 1555POPC   C4B18792   7.541  13.094  15.680  0.0922 -0.2133  0.0275
 1556POPC   NC318793  15.446  31.046  14.968 -0.1240  0.3617 -0.2685
 1556POPC   PO418794  15.334  30.667  14.910 -0.0144  0.0927 -0.1745
 1556POPC   GL118795  15.295  30.737  15.330  0.3930  0.0662  0.0301
 1556POPC   GL218796  15.346  30.515  15.540 -0.0506  0.0535  0.1887
 1556POPC   C1A18797  15.193  30.882  15.746 -0.1548  0.1101  0.0845
 1556POPC   D2A18798  15.220  30.907  16.168  0.1651  0.1363 -0.0025
 1556POPC   C3A18799  15.402  30.627  16.501 -0.0699  0.3183  0.1594
 1556POPC   C4A18800  15.453  30.510  16.951 -0.0446 -0.0514 -0.1397
 1556POPC   C1B18801  15.478  30.465  15.941  0.0634  0.1815  0.3738
 1556POPC   C2B18802  15.770  30.236  16.203  0.1295  0.1436 -0.1016
 1556POPC   C3B18803  16.016  30.038  16.483 -0.1366  0.2918 -0.1436
 1556POPC   C4B18804  16.240  29.874  16.890  0.1597  0.1175 -0.0253
 1557POPC   NC318805   2.295   5.670  14.748 -0.1464  0.1241  0.1506
 1557POPC   PO418806   2.411   5.810  15.054 -0.2434 -0.1726 -0.0500
 1557POPC   GL118807   2.343   5.579  15.422 -0.1225 -0.3751 -0.0642
 1557POPC   GL218808   2.148   5.465  15.593  0.1635  0.2881  0.1573
 1557POPC   C1A18809   2.601   5.276  15.626  0.1780 -0.2401  0.2300
 1557POPC   D2A18810   2.983   4.991  15.759  0.2926  0.0245 -0.0494
 1557POPC   C3A18811   3.084   4.745  16.082  0.1954 -0.1592 -0.0083
 1557POPC   C4A18812   3.182   4.503  16.496 -0.0926  0.0994 -0.0515
 1557POPC   C1B18813   2.346   5.515  16.013  0.1833 -0.1830  0.1914
 1557POPC   C2B18814   2.609   5.311  16.318  0.0136 -0.1523 -0.0499
 1557POPC   C3B18815   2.880   5.407  16.691  0.0416 -0.1681  0.0416
 1557POPC   C4B18816   3.302   5.415  16.907  0.2012 -0.1969  0.0484
 1558POPC   NC318817  15.718  19.694  15.248  0.0788  0.4475  0.3567
 1558POPC   PO418818  15.976  19.534  15.498 -0.0543 -0.4190 -0.0984
 1558POPC   GL118819  16.147  19.393  15.794 -0.3443  0.2381 -0.2104
 1558POPC   GL218820  16.019  19.646  15.984 -0.2559 -0.0213 -0.1601
 1558POPC   C1A18821  16.320  19.225  16.204 -0.1941 -0.0625 -0.1765
 1558POPC   D2A18822  16.224  19.154  16.629 -0.3168  0.1129 -0.2361
 1558POPC   C3A18823  15.826  19.035  16.801 -0.3771 -0.2632 -0.2199
 1558POPC   C4A18824  15.432  18.968  17.061 -0.0529 -0.5200 -0.0617
 1558POPC   C1B18825  16.335  19.973  16.168 -0.3484 -0.0491  0.2524
 1558POPC   C2B18826  16.644  20.150  16.448  0.2279  0.0364  0.1570
 1558POPC   C3B18827  16.803  20.438  16.731 -0.0390  0.1304 -0.0775
 1558POPC   C4B18828  16.846  20.879  16.711 -0.2690  0.1798 -0.1815
 1559POPC   NC318829   1.097   6.057  15.331  0.3638  0.0472  0.0093
 1559POPC   PO418830   0.944   6.273  15.611 -0.0143 -0.0313 -0.1007
 1559POPC   GL118831   0.754   6.201  15.947  0.2200  0.0423 -0.0515
 1559POPC   GL218832   0.731   6.429  16.141 -0.0266 -0.1436 -0.0825
 1559POPC   C1A18833   0.913   5.984  16.336  0.0842  0.0342 -0.1468
 1559POPC   D2A18834   0.749   5.893  16.748  0.0783  0.1127  0.0821
 1559POPC   C3A18835   1.002   5.794  17.065 -0.1291 -0.3173 -0.2036
 1559POPC   C4A18836   1.142   5.359  17.232  0.3036  0.0546 -0.2565
 1559POPC   C1B18837   0.672   6.404  16.602 -0.2286  0.1838  0.0266
 1559POPC   C2B18838   0.796   6.524  17.068  0.5396  0.1665 -0.2703
 1559POPC   C3B18839   0.601   6.554  17.515 -0.3083 -0.0835 -0.0350
 1559POPC   C4B18840   0.466   6.473  17.935  0.3012 -0.1157  0.0419
 1560POPC   NC318841  13.358  28.138  15.140  0.2553  0.0134  0.1066
 1560POPC   PO418842  12.996  28.233  15.268 -0.1571 -0.2501 -0.0661
 1560POPC   GL118843  13.175  28.126  15.595  0.1615  0.0331  0.3824
 1560POPC   GL218844  13.367  27.953  15.634 -0.1766 -0.0693 -0.1412
 1560POPC   C1A18845  13.244  28.353  16.011  0.2899 -0.1616 -0.0303
 1560POPC   D2A18846  13.125  28.423  16.462 -0.0503 -0.3142  0.2550
 1560POPC   C3A18847  13.168  28.695  16.852 -0.1019  0.1809  0.1350
 1560POPC   C4A18848  12.918  28.822  17.258  0.4592  0.0665 -0.1224
 1560POPC   C1B18849  13.422  27.784  16.070 -0.2884  0.1401 -0.1651
 1560POPC   C2B18850  13.323  27.891  16.486  0.3741 -0.0988  0.2064
 1560POPC   C3B18851  13.211  27.952  16.947  0.0498 -0.0895  0.1769
 1560POPC   C4B18852  13.488  27.829  17.334  0.0716 -0.1728 -0.0482
 1561POPC   NC318853  13.890   5.779  15.227 -0.2022 -0.0128  0.0140
 1561POPC   PO418854  14.074   5.699  15.552  0.0082  0.2207 -0.1615
 1561POPC   GL118855  14.064   5.622  15.968  0.0462 -0.1205  0.4475
 1561POPC   GL218856  13.965   5.920  16.062 -0.2230  0.0415 -0.0201
 1561POPC   C1A18857  13.749   5.481  16.282  0.2940 -0.0260  0.2229
 1561POPC   D2A18858  13.622   5.427  16.731 -0.1550  0.1287 -0.0867
 1561POPC   C3A18859  13.602   5.411  17.235 -0.0956  0.0366  0.0119
 1561POPC   C4A18860  13.671   5.305  17.678  0.1983  0.1227  0.1485
 1561POPC   C1B18861  13.801   6.012  16.547  0.1292  0.2366 -0.3838
 1561POPC   C2B18862  13.811   5.813  16.987 -0.2383 -0.3170  0.1261
 1561POPC   C3B18863  14.067   5.705  17.399 -0.1457  0.3233  0.3642
 1561POPC   C4B18864  14.193   5.261  17.504 -0.2323 -0.1761 -0.1331
 1562POPC   NC318865   9.590  14.611  15.022  0.0527 -0.2501 -0.0780
 1562POPC   PO418866   9.416  14.272  15.109 -0.1117  0.0916  0.3254
 1562POPC   GL118867   9.314  13.937  15.333 -0.0254  0.0381 -0.1669
 1562POPC   GL218868   9.602  13.987  15.487 -0.0912  0.1502  0.1792
 1562POPC   C1A18869   9.167  14.191  15.702  0.1813  0.1847 -0.0581
 1562POPC   D2A18870   9.244  14.171  16.176  0.0990  0.5869 -0.0557
 1562POPC   C3A18871   9.023  14.259  16.591 -0.2621  0.0295  0.0244
 1562POPC   C4A18872   8.910  14.461  16.977 -0.1321 -0.2675 -0.1706
 1562POPC   C1B18873   9.679  13.945  15.950 -0.0341  0.0203  0.1257
 1562POPC   C2B18874   9.660  13.990  16.384 -0.0067  0.0708 -0.0043
 1562POPC   C3B18875   9.431  14.104  16.777  0.1662 -0.0551  0.1602
 1562POPC   C4B18876   9.058  14.050  17.092 -0.4261  0.2913  0.0158
 1563POPC   NC318877   3.178  16.166  15.523  0.1121  0.1137 -0.0626
 1563POPC   PO418878   3.489  16.008  15.331  0.0170  0.0336 -0.1021
 1563POPC   GL118879   3.820  16.043  15.641 -0.3779 -0.1438  0.2904
 1563POPC   GL218880   3.877  15.765  15.568 -0.2286 -0.0086  0.4605
 1563POPC   C1A18881   3.986  15.872  16.034 -0.2337  0.2879  0.1129
 1563POPC   D2A18882   4.321  15.556  16.199 -0.2676 -0.3060 -0.0139
 1563POPC   C3A18883   4.379  15.425  16.617 -0.3742  0.0354  0.0394
 1563POPC   C4A18884   4.530  15.381  17.058 -0.2899 -0.3507 -0.1245
 1563POPC   C1B18885   3.582  15.395  15.657 -0.0038 -0.0745  0.0948
 1563POPC   C2B18886   3.651  14.988  15.844  0.0287  0.2061 -0.2003
 1563POPC   C3B18887   3.533  14.908  16.272 -0.2307 -0.0506  0.1093
 1563POPC   C4B18888   3.462  14.858  16.722 -0.0633  0.1463  0.2517
 1564POPC   NC318889  11.633  27.028  15.653  0.0227 -0.2758  0.1539
 1564POPC   PO418890  12.012  27.122  15.553 -0.2339  0.0919  0.0371
 1564POPC   GL118891  12.105  27.095  15.971  0.0420  0.1436 -0.0505
 1564POPC   GL218892  11.958  26.847  16.036 -0.2735 -0.2074 -0.0340
 1564POPC   C1A18893  12.262  27.419  16.253 -0.0783 -0.0718  0.0311
 1564POPC   D2A18894  12.609  27.383  16.576 -0.0597  0.1518  0.2569
 1564POPC   C3A18895  12.743  27.276  17.006 -0.2791  0.0431  0.0344
 1564POPC   C4A18896  12.581  27.402  17.476 -0.1113 -0.0318  0.3843
 1564POPC   C1B18897  12.162  26.968  16.413  0.1419  0.1166 -0.2455
 1564POPC   C2B18898  12.301  27.164  16.829  0.3165  0.2750 -0.0188
 1564POPC   C3B18899  12.303  27.572  17.057 -0.4133 -0.2819  0.0576
 1564POPC   C4B18900  12.719  27.756  17.017  0.1026 -0.0822 -0.0777
 1565POPC   NC318901   1.208  22.774  14.691  0.1009  0.0743  0.1199
 1565POPC   PO418902   1.398  22.844  15.040  0.0351  0.1901 -0.0169
 1565POPC   GL118903   1.349  22.962  15.369 -0.0898 -0.2140  0.2905
 1565POPC   GL218904   1.179  22.833  15.460 -0.2522  0.2641  0.1192
 1565POPC   C1A18905   1.556  23.075  15.767 -0.0607  0.0830  0.3274
 1565POPC   D2A18906   1.803  23.022  16.170 -0.3363  0.0419  0.3369
 1565POPC   C3A18907   1.604  23.355  16.494 -0.1122 -0.1175  0.1753
 1565POPC   C4A18908   1.417  23.647  16.777 -0.0360 -0.2773 -0.0991
 1565POPC   C1B18909   1.070  22.992  15.915  0.0831 -0.2014  0.5444
 1565POPC   C2B18910   1.332  23.024  16.272  0.1837  0.2990  0.0523
 1565POPC   C3B18911   1.639  22.851  16.568 -0.1836  0.0730 -0.0603
 1565POPC   C4B18912   1.855  23.064  16.980  0.1096  0.0964  0.2055
 1566POPC   NC318913  10.141  17.595  15.166  0.3075 -0.2096  0.1134
 1566POPC   PO418914  10.435  17.838  15.069 -0.2444 -0.2926  0.0049
 1566POPC   GL118915  10.431  17.796  15.482  0.0846  0.1246  0.1711
 1566POPC   GL218916  10.207  17.891  15.621  0.2586  0.2537  0.1064
 1566POPC   C1A18917  10.577  17.705  15.959 -0.2814 -0.0221  0.2628
 1566POPC   D2A18918  10.706  17.818  16.385  0.1889  0.2532 -0.1004
 1566POPC   C3A18919  10.963  18.153  16.625 -0.0857  0.1506 -0.3841
 1566POPC   C4A18920  11.245  18.403  16.919  0.1122  0.0188 -0.0738
 1566POPC   C1B18921  10.192  18.037  16.050  0.3675  0.0633 -0.0822
 1566POPC   C2B18922  10.387  18.238  16.444  0.4032 -0.0368 -0.1337
 1566POPC   C3B18923  10.502  18.093  16.849 -0.0681 -0.0509  0.1298
 1566POPC   C4B18924  10.470  18.131  17.324  0.1497  0.2399  0.0945
 1567POPC   NC318925   7.827  23.741  15.562 -0.1233 -0.2146  0.5436
 1567POPC   PO418926   7.649  24.047  15.441  0.1091  0.1094  0.3952
 1567POPC   GL118927   7.709  24.257  15.778  0.0417 -0.0263  0.0837
 1567POPC   GL218928   7.503  24.122  15.917  0.0315  0.0587 -0.0449
 1567POPC   C1A18929   7.813  24.417  16.177  0.1055  0.2532 -0.4726
 1567POPC   D2A18930   7.833  24.577  16.587 -0.1127  0.0218 -0.2533
 1567POPC   C3A18931   8.087  24.479  16.925 -0.2709  0.1672 -0.0741
 1567POPC   C4A18932   8.429  24.553  17.242  0.0224 -0.0213 -0.0022
 1567POPC   C1B18933   7.720  23.852  16.232 -0.0657  0.0870 -0.3373
 1567POPC   C2B18934   8.034  23.781  16.539  0.1445 -0.1194  0.1305
 1567POPC   C3B18935   8.135  23.579  16.919  0.1175  0.0064 -0.3341
 1567POPC   C4B18936   8.096  23.165  17.106 -0.1753  0.0852 -0.1438
 1568POPC   NC318937   8.656   2.463  15.495 -0.0077  0.1515 -0.0981
 1568POPC   PO418938   8.528   2.107  15.456  0.1489  0.1557  0.4357
 1568POPC   GL118939   8.243   2.340  15.752  0.2378  0.4482  0.2749
 1568POPC   GL218940   8.513   2.365  16.008 -0.0452 -0.0227  0.0727
 1568POPC   C1A18941   7.907   2.214  15.977  0.0854  0.0958  0.0011
 1568POPC   D2A18942   7.731   1.931  16.318  0.3077 -0.0947 -0.2242
 1568POPC   C3A18943   7.536   1.637  16.716  0.2180 -0.1620 -0.0675
 1568POPC   C4A18944   7.227   1.328  16.901 -0.2944  0.0351  0.0671
 1568POPC   C1B18945   8.480   2.694  16.313 -0.2081 -0.3040  0.2855
 1568POPC   C2B18946   8.596   2.668  16.778 -0.1906  0.0215  0.1161
 1568POPC   C3B18947   8.592   2.406  17.106  0.2770 -0.2888  0.4534
 1568POPC   C4B18948   8.752   2.008  17.252 -0.0645 -0.1128 -0.1041
 1569POPC   NC318949   2.840   5.553  14.747  0.0088  0.1872  0.1244
 1569POPC   PO418950   2.890   5.687  15.105  0.0618  0.1429 -0.2018
 1569POPC   GL118951   2.986   5.596  15.472 -0.2161 -0.0234 -0.0232
 1569POPC   GL218952   2.789   5.739  15.605  0.2325  0.1840 -0.0470
 1569POPC   C1A18953   3.297   5.417  15.720  0.0363  0.1761 -0.2056
 1569POPC   D2A18954   3.657   5.347  15.996 -0.0569  0.1051 -0.2984
 1569POPC   C3A18955   3.801   5.557  16.361 -0.1879  0.1494  0.2588
 1569POPC   C4A18956   3.839   5.547  16.825 -0.0700  0.1474 -0.0450
 1569POPC   C1B18957   2.910   5.559  16.015  0.0509 -0.3331  0.0755
 1569POPC   C2B18958   3.191   5.233  16.212 -0.2899  0.1587 -0.0322
 1569POPC   C3B18959   2.996   4.942  16.478  0.0559  0.2341 -0.0811
 1569POPC   C4B18960   2.821   4.671  16.838 -0.1228 -0.0877 -0.0287
 1570POPC   NC318961   8.504   1.073  14.745  0.2120 -0.0392 -0.0109
 1570POPC   PO418962   8.798   1.201  14.944 -0.1416 -0.0987  0.0374
 1570POPC   GL118963   8.680   1.189  15.341  0.1267  0.0709 -0.1135
 1570POPC   GL218964   8.932   1.261  15.489  0.1728 -0.1843  0.2571
 1570POPC   C1A18965   8.251   1.095  15.601 -0.1827 -0.2275 -0.2221
 1570POPC   D2A18966   7.925   1.316  15.858  0.0665  0.1721 -0.1317
 1570POPC   C3A18967   7.951   1.486  16.274 -0.0087 -0.0182 -0.0156
 1570POPC   C4A18968   8.021   1.770  16.638 -0.2715  0.1772  0.1280
 1570POPC   C1B18969   8.847   1.106  15.928  0.3630  0.1155 -0.2076
 1570POPC   C2B18970   8.798   0.853  16.283  0.1974 -0.0755 -0.0208
 1570POPC   C3B18971   8.849   0.689  16.716 -0.4131  0.3071 -0.1493
 1570POPC   C4B18972   8.686   0.510  17.126 -0.0080  0.0598  0.2410
 1571POPC   NC318973   2.220  13.147  15.134 -0.0172 -0.2144  0.1438
 1571POPC   PO418974   2.559  13.032  15.335  0.3260  0.0483  0.3075
 1571POPC   GL118975   2.517  12.970  15.683  0.1974 -0.3493 -0.2692
 1571POPC   GL218976   2.804  12.850  15.814 -0.0496  0.1641 -0.0845
 1571POPC   C1A18977   2.416  12.703  16.084 -0.1683 -0.2324  0.1209
 1571POPC   D2A18978   2.417  12.278  16.327 -0.0945 -0.0067  0.0748
 1571POPC   C3A18979   2.499  12.346  16.727 -0.1120 -0.0987 -0.0054
 1571POPC   C4A18980   2.583  12.156  17.171 -0.1121 -0.2422  0.3383
 1571POPC   C1B18981   2.893  12.930  16.283 -0.0609  0.0468 -0.0378
 1571POPC   C2B18982   3.291  12.911  16.481 -0.1965 -0.1137  0.1398
 1571POPC   C3B18983   3.561  12.553  16.387  0.0233  0.1929 -0.2262
 1571POPC   C4B18984   3.671  12.105  16.291  0.1405 -0.2414  0.1602
 1572POPC   NC318985   5.926  31.592  14.297 -0.1438  0.2080  0.1225
 1572POPC   PO418986   5.718  31.275  14.448 -0.4533  0.0461 -0.1106
 1572POPC   GL118987   5.830  31.219  14.827 -0.1828  0.0627  0.2991
 1572POPC   GL218988   5.788  30.983  15.014  0.2236  0.1578 -0.3791
 1572POPC   C1A18989   6.013  31.390  15.239  0.1594  0.0591 -0.0244
 1572POPC   D2A18990   6.267  31.397  15.612 -0.1279  0.0949 -0.1875
 1572POPC   C3A18991   5.998  31.353  15.996  0.0092 -0.1552  0.2277
 1572POPC   C4A18992   5.541  31.522  16.081 -0.0996 -0.0364 -0.1376
 1572POPC   C1B18993   5.416  31.169  15.146 -0.1287 -0.1367 -0.3884
 1572POPC   C2B18994   4.967  31.109  15.111 -0.0660 -0.1698  0.1588
 1572POPC   C3B18995   4.632  30.989  14.850  0.2724  0.2012 -0.1146
 1572POPC   C4B18996   4.234  31.210  14.819  0.0837  0.0592 -0.2511
 1573POPC   NC318997  13.197  10.303  15.134 -0.3879 -0.1943 -0.0528
 1573POPC   PO418998  13.533  10.520  15.089 -0.1113  0.1627 -0.0868
 1573POPC   GL118999  13.469  10.430  15.485 -0.3887 -0.3002 -0.0442
 1573POPC   GL219000  13.422  10.723  15.569  0.2888 -0.2014  0.1524
 1573POPC   C1A19001  13.274  10.410  15.904 -0.0144  0.1323 -0.0191
 1573POPC   D2A19002  13.347  10.442  16.362  0.0704 -0.2880  0.1071
 1573POPC   C3A19003  13.216  10.698  16.724  0.2220 -0.0037 -0.3735
 1573POPC   C4A19004  13.245  10.977  17.078 -0.0069  0.0819  0.3464
 1573POPC   C1B19005  13.573  10.825  16.078 -0.2441  0.0020  0.1918
 1573POPC   C2B19006  13.480  11.014  16.487 -0.2280 -0.1489  0.0341
 1573POPC   C3B19007  13.617  11.237  16.903 -0.0265 -0.1192 -0.0288
 1573POPC   C4B19008  13.582  11.150  17.418  0.0213  0.0691  0.1126
 1574POPC   NC319009   7.412  22.504  14.395  0.0361  0.1172  0.0746
 1574POPC   PO419010   7.658  22.628  14.708  0.2089 -0.1512  0.3714
 1574POPC   GL119011   7.667  22.859  15.064 -0.1019 -0.1115 -0.1607
 1574POPC   GL219012   7.667  23.141  15.296 -0.1119  0.0284 -0.1967
 1574POPC   C1A19013   7.395  22.707  15.369  0.4694  0.3674 -0.3620
 1574POPC   D2A19014   7.297  22.527  15.857  0.1956 -0.1291 -0.1008
 1574POPC   C3A19015   7.178  22.150  16.007 -0.1180  0.0591  0.3378
 1574POPC   C4A19016   7.128  21.968  16.428  0.0880 -0.1209 -0.2241
 1574POPC   C1B19017   7.883  23.283  15.691  0.0413 -0.1507 -0.2008
 1574POPC   C2B19018   8.094  23.466  16.018 -0.1924 -0.0271  0.2881
 1574POPC   C3B19019   8.079  23.221  16.389 -0.0040  0.1724  0.3495
 1574POPC   C4B19020   8.386  23.165  16.726  0.1443  0.4154 -0.0944
 1575POPC   NC319021   1.210  20.127  15.162  0.1443  0.2992 -0.0936
 1575POPC   PO419022   1.585  20.124  14.999 -0.0001  0.0269  0.1722
 1575POPC   GL119023   1.642  20.049  15.359  0.3459  0.2338 -0.0726
 1575POPC   GL219024   1.814  20.239  15.493 -0.1480 -0.0518  0.1105
 1575POPC   C1A19025   1.286  19.953  15.620  0.1154 -0.2616  0.0377
 1575POPC   D2A19026   0.958  20.018  15.953 -0.2659 -0.2737  0.2546
 1575POPC   C3A19027   0.871  20.454  15.947  0.0059 -0.3546 -0.3610
 1575POPC   C4A19028   1.066  20.826  16.211  0.1272  0.1548 -0.0641
 1575POPC   C1B19029   1.764  19.928  15.797  0.0050  0.0127 -0.0503
 1575POPC   C2B19030   1.386  19.831  16.087 -0.1721 -0.2566 -0.0556
 1575POPC   C3B19031   1.210  19.900  16.476  0.0240 -0.0527  0.0753
 1575POPC   C4B19032   1.379  19.889  16.909 -0.1107 -0.1386 -0.1175
 1576POPC   NC319033   9.541  11.702  15.756 -0.0982  0.1362  0.0117
 1576POPC   PO419034   9.239  11.498  15.788  0.1450 -0.1136 -0.0858
 1576POPC   GL119035   8.929  11.686  15.989  0.1899 -0.3098  0.2333
 1576POPC   GL219036   8.982  11.500  16.226 -0.3241  0.2426  0.0243
 1576POPC   C1A19037   8.753  11.933  16.318  0.2829  0.0964  0.2004
 1576POPC   D2A19038   8.465  12.002  16.668 -0.0747  0.0611  0.2053
 1576POPC   C3A19039   8.456  12.439  16.844 -0.2037 -0.0100  0.1988
 1576POPC   C4A19040   8.930  12.691  16.934 -0.2017 -0.1377 -0.1942
 1576POPC   C1B19041   8.858  11.657  16.667 -0.0398  0.1867 -0.3619
 1576POPC   C2B19042   8.629  11.700  17.081  0.2133  0.1341  0.1430
 1576POPC   C3B19043   8.438  12.032  17.243  0.0240  0.1790  0.0004
 1576POPC   C4B19044   8.147  12.292  17.152  0.3795  0.0122  0.0664
 1577POPC   NC319045   1.048  29.645  15.079 -0.0777 -0.0533 -0.0590
 1577POPC   PO419046   1.160  29.763  15.441 -0.3341  0.1346 -0.1161
 1577POPC   GL119047   1.263  29.638  15.755 -0.0230  0.0474  0.2523
 1577POPC   GL219048   0.978  29.538  15.854 -0.0631  0.0549 -0.1651
 1577POPC   C1A19049   1.405  29.237  15.986  0.0837 -0.1475  0.3609
 1577POPC   D2A19050   1.373  28.927  16.284  0.4413 -0.0902 -0.0229
 1577POPC   C3A19051   1.434  29.015  16.702 -0.0029 -0.3131 -0.1888
 1577POPC   C4A19052   1.475  29.131  17.153 -0.0642 -0.0157 -0.1138
 1577POPC   C1B19053   1.322  29.709  16.222  0.2616 -0.1809  0.1687
 1577POPC   C2B19054   1.632  29.945  16.525  0.1350 -0.1711  0.0429
 1577POPC   C3B19055   1.724  30.143  16.904  0.0398  0.3202 -0.3521
 1577POPC   C4B19056   1.834  30.029  17.328  0.3948 -0.1658 -0.1693
 1578POPC   NC319057  13.611   3.449  15.516  0.0455  0.2704 -0.2541
 1578POPC   PO419058  13.964   3.293  15.408  0.2863 -0.1043 -0.2313
 1578POPC   GL119059  13.997   3.402  15.801  0.0558 -0.0030  0.7118
 1578POPC   GL219060  14.240   3.370  15.986  0.2334 -0.0036 -0.1107
 1578POPC   C1A19061  13.785   3.725  16.097  0.1958  0.3113 -0.2639
 1578POPC   D2A19062  13.880   3.667  16.545 -0.2451  0.0733  0.0047
 1578POPC   C3A19063  13.683   3.475  16.923  0.0958  0.1450  0.0276
 1578POPC   C4A19064  13.931   3.166  17.186 -0.3617  0.0711 -0.2172
 1578POPC   C1B19065  13.985   3.202  16.312  0.1019 -0.2665 -0.0499
 1578POPC   C2B19066  13.629   3.017  16.464 -0.2007 -0.0383 -0.0305
 1578POPC   C3B19067  13.649   2.783  16.850  0.1841 -0.0904  0.2288
 1578POPC   C4B19068  13.888   2.564  17.189  0.0629  0.2312 -0.0946
 1579POPC   NC319069   5.744  15.877  15.309  0.2570 -0.3141  0.1287
 1579POPC   PO419070   5.490  16.004  15.566  0.0214 -0.0820  0.1851
 1579POPC   GL119071   5.342  16.134  15.870  0.0293 -0.1576 -0.0754
 1579POPC   GL219072   5.512  16.392  15.910 -0.1096  0.0426 -0.0976
 1579POPC   C1A19073   4.966  16.261  16.151  0.1821 -0.0096  0.1101
 1579POPC   D2A19074   4.804  16.262  16.656 -0.1477  0.0845  0.3859
 1579POPC   C3A19075   4.448  16.385  16.985  0.0533  0.1448  0.1574
 1579POPC   C4A19076   4.385  16.223  17.425  0.2259 -0.0810  0.0098
 1579POPC   C1B19077   5.528  16.385  16.361 -0.0022 -0.4059  0.1292
 1579POPC   C2B19078   5.392  16.461  16.804 -0.1747 -0.1669  0.1090
 1579POPC   C3B19079   5.393  16.914  16.989  0.0323 -0.2169  0.3929
 1579POPC   C4B19080   5.141  17.152  17.234  0.0596  0.0003 -0.1741
 1580POPC   NC319081   8.447  22.602  15.126  0.0524 -0.2730 -0.1748
 1580POPC   PO419082   8.131  22.795  15.234  0.0606  0.0016  0.0179
 1580POPC   GL119083   8.141  22.612  15.599  0.2549 -0.1433  0.0677
 1580POPC   GL219084   7.844  22.707  15.646  0.0278  0.2139 -0.0661
 1580POPC   C1A19085   8.257  22.534  16.036  0.0703  0.2181  0.3046
 1580POPC   D2A19086   8.338  22.749  16.433  0.3783 -0.2325 -0.1359
 1580POPC   C3A19087   8.242  22.653  16.886  0.0702 -0.1388  0.0487
 1580POPC   C4A19088   7.946  22.557  17.240  0.3521 -0.1923 -0.0006
 1580POPC   C1B19089   8.020  22.939  15.980  0.0920 -0.0425  0.0377
 1580POPC   C2B19090   8.437  23.083  16.043  0.0814 -0.3776  0.0806
 1580POPC   C3B19091   8.661  23.408  16.252  0.2610  0.2062 -0.1598
 1580POPC   C4B19092   8.964  23.320  16.577 -0.3074 -0.1529 -0.0884
 1581POPC   NC319093  12.297  29.571  15.733 -0.1387 -0.1313  0.0045
 1581POPC   PO419094  12.126  29.921  15.621 -0.2073  0.0576  0.2223
 1581POPC   GL119095  12.204  29.987  15.988  0.2352  0.1032  0.3438
 1581POPC   GL219096  12.494  30.099  16.085 -0.0790  0.0615 -0.1288
 1581POPC   C1A19097  12.035  30.275  16.293 -0.0540 -0.0762  0.1588
 1581POPC   D2A19098  12.148  30.637  16.618 -0.0785  0.0828  0.1070
 1581POPC   C3A19099  11.991  30.823  16.970 -0.1140 -0.0076 -0.0611
 1581POPC   C4A19100  12.080  31.084  17.245  0.1415  0.1101 -0.0461
 1581POPC   C1B19101  12.625  30.494  16.287 -0.3180  0.1067  0.1050
 1581POPC   C2B19102  12.638  30.574  16.699  0.1275 -0.1018 -0.0615
 1581POPC   C3B19103  12.711  30.811  17.086 -0.0192 -0.1180 -0.0460
 1581POPC   C4B19104  12.914  31.110  17.338 -0.1241 -0.1236  0.2425
 1582POPC   NC319105  13.478  25.679  15.744 -0.0183  0.0515  0.1026
 1582POPC   PO419106  13.807  25.788  15.463  0.3445 -0.3557 -0.3081
 1582POPC   GL119107  13.951  25.603  15.776  0.0705 -0.0017 -0.2095
 1582POPC   GL219108  14.074  25.834  15.970 -0.1334  0.3749  0.0007
 1582POPC   C1A19109  13.739  25.223  15.997 -0.1749 -0.0488  0.1562
 1582POPC   D2A19110  13.729  24.941  16.349  0.1322  0.3245 -0.0309
 1582POPC   C3A19111  13.775  24.836  16.807  0.3218  0.0337  0.0594
 1582POPC   C4A19112  14.042  24.767  17.147 -0.0074 -0.1169 -0.0207
 1582POPC   C1B19113  14.115  25.476  16.231  0.1605 -0.1618 -0.0370
 1582POPC   C2B19114  13.915  25.352  16.662  0.0553 -0.0285 -0.0259
 1582POPC   C3B19115  13.980  25.258  17.102 -0.0285 -0.2023 -0.0137
 1582POPC   C4B19116  14.113  25.516  17.508  0.1576 -0.5206 -0.1717
 1583POPC   NC319117   5.792  14.225  15.345 -0.1048  0.1935 -0.3052
 1583POPC   PO419118   6.020  14.501  15.469 -0.3428 -0.0408  0.0369
 1583POPC   GL119119   6.122  14.617  15.871  0.1527  0.2767 -0.0047
 1583POPC   GL219120   5.904  14.822  15.904  0.1849  0.2401  0.0770
 1583POPC   C1A19121   6.001  14.481  16.307  0.0551 -0.1304  0.1377
 1583POPC   D2A19122   6.293  14.503  16.683 -0.0079 -0.0065  0.2523
 1583POPC   C3A19123   6.044  14.537  17.079 -0.0181 -0.1272  0.2486
 1583POPC   C4A19124   5.854  14.771  17.383  0.0131 -0.3457  0.1309
 1583POPC   C1B19125   5.966  15.102  16.242  0.2909  0.2332 -0.1028
 1583POPC   C2B19126   5.984  14.983  16.723 -0.3929  0.0469  0.0900
 1583POPC   C3B19127   6.043  15.200  17.177 -0.3331  0.1066  0.0293
 1583POPC   C4B19128   5.894  15.201  17.636 -0.0499  0.0523 -0.2362
 1584POPC   NC319129   4.861   7.414  15.542 -0.2257 -0.1532  0.1057
 1584POPC   PO419130   4.634   7.639  15.293 -0.1291  0.0768  0.3337
 1584POPC   GL119131   4.814   7.881  15.527 -0.2008  0.2202  0.1567
 1584POPC   GL219132   5.104   7.849  15.640 -0.2053  0.1085  0.0816
 1584POPC   C1A19133   4.664   8.245  15.765  0.2683  0.6344 -0.1999
 1584POPC   D2A19134   4.901   8.319  16.089 -0.0653 -0.2767 -0.1462
 1584POPC   C3A19135   4.757   8.491  16.546  0.2932 -0.1641 -0.1734
 1584POPC   C4A19136   4.803   8.529  16.980 -0.0097 -0.1596 -0.2831
 1584POPC   C1B19137   5.269   7.868  16.079  0.1561  0.2898 -0.3919
 1584POPC   C2B19138   5.673   7.888  16.331 -0.4479 -0.2790  0.0039
 1584POPC   C3B19139   5.982   7.676  16.604  0.1250  0.1753  0.1056
 1584POPC   C4B19140   6.418   7.527  16.503  0.1014 -0.0193  0.0042
 1585POPC   NC319141  14.075   6.268  15.703 -0.2160 -0.0896  0.0853
 1585POPC   PO419142  14.414   6.463  15.777  0.0705 -0.0494  0.1260
 1585POPC   GL119143  14.306   6.204  16.102 -0.2807 -0.1863 -0.0589
 1585POPC   GL219144  14.196   6.330  16.321  0.1744  0.0031 -0.0112
 1585POPC   C1A19145  14.429   5.843  16.368 -0.1904 -0.1700  0.1785
 1585POPC   D2A19146  14.367   5.754  16.833 -0.0410  0.2072  0.1274
 1585POPC   C3A19147  14.516   5.354  17.006 -0.2104 -0.3404 -0.1408
 1585POPC   C4A19148  14.820   5.306  17.338 -0.0197 -0.2748 -0.0901
 1585POPC   C1B19149  14.200   6.253  16.804  0.2905 -0.0562 -0.0153
 1585POPC   C2B19150  14.361   6.167  17.236 -0.1402  0.0936 -0.0177
 1585POPC   C3B19151  14.789   6.177  17.492 -0.0575  0.1379  0.1938
 1585POPC   C4B19152  15.048   5.796  17.589  0.2114 -0.0773 -0.0664
 1586POPC   NC319153  15.435   3.212  15.206 -0.0475 -0.1885  0.0447
 1586POPC   PO419154  15.589   3.528  15.051  0.0897 -0.0828 -0.1845
 1586POPC   GL119155  15.646   3.696  15.380 -0.2821 -0.2478 -0.2710
 1586POPC   GL219156  15.552   3.517  15.584  0.3075  0.1136  0.0332
 1586POPC   C1A19157  15.922   3.806  15.735  0.1845 -0.1728  0.0930
 1586POPC   D2A19158  16.042   4.075  16.094  0.2289  0.1664 -0.0480
 1586POPC   C3A19159  15.895   4.246  16.476 -0.0928 -0.0905 -0.1462
 1586POPC   C4A19160  15.599   4.178  16.825 -0.0631  0.0691 -0.2007
 1586POPC   C1B19161  15.589   3.526  16.042  0.0742 -0.4003 -0.0703
 1586POPC   C2B19162  15.830   3.736  16.399 -0.0132  0.2804 -0.1146
 1586POPC   C3B19163  15.984   3.878  16.845  0.0423 -0.2006  0.2055
 1586POPC   C4B19164  15.884   4.127  17.206 -0.1365 -0.5998  0.0066
 1587POPC   NC319165   5.559   2.101  15.013  0.0311 -0.1387 -0.0055
 1587POPC   PO419166   5.323   1.967  15.281  0.0494 -0.0432  0.0324
 1587POPC   GL119167   5.098   1.769  15.553  0.3439 -0.3766  0.4527
 1587POPC   GL219168   5.249   1.545  15.587  0.3002 -0.0719  0.2990
 1587POPC   C1A19169   4.978   1.682  15.981 -0.0999  0.0203 -0.1411
 1587POPC   D2A19170   5.203   1.455  16.305  0.0405 -0.3889  0.0451
 1587POPC   C3A19171   5.384   1.535  16.721 -0.2045  0.1127 -0.0143
 1587POPC   C4A19172   5.328   1.445  17.199  0.3203 -0.2098  0.3420
 1587POPC   C1B19173   5.542   1.567  15.909 -0.0084 -0.2320 -0.1612
 1587POPC   C2B19174   5.661   1.338  16.284 -0.3339 -0.1126  0.0433
 1587POPC   C3B19175   5.630   1.037  16.653 -0.2304 -0.1761 -0.0074
 1587POPC   C4B19176   5.606   0.939  17.124  0.3532  0.2478  0.0452
 1588POPC   NC319177  15.851   0.873  15.209  0.0587 -0.0707  0.1740
 1588POPC   PO419178  15.481   0.928  15.111 -0.0207  0.1517 -0.0310
 1588POPC   GL119179  15.567   1.060  15.499 -0.1990  0.0666  0.0938
 1588POPC   GL219180  15.375   1.290  15.460 -0.1706  0.1071 -0.1088
 1588POPC   C1A19181  15.438   0.876  15.890 -0.3096  0.0815 -0.3943
 1588POPC   D2A19182  15.245   0.559  16.195  0.2024 -0.0202 -0.2490
 1588POPC   C3A19183  15.024   0.809  16.540 -0.0337  0.0315 -0.1775
 1588POPC   C4A19184  14.973   0.892  17.006  0.0575  0.1158 -0.1473
 1588POPC   C1B19185  15.372   1.452  15.905  0.0933 -0.1653  0.0578
 1588POPC   C2B19186  15.324   1.232  16.303  0.0000  0.2625 -0.0075
 1588POPC   C3B19187  15.273   1.214  16.788  0.0385  0.1599  0.2213
 1588POPC   C4B19188  15.068   1.337  17.208  0.4207 -0.1649  0.0190
 1589POPC   NC319189  12.320  24.640  15.401  0.1071  0.2148 -0.1250
 1589POPC   PO419190  12.491  24.974  15.339 -0.0950 -0.0158  0.5092
 1589POPC   GL119191  12.534  24.894  15.775 -0.0646 -0.0273  0.1374
 1589POPC   GL219192  12.471  25.088  15.947 -0.0665  0.1304 -0.0302
 1589POPC   C1A19193  12.835  24.762  16.140  0.1275  0.2842 -0.1458
 1589POPC   D2A19194  12.984  24.670  16.601  0.0106 -0.0080  0.3528
 1589POPC   C3A19195  12.740  24.830  17.021 -0.4147 -0.1552 -0.1748
 1589POPC   C4A19196  12.678  24.628  17.461  0.1000 -0.1348 -0.0830
 1589POPC   C1B19197  12.105  24.869  16.137  0.2334 -0.3930 -0.1349
 1589POPC   C2B19198  11.778  24.817  16.506  0.2816  0.5015  0.4685
 1589POPC   C3B19199  11.537  24.761  16.910 -0.2864  0.3231 -0.2486
 1589POPC   C4B19200  11.230  24.467  17.129  0.0509 -0.2553  0.1810
 1590POPC   NC319201   7.729   0.492  15.153  0.3173  0.0964  0.0548
 1590POPC   PO419202   7.328   0.408  15.253 -0.0718 -0.0316 -0.0868
 1590POPC   GL119203   7.399   0.435  15.519 -0.1365 -0.3615  0.3389
 1590POPC   GL219204   7.459   0.223  15.717 -0.2460  0.4721 -0.1298
 1590POPC   C1A19205   7.076   0.479  15.862 -0.1716  0.1470  0.1929
 1590POPC   D2A19206   7.109   0.483  16.316 -0.1334 -0.0510 -0.1973
 1590POPC   C3A19207   6.749   0.492  16.657 -0.0616  0.0256  0.3448
 1590POPC   C4A19208   6.542   0.561  17.079 -0.0187 -0.2839  0.1985
 1590POPC   C1B19209   7.445   0.111  16.155 -0.0866 -0.0451 -0.1543
 1590POPC   C2B19210   7.683  -0.078  16.495 -0.0884 -0.0908 -0.0075
 1590POPC   C3B19211   7.597  -0.321  16.937  0.2708 -0.1270 -0.3754
 1590POPC   C4B19212   7.548  -0.331  17.430  0.1142 -0.0601  0.3225
 1591POPC   NC319213   9.377  13.795  14.831  0.0128  0.4613 -0.0815
 1591POPC   PO419214   9.683  13.693  15.063 -0.1487 -0.5289  0.2372
 1591POPC   GL119215   9.721  13.492  15.350  0.0200  0.1904 -0.0251
 1591POPC   GL219216   9.799  13.235  15.357 -0.1541 -0.2136  0.0287
 1591POPC   C1A19217   9.785  13.484  15.811  0.1349  0.1444  0.4115
 1591POPC   D2A19218   9.748  13.403  16.271  0.0171 -0.0840 -0.3023
 1591POPC   C3A19219   9.720  13.636  16.713  0.2729  0.1049 -0.1439
 1591POPC   C4A19220   9.452  13.680  17.103  0.0178 -0.0889 -0.2123
 1591POPC   C1B19221   9.423  13.216  15.571 -0.0876 -0.4736  0.0113
 1591POPC   C2B19222   9.329  13.184  16.028  0.3304  0.0051  0.2808
 1591POPC   C3B19223   9.203  13.174  16.498  0.3834 -0.0343  0.1682
 1591POPC   C4B19224   8.931  13.186  16.888  0.0383  0.1003  0.0382
 1592POPC   NC319225   2.622  24.206  14.773 -0.1236 -0.1620 -0.0203
 1592POPC   PO419226   2.694  24.517  14.531 -0.1827 -0.0670 -0.0731
 1592POPC   GL119227   2.506  24.594  14.944  0.1862  0.4843  0.1371
 1592POPC   GL219228   2.558  24.806  15.071  0.0589 -0.0630  0.1929
 1592POPC   C1A19229   2.107  24.734  15.195 -0.3155 -0.1048  0.2120
 1592POPC   D2A19230   1.833  24.983  15.498 -0.2144 -0.2261 -0.0137
 1592POPC   C3A19231   1.690  24.756  15.833 -0.2335 -0.0714 -0.0020
 1592POPC   C4A19232   1.464  24.360  16.017 -0.0406  0.1581  0.0972
 1592POPC   C1B19233   2.394  24.927  15.529 -0.0872  0.5039  0.2632
 1592POPC   C2B19234   2.197  24.838  15.950  0.1747 -0.1557  0.1622
 1592POPC   C3B19235   2.173  24.825  16.396 -0.0342 -0.0461 -0.2365
 1592POPC   C4B19236   2.056  24.735  16.864  0.0145  0.2780  0.1592
 1593POPC   NC319237  11.657   2.475  15.210  0.2970  0.0189 -0.0245
 1593POPC   PO419238  11.602   2.843  15.347  0.0269  0.2441  0.3999
 1593POPC   GL119239  11.718   2.852  15.738 -0.0265 -0.3268  0.0271
 1593POPC   GL219240  11.862   3.092  15.901  0.3019  0.1525  0.2799
 1593POPC   C1A19241  11.407   2.713  16.056  0.0178  0.3032 -0.3720
 1593POPC   D2A19242  11.386   2.378  16.422 -0.1018 -0.0325  0.0525
 1593POPC   C3A19243  11.233   2.174  16.773 -0.1023  0.1184  0.1535
 1593POPC   C4A19244  10.900   1.852  16.842  0.1418 -0.0141  0.2668
 1593POPC   C1B19245  12.010   3.189  16.336  0.0949  0.0443  0.1725
 1593POPC   C2B19246  11.898   3.467  16.686  0.5744  0.0183 -0.0353
 1593POPC   C3B19247  11.687   3.630  17.068  0.1178  0.1996  0.0700
 1593POPC   C4B19248  11.914   3.905  17.324 -0.1378  0.1646  0.0853
 1594POPC   NC319249   2.251  28.097  15.006 -0.0560  0.0184 -0.0046
 1594POPC   PO419250   2.137  28.464  15.045  0.0667 -0.3192 -0.1894
 1594POPC   GL119251   2.308  28.343  15.368  0.0057  0.1561  0.1638
 1594POPC   GL219252   2.132  28.512  15.563 -0.0701 -0.0123  0.0206
 1594POPC   C1A19253   2.640  28.634  15.552  0.0217  0.0961  0.0140
 1594POPC   D2A19254   2.700  28.556  15.969 -0.0706 -0.7293 -0.1393
 1594POPC   C3A19255   2.690  28.728  16.410 -0.0877 -0.0284  0.1816
 1594POPC   C4A19256   2.745  28.756  16.864  0.1145  0.0833 -0.2380
 1594POPC   C1B19257   2.219  28.534  16.034  0.0525  0.3692  0.1987
 1594POPC   C2B19258   2.265  28.537  16.463  0.4107 -0.4390  0.0063
 1594POPC   C3B19259   2.364  28.389  16.898  0.0340 -0.1158  0.3416
 1594POPC   C4B19260   2.618  28.460  17.267 -0.0005  0.1658 -0.3858
 1595POPC   NC319261   6.753  10.227  14.923  0.0012  0.0337  0.1610
 1595POPC   PO419262   7.033  10.371  15.176  0.1555 -0.1782 -0.1192
 1595POPC   GL119263   7.010  10.017  15.328  0.4956 -0.0584  0.4937
 1595POPC   GL219264   7.078  10.042  15.577 -0.1223 -0.1858 -0.3023
 1595POPC   C1A19265   6.678   9.755  15.085  0.0841 -0.1704  0.2681
 1595POPC   D2A19266   6.296   9.534  14.976 -0.1328 -0.1992 -0.1085
 1595POPC   C3A19267   6.467   9.325  14.631 -0.2201  0.0605 -0.3106
 1595POPC   C4A19268   6.899   9.199  14.522  0.1605  0.0659  0.1148
 1595POPC   C1B19269   6.935   9.734  15.886  0.1566 -0.0305 -0.1790
 1595POPC   C2B19270   6.823   9.639  16.344 -0.2462  0.0815  0.1100
 1595POPC   C3B19271   6.405   9.502  16.575 -0.2188  0.1481 -0.0529
 1595POPC   C4B19272   6.133   9.482  16.997 -0.0610  0.1742 -0.1349
 1596POPC   NC319273  15.055  25.874  15.373 -0.1281 -0.1780  0.0244
 1596POPC   PO419274  15.263  25.551  15.235  0.2848  0.0252 -0.2359
 1596POPC   GL119275  15.395  25.333  15.569 -0.2944 -0.3598  0.2909
 1596POPC   GL219276  15.508  25.541  15.773  0.1218 -0.3446  0.1134
 1596POPC   C1A19277  15.500  24.968  15.797  0.0485  0.0251  0.0327
 1596POPC   D2A19278  15.853  24.704  16.029 -0.0179  0.2493  0.2679
 1596POPC   C3A19279  15.946  24.568  16.459  0.4514  0.3559 -0.0180
 1596POPC   C4A19280  16.055  24.524  16.917  0.0218  0.0794 -0.0281
 1596POPC   C1B19281  15.678  25.646  16.198  0.0631  0.1717  0.1368
 1596POPC   C2B19282  15.972  25.561  16.542  0.0038 -0.2675 -0.1239
 1596POPC   C3B19283  16.009  25.673  16.953  0.0268 -0.0027 -0.0777
 1596POPC   C4B19284  16.175  25.924  17.302  0.0043  0.1381  0.0085
 1597POPC   NC319285  11.482  14.499  14.497  0.0784  0.2160  0.0634
 1597POPC   PO419286  11.184  14.294  14.625  0.0460 -0.1881  0.1500
 1597POPC   GL119287  11.070  14.522  15.090  0.0644  0.1084  0.1440
 1597POPC   GL219288  10.822  14.588  14.999 -0.2711  0.2825 -0.0128
 1597POPC   C1A19289  11.303  14.583  15.508 -0.2913 -0.2031  0.0857
 1597POPC   D2A19290  11.349  14.307  15.899  0.1026 -0.1539 -0.1889
 1597POPC   C3A19291  11.339  14.017  16.268 -0.0361  0.2248  0.2472
 1597POPC   C4A19292  11.419  13.934  16.717  0.7055 -0.1548  0.3038
 1597POPC   C1B19293  10.875  14.883  15.377  0.1160 -0.0226  0.0719
 1597POPC   C2B19294  10.744  15.097  15.801  0.0498 -0.1440  0.1858
 1597POPC   C3B19295  10.896  15.202  16.174  0.0640 -0.0963 -0.2183
 1597POPC   C4B19296  10.683  14.863  16.402 -0.0223  0.0617  0.2102
 1598POPC   NC319297   0.512  28.104  15.267  0.0459  0.2886 -0.1948
 1598POPC   PO419298   0.774  27.794  15.294  0.0784  0.0145  0.0191
 1598POPC   GL119299   0.771  27.795  15.774  0.0391  0.2956 -0.1294
 1598POPC   GL219300   0.680  28.062  15.828 -0.0903  0.0522  0.0142
 1598POPC   C1A19301   1.007  27.602  16.155  0.1386  0.1228  0.1943
 1598POPC   D2A19302   0.903  27.371  16.542  0.2957 -0.1752 -0.2609
 1598POPC   C3A19303   0.584  27.390  16.873 -0.3555  0.1322  0.0733
 1598POPC   C4A19304   0.345  27.234  17.225 -0.0408  0.0466  0.0999
 1598POPC   C1B19305   0.584  28.237  16.223 -0.0533  0.1187  0.1184
 1598POPC   C2B19306   0.525  28.448  16.612  0.0200 -0.1694 -0.0870
 1598POPC   C3B19307   0.680  28.601  16.990 -0.2388  0.1498 -0.1229
 1598POPC   C4B19308   1.025  28.899  17.065 -0.3791 -0.0983 -0.0607
 1599POPC   NC319309   0.731  15.300  15.240  0.0074 -0.0060 -0.1664
 1599POPC   PO419310   1.068  15.098  15.325  0.3731  0.3572  0.0266
 1599POPC   GL119311   0.938  14.875  15.596 -0.0097 -0.3082 -0.1244
 1599POPC   GL219312   0.646  14.870  15.508 -0.0460 -0.1237 -0.0687
 1599POPC   C1A19313   1.171  14.681  15.968 -0.1690  0.1722  0.1266
 1599POPC   D2A19314   1.382  14.476  16.327 -0.1869 -0.0652 -0.1108
 1599POPC   C3A19315   1.238  14.313  16.695  0.2670 -0.0401 -0.3058
 1599POPC   C4A19316   1.083  14.016  17.047  0.1171  0.2551 -0.1293
 1599POPC   C1B19317   0.704  15.060  15.909  0.0422  0.3925 -0.0222
 1599POPC   C2B19318   0.935  15.100  16.258  0.0436 -0.2293  0.0237
 1599POPC   C3B19319   1.141  15.330  16.611 -0.4219 -0.1183 -0.1008
 1599POPC   C4B19320   0.977  15.577  16.984 -0.0642 -0.1653  0.1157
 1600POPC   NC319321   1.850  27.414  14.719 -0.2543 -0.3467 -0.1636
 1600POPC   PO419322   1.651  27.277  15.047 -0.2210 -0.2860 -0.1910
 1600POPC   GL119323   1.815  26.936  15.277  0.1664 -0.2148  0.2006
 1600POPC   GL219324   1.739  26.660  15.299 -0.1190 -0.0386 -0.3336
 1600POPC   C1A19325   2.194  26.866  15.543  0.0143  0.0861 -0.0287
 1600POPC   D2A19326   2.337  26.601  15.896 -0.1438 -0.1036  0.6208
 1600POPC   C3A19327   2.142  26.519  16.271  0.1805 -0.0216 -0.0752
 1600POPC   C4A19328   1.823  26.513  16.647 -0.1183 -0.0136  0.1508
 1600POPC   C1B19329   1.794  26.637  15.766 -0.0922 -0.1627  0.0726
 1600POPC   C2B19330   1.718  26.972  16.021 -0.2210  0.4168 -0.5205
 1600POPC   C3B19331   1.704  27.076  16.467 -0.1954 -0.1134 -0.1524
 1600POPC   C4B19332   1.765  26.950  16.909  0.0494  0.2123  0.0815
 1601POPC   NC319333  12.910   4.045  15.121  0.0443 -0.3299 -0.0228
 1601POPC   PO419334  13.096   3.777  15.281  0.0012 -0.0280 -0.0708
 1601POPC   GL119335  13.241   3.700  15.648 -0.1540 -0.2747 -0.1315
 1601POPC   GL219336  13.223   3.587  15.919 -0.1005 -0.1296  0.2569
 1601POPC   C1A19337  13.432   4.022  15.929  0.0900  0.2002 -0.3007
 1601POPC   D2A19338  13.527   4.061  16.375  0.0981 -0.0243 -0.0130
 1601POPC   C3A19339  13.413   3.829  16.745 -0.0458 -0.0407 -0.2403
 1601POPC   C4A19340  13.235   3.654  17.129 -0.0947  0.2332 -0.1077
 1601POPC   C1B19341  13.036   3.815  16.336  0.1912 -0.1933 -0.1293
 1601POPC   C2B19342  12.868   3.744  16.761  0.2087  0.0310 -0.0064
 1601POPC   C3B19343  12.719   3.725  17.223 -0.2003 -0.0647  0.0171
 1601POPC   C4B19344  12.374   3.760  17.508 -0.0258  0.0421  0.0570
 1602POPC   NC319345  12.772   0.674  14.591  0.2227  0.1380  0.0700
 1602POPC   PO419346  13.001   0.331  14.699  0.0135  0.0923  0.0024
 1602POPC   GL119347  13.212   0.305  15.001 -0.2200 -0.2185  0.3552
 1602POPC   GL219348  13.429   0.244  15.070 -0.1081 -0.0475  0.3190
 1602POPC   C1A19349  13.090   0.341  15.471 -0.3511 -0.1786 -0.0605
 1602POPC   D2A19350  12.923   0.220  15.891  0.0328 -0.1160  0.0682
 1602POPC   C3A19351  13.266   0.266  16.223  0.2819  0.0258  0.2165
 1602POPC   C4A19352  13.726   0.331  16.280 -0.0147 -0.0151 -0.0160
 1602POPC   C1B19353  13.316  -0.056  15.331  0.3120 -0.2715 -0.2026
 1602POPC   C2B19354  13.647  -0.319  15.590 -0.2814  0.1533 -0.1250
 1602POPC   C3B19355  13.634  -0.601  15.948 -0.1196 -0.1669 -0.1182
 1602POPC   C4B19356  13.898  -0.489  16.337 -0.2391 -0.1750 -0.1589
 1603POPC   NC319357   6.812   0.527  15.448  0.1770 -0.1384 -0.1385
 1603POPC   PO419358   6.762   0.842  15.211  0.2402  0.0357 -0.0798
 1603POPC   GL119359   6.718   1.146  15.538 -0.3220  0.1001  0.2452
 1603POPC   GL219360   6.883   1.122  15.741  0.0608 -0.2140 -0.1097
 1603POPC   C1A19361   6.415   1.216  15.889 -0.1078 -0.2417  0.2916
 1603POPC   D2A19362   6.327   1.281  16.356  0.1424  0.1200  0.2952
 1603POPC   C3A19363   6.190   0.880  16.589 -0.0132  0.1809  0.1378
 1603POPC   C4A19364   6.073   0.727  16.997 -0.2635  0.0324 -0.0955
 1603POPC   C1B19365   6.690   0.828  15.957  0.0813  0.2947  0.2033
 1603POPC   C2B19366   6.661   0.420  16.066  0.2158  0.0089  0.0304
 1603POPC   C3B19367   6.725   0.060  16.422  0.0277 -0.0717  0.1311
 1603POPC   C4B19368   6.819  -0.366  16.577 -0.0208  0.0387  0.1930
 1604POPC   NC319369   6.181  11.596  15.317 -0.1081  0.3589  0.0684
 1604POPC   PO419370   6.245  11.222  15.160  0.0984  0.1300  0.1537
 1604POPC   GL119371   6.382  11.165  15.521 -0.0065 -0.0039  0.4996
 1604POPC   GL219372   6.559  10.884  15.524 -0.0617 -0.0555  0.1888
 1604POPC   C1A19373   6.412  11.223  15.939  0.0990  0.0456 -0.1246
 1604POPC   D2A19374   6.261  11.501  16.248 -0.1944  0.0132  0.0086
 1604POPC   C3A19375   6.256  11.532  16.727  0.0177  0.0530  0.0663
 1604POPC   C4A19376   6.102  11.805  17.070 -0.1707  0.4011  0.0367
 1604POPC   C1B19377   6.509  10.751  15.987 -0.0514 -0.1724  0.1516
 1604POPC   C2B19378   6.590  10.562  16.356 -0.2348 -0.1481 -0.1086
 1604POPC   C3B19379   6.555  10.432  16.769 -0.2695 -0.1751  0.1072
 1604POPC   C4B19380   6.548  10.426  17.221  0.1684  0.2469 -0.0245
 1605POPC   NC319381   2.150   2.114  15.124 -0.0666 -0.2734 -0.1148
 1605POPC   PO419382   2.507   2.195  15.024  0.0974 -0.0778 -0.1882
 1605POPC   GL119383   2.426   2.508  15.347  0.1833  0.2141 -0.0038
 1605POPC   GL219384   2.519   2.795  15.362 -0.0871  0.1079 -0.0332
 1605POPC   C1A19385   2.513   2.212  15.681  0.0684  0.2110 -0.0379
 1605POPC   D2A19386   2.731   2.366  16.105  0.0535  0.0913 -0.0738
 1605POPC   C3A19387   2.630   2.152  16.513 -0.1875  0.1862  0.3033
 1605POPC   C4A19388   2.693   1.749  16.686  0.1950  0.1088  0.0030
 1605POPC   C1B19389   2.730   2.729  15.751 -0.2418 -0.0237 -0.0457
 1605POPC   C2B19390   2.973   2.853  16.173 -0.0037  0.1264 -0.3799
 1605POPC   C3B19391   3.179   2.970  16.571  0.2289 -0.1280  0.1295
 1605POPC   C4B19392   3.631   3.032  16.641 -0.0796  0.1041  0.0399
 1606POPC   NC319393   7.717   5.352  15.457  0.1207  0.0198  0.0552
 1606POPC   PO419394   7.641   5.667  15.257 -0.0414 -0.0814 -0.1655
 1606POPC   GL119395   7.739   5.722  15.681 -0.0896 -0.1646 -0.0368
 1606POPC   GL219396   7.526   5.837  15.801 -0.0970 -0.2595 -0.0147
 1606POPC   C1A19397   7.651   5.372  15.971  0.1941  0.0565  0.1335
 1606POPC   D2A19398   7.529   5.241  16.441 -0.0486  0.3112  0.1583
 1606POPC   C3A19399   7.649   4.947  16.731 -0.2509 -0.0572  0.0541
 1606POPC   C4A19400   7.646   4.721  17.142  0.0366  0.1284  0.1525
 1606POPC   C1B19401   7.710   5.830  16.211  0.1259  0.3531 -0.3313
 1606POPC   C2B19402   7.719   6.009  16.689  0.2215 -0.0182  0.2781
 1606POPC   C3B19403   7.980   6.275  16.933  0.0365  0.2600  0.0653
 1606POPC   C4B19404   7.919   6.726  16.932  0.0316 -0.1350 -0.1074
 1607POPC   NC319405  12.801   4.895  15.214 -0.0837 -0.0090  0.1960
 1607POPC   PO419406  12.471   4.643  15.251  0.2597 -0.1981 -0.1174
 1607POPC   GL119407  12.513   4.787  15.630 -0.0194 -0.1027 -0.1426
 1607POPC   GL219408  12.518   4.490  15.728 -0.0674 -0.2508 -0.0812
 1607POPC   C1A19409  12.343   5.015  16.001  0.1325 -0.0049  0.0938
 1607POPC   D2A19410  12.070   5.377  16.143 -0.1565 -0.1873  0.0658
 1607POPC   C3A19411  12.380   5.695  16.425  0.1209  0.1952  0.0347
 1607POPC   C4A19412  12.287   5.978  16.779  0.2649 -0.1125 -0.1650
 1607POPC   C1B19413  12.247   4.536  16.142  0.2475 -0.0893  0.1675
 1607POPC   C2B19414  12.317   4.814  16.527 -0.0572  0.0510 -0.2146
 1607POPC   C3B19415  12.134   5.199  16.697  0.1044 -0.0201  0.1623
 1607POPC   C4B19416  12.227   5.505  16.977  0.4724  0.0621  0.3079
 1608POPC   NC319417   9.859   6.007  14.871 -0.2372 -0.1353  0.1855
 1608POPC   PO419418  10.167   6.123  15.124  0.2043  0.3487  0.0121
 1608POPC   GL119419  10.130   6.333  15.539 -0.0703  0.0903 -0.0482
 1608POPC   GL219420   9.912   6.251  15.624  0.1289 -0.1247  0.1815
 1608POPC   C1A19421  10.242   6.431  15.974  0.0333 -0.0185  0.3524
 1608POPC   D2A19422  10.258   6.367  16.431  0.1576 -0.0035 -0.1126
 1608POPC   C3A19423  10.697   6.414  16.518 -0.0190  0.2055 -0.0170
 1608POPC   C4A19424  11.006   6.453  16.799  0.1191 -0.0148  0.2789
 1608POPC   C1B19425  10.219   5.930  15.795  0.0464  0.0744  0.0501
 1608POPC   C2B19426  10.433   5.638  16.035 -0.0352  0.0485  0.0058
 1608POPC   C3B19427  10.897   5.615  16.111 -0.1131 -0.1748 -0.0368
 1608POPC   C4B19428  11.134   5.401  16.440 -0.3901  0.0276  0.3574
 1609POPC   NC319429   2.500  11.135  15.079 -0.0359 -0.1723  0.0863
 1609POPC   PO419430   2.282  11.470  15.007 -0.3002  0.0105  0.2836
 1609POPC   GL119431   2.400  11.308  15.470  0.0421 -0.3742 -0.3849
 1609POPC   GL219432   2.553  11.337  15.740 -0.0670  0.0653  0.1362
 1609POPC   C1A19433   2.089  11.583  15.749 -0.0765  0.0796 -0.2245
 1609POPC   D2A19434   1.831  11.944  15.934 -0.1628 -0.2400 -0.4830
 1609POPC   C3A19435   1.881  11.991  16.425 -0.0859 -0.1042  0.0702
 1609POPC   C4A19436   2.159  11.993  16.820  0.0968  0.1867  0.1821
 1609POPC   C1B19437   2.883  11.310  16.023  0.1040 -0.0731 -0.0532
 1609POPC   C2B19438   3.185  11.589  16.275  0.2704 -0.0275  0.2258
 1609POPC   C3B19439   3.566  11.656  16.525  0.3935 -0.1568  0.2657
 1609POPC   C4B19440   3.983  11.442  16.446  0.0602  0.1631  0.5513
 1610POPC   NC319441  14.465   4.409  15.353  0.2778  0.2049 -0.1799
 1610POPC   PO419442  14.108   4.348  15.509  0.1482 -0.0064 -0.1122
 1610POPC   GL119443  13.697   4.345  15.745 -0.1524  0.2265  0.0257
 1610POPC   GL219444  13.975   4.230  15.971  0.1068  0.3595 -0.0831
 1610POPC   C1A19445  13.527   4.534  16.094 -0.2365 -0.0147  0.1138
 1610POPC   D2A19446  13.160   4.541  16.398 -0.6073  0.0304 -0.1499
 1610POPC   C3A19447  13.091   4.244  16.717 -0.4229  0.0475  0.1666
 1610POPC   C4A19448  13.025   4.171  17.113 -0.2406  0.0916 -0.0357
 1610POPC   C1B19449  13.966   4.282  16.416 -0.1452 -0.0594 -0.1607
 1610POPC   C2B19450  13.842   4.151  16.866  0.1540  0.5082  0.0536
 1610POPC   C3B19451  13.722   3.917  17.205 -0.0039  0.3113  0.3354
 1610POPC   C4B19452  13.339   3.968  17.527 -0.1154 -0.2405 -0.0643
 1611POPC   NC319453  11.552  21.021  15.862  0.0098  0.0624  0.3181
 1611POPC   PO419454  11.427  21.343  15.704  0.1811 -0.0225  0.0419
 1611POPC   GL119455  11.310  21.570  16.040 -0.1040  0.0939  0.2034
 1611POPC   GL219456  11.107  21.780  16.047  0.1330  0.5430 -0.3106
 1611POPC   C1A19457  11.323  21.627  16.496 -0.0177  0.0198 -0.0094
 1611POPC   D2A19458  11.081  21.715  16.875  0.0522  0.0031  0.3772
 1611POPC   C3A19459  11.086  21.426  17.233 -0.2851  0.1173  0.2311
 1611POPC   C4A19460  10.968  21.198  17.658  0.0017  0.0119 -0.1202
 1611POPC   C1B19461  10.816  21.660  16.358 -0.0314  0.1528  0.1884
 1611POPC   C2B19462  10.629  21.690  16.758  0.1426 -0.0250  0.0574
 1611POPC   C3B19463  10.316  21.833  17.132  0.1738  0.0100 -0.0827
 1611POPC   C4B19464   9.834  21.800  17.094 -0.2573  0.0906 -0.0202
 1612POPC   NC319465   7.399  24.133  14.986 -0.0529  0.1891 -0.0255
 1612POPC   PO419466   7.525  24.471  15.134  0.0879  0.0118  0.1025
 1612POPC   GL119467   7.518  24.666  15.382  0.1070  0.0796  0.1974
 1612POPC   GL219468   7.274  24.786  15.554 -0.0748  0.1533  0.1988
 1612POPC   C1A19469   7.812  24.756  15.755 -0.2881  0.0648 -0.1385
 1612POPC   D2A19470   7.958  24.871  16.218 -0.1491 -0.0804  0.0657
 1612POPC   C3A19471   7.854  25.143  16.553  0.4256 -0.2132 -0.1097
 1612POPC   C4A19472   7.801  25.439  16.928  0.0417  0.1414 -0.1757
 1612POPC   C1B19473   7.303  24.728  16.027 -0.0882 -0.0104 -0.0776
 1612POPC   C2B19474   7.390  24.958  16.395  0.0186  0.1367 -0.2096
 1612POPC   C3B19475   7.345  25.293  16.745 -0.0921 -0.0002 -0.2755
 1612POPC   C4B19476   7.283  25.608  17.094  0.3272 -0.1799 -0.0674
 1613POPC   NC319477   3.744  21.423  15.339  0.2461 -0.2594  0.3073
 1613POPC   PO419478   3.356  21.471  15.177 -0.2328  0.1790  0.0418
 1613POPC   GL119479   3.176  21.566  15.528  0.2284 -0.2430 -0.3685
 1613POPC   GL219480   3.190  21.225  15.562  0.2451 -0.0139  0.1644
 1613POPC   C1A19481   3.000  21.474  15.926 -0.1028 -0.1054 -0.1151
 1613POPC   D2A19482   3.081  21.300  16.305 -0.0633 -0.0015 -0.1471
 1613POPC   C3A19483   3.130  21.039  16.686 -0.1660 -0.1084 -0.0505
 1613POPC   C4A19484   3.215  20.943  17.136  0.1414  0.2811 -0.1138
 1613POPC   C1B19485   3.479  21.096  15.967 -0.0204  0.0953  0.0723
 1613POPC   C2B19486   3.543  20.879  16.340  0.3117 -0.2142 -0.3180
 1613POPC   C3B19487   3.615  20.955  16.795  0.0210  0.0866  0.0625
 1613POPC   C4B19488   3.771  20.685  17.206  0.4003 -0.1619  0.0428
 1614POPC   NC319489   7.283   5.161  15.650  0.2199 -0.0433 -0.1559
 1614POPC   PO419490   7.570   4.926  15.474  0.1585  0.0049 -0.3462
 1614POPC   GL119491   7.741   4.906  15.781  0.1918  0.1843 -0.1405
 1614POPC   GL219492   7.965   5.074  15.807 -0.3196 -0.0820  0.0730
 1614POPC   C1A19493   7.465   4.786  16.152 -0.2867  0.2288 -0.1458
 1614POPC   D2A19494   7.185   4.801  16.520 -0.1872 -0.1419 -0.0102
 1614POPC   C3A19495   7.187   5.048  16.933 -0.1833 -0.1187 -0.1036
 1614POPC   C4A19496   7.511   5.271  17.157  0.1939  0.2508 -0.2111
 1614POPC   C1B19497   8.096   4.946  16.280 -0.1808  0.1407 -0.1123
 1614POPC   C2B19498   8.333   4.991  16.705 -0.1177  0.1707  0.1726
 1614POPC   C3B19499   8.548   4.995  17.085 -0.0671 -0.0989 -0.0258
 1614POPC   C4B19500   8.449   5.315  17.378  0.2691  0.0547 -0.0089
 1615POPC   NC319501   0.655   3.234  14.580 -0.0144 -0.2454  0.0247
 1615POPC   PO419502   0.762   3.236  14.980 -0.3334  0.1221 -0.1566
 1615POPC   GL119503   0.703   3.475  15.389  0.0674 -0.0492  0.2934
 1615POPC   GL219504   0.945   3.410  15.482 -0.0796  0.1044 -0.1270
 1615POPC   C1A19505   0.696   3.708  15.797  0.0360  0.1110  0.0406
 1615POPC   D2A19506   0.859   3.748  16.203 -0.0279  0.0174 -0.1659
 1615POPC   C3A19507   1.279   3.651  16.401 -0.0190  0.1603  0.0921
 1615POPC   C4A19508   1.727   3.650  16.621 -0.0574  0.2249 -0.2720
 1615POPC   C1B19509   0.737   3.092  15.712 -0.3850  0.1397  0.0152
 1615POPC   C2B19510   0.543   2.840  16.081  0.2591 -0.1350  0.1487
 1615POPC   C3B19511   0.547   2.871  16.532  0.3204 -0.0049  0.0227
 1615POPC   C4B19512   0.473   3.159  16.867  0.1968  0.1315  0.3156
 1616POPC   NC319513   0.355  26.836  15.388  0.0927  0.2360 -0.1119
 1616POPC   PO419514   0.485  27.198  15.338 -0.0512  0.0520 -0.0284
 1616POPC   GL119515   0.748  27.160  15.672  0.1434  0.0625 -0.1079
 1616POPC   GL219516   0.924  27.410  15.587  0.1550  0.3724 -0.3154
 1616POPC   C1A19517   0.675  27.040  16.083  0.2979  0.1118 -0.1008
 1616POPC   D2A19518   0.437  27.251  16.443 -0.0460 -0.2992 -0.0668
 1616POPC   C3A19519   0.080  27.077  16.433  0.3222  0.0972  0.4621
 1616POPC   C4A19520  -0.350  27.177  16.469  0.1729  0.1371  0.3259
 1616POPC   C1B19521   1.168  27.204  15.905  0.0031 -0.0020  0.1436
 1616POPC   C2B19522   1.246  27.032  16.298  0.3307 -0.3284 -0.0771
 1616POPC   C3B19523   1.330  26.640  16.529 -0.0119 -0.0559 -0.1993
 1616POPC   C4B19524   1.313  26.389  16.901  0.1776 -0.0230 -0.1076
 1617POPC   NC319525  15.774  21.371  15.042  0.0283  0.0054  0.0534
 1617POPC   PO419526  16.075  21.073  15.106 -0.0372 -0.0210 -0.0963
 1617POPC   GL119527  16.093  20.690  15.317  0.0871 -0.0633 -0.1167
 1617POPC   GL219528  16.342  20.610  15.347 -0.0386 -0.3288  0.2179
 1617POPC   C1A19529  15.962  20.792  15.798 -0.0801  0.0667 -0.1461
 1617POPC   D2A19530  15.808  21.091  16.099 -0.1560 -0.3436 -0.2341
 1617POPC   C3A19531  15.692  21.165  16.576  0.0667  0.1638  0.1821
 1617POPC   C4A19532  15.554  21.068  16.934 -0.1027 -0.5501  0.0259
 1617POPC   C1B19533  16.505  20.791  15.711  0.1222 -0.1645 -0.2475
 1617POPC   C2B19534  16.360  20.809  16.174 -0.0477  0.0700  0.1793
 1617POPC   C3B19535  16.339  20.960  16.609  0.2299 -0.0224 -0.4044
 1617POPC   C4B19536  16.566  21.276  16.838  0.2561  0.0091  0.0360
 1618POPC   NC319537  11.583   9.845  15.637 -0.0217  0.0927 -0.1235
 1618POPC   PO419538  11.575   9.999  15.237  0.1281  0.0698 -0.0086
 1618POPC   GL119539  11.891  10.166  15.401  0.0138 -0.0382 -0.1375
 1618POPC   GL219540  12.076  10.148  15.168 -0.2721  0.0018  0.3886
 1618POPC   C1A19541  12.011  10.155  15.854 -0.0097  0.0664 -0.0175
 1618POPC   D2A19542  12.392  10.069  16.073 -0.1420 -0.0487  0.1706
 1618POPC   C3A19543  12.504  10.098  16.473  0.0587  0.3838 -0.0916
 1618POPC   C4A19544  12.318   9.938  16.845 -0.2844  0.2386 -0.1046
 1618POPC   C1B19545  12.250  10.441  15.492 -0.2960 -0.2044 -0.1120
 1618POPC   C2B19546  12.401  10.866  15.613 -0.0617 -0.0363 -0.2449
 1618POPC   C3B19547  12.496  11.222  15.902 -0.1105 -0.1282  0.2082
 1618POPC   C4B19548  12.807  11.438  16.174  0.0239  0.5027 -0.2232
 1619POPC   NC319549   3.773   9.098  14.840 -0.1144  0.3926 -0.2240
 1619POPC   PO419550   3.534   8.951  15.050 -0.2757 -0.3539 -0.1592
 1619POPC   GL119551   3.499   9.152  15.374  0.1777 -0.0377  0.2763
 1619POPC   GL219552   3.213   9.263  15.501 -0.3845 -0.1799 -0.1344
 1619POPC   C1A19553   3.661   9.059  15.776  0.1875 -0.0747  0.0086
 1619POPC   D2A19554   3.918   8.971  16.142  0.2698  0.0082 -0.0845
 1619POPC   C3A19555   3.819   8.574  16.272 -0.0205 -0.0095  0.0416
 1619POPC   C4A19556   3.751   8.378  16.660 -0.3581  0.1179  0.1350
 1619POPC   C1B19557   3.225   9.261  15.965  0.2520  0.0706  0.1736
 1619POPC   C2B19558   3.306   9.490  16.318 -0.2554  0.0498  0.0496
 1619POPC   C3B19559   3.486   9.702  16.713  0.3164 -0.0807 -0.0498
 1619POPC   C4B19560   3.632   9.559  17.090 -0.0640  0.0468 -0.0647
 1620POPC   NC319561   2.180  18.280  14.806  0.1132 -0.0907 -0.2015
 1620POPC   PO419562   2.148  18.621  14.660 -0.0513  0.0991  0.2165
 1620POPC   GL119563   2.503  18.650  14.864 -0.0665 -0.0245 -0.2057
 1620POPC   GL219564   2.689  18.444  14.864 -0.3422 -0.2095 -0.0150
 1620POPC   C1A19565   2.786  18.895  15.105 -0.2877  0.4826 -0.0677
 1620POPC   D2A19566   2.987  18.842  15.543  0.0721 -0.1516 -0.0262
 1620POPC   C3A19567   3.071  18.797  15.985  0.0881 -0.6791  0.2154
 1620POPC   C4A19568   3.297  18.711  16.386 -0.2585  0.0237  0.1151
 1620POPC   C1B19569   3.124  18.446  14.984  0.0962  0.1178 -0.0038
 1620POPC   C2B19570   3.338  18.820  15.216  0.0839 -0.0239 -0.0854
 1620POPC   C3B19571   3.507  19.036  15.610 -0.1054 -0.2624  0.1426
 1620POPC   C4B19572   3.491  19.104  16.103 -0.2436 -0.0151 -0.1118
 1621POPC   NC319573  14.581  17.442  15.422 -0.1406 -0.1088 -0.2900
 1621POPC   PO419574  14.927  17.444  15.248 -0.0430  0.1619 -0.2167
 1621POPC   GL119575  14.993  17.371  15.634 -0.0017  0.1187 -0.3018
 1621POPC   GL219576  14.994  17.666  15.767 -0.0491  0.1190 -0.0132
 1621POPC   C1A19577  14.722  17.308  16.020 -0.1062 -0.1259 -0.1098
 1621POPC   D2A19578  14.709  17.281  16.476  0.1214  0.0460 -0.2064
 1621POPC   C3A19579  14.271  17.169  16.575 -0.0083 -0.0156 -0.1393
 1621POPC   C4A19580  13.806  17.137  16.666 -0.1245  0.3220  0.2408
 1621POPC   C1B19581  14.993  17.698  16.227 -0.0136 -0.2859  0.1147
 1621POPC   C2B19582  15.108  17.951  16.609 -0.0162  0.1504  0.2335
 1621POPC   C3B19583  14.993  17.996  17.015  0.1969 -0.1555 -0.0324
 1621POPC   C4B19584  15.057  18.154  17.436 -0.3286  0.0059 -0.2913
 1622POPC   NC319585  12.701  20.566  14.861 -0.2283 -0.0156 -0.1760
 1622POPC   PO419586  12.717  20.445  15.233  0.2694 -0.1884  0.1960
 1622POPC   GL119587  12.501  20.441  15.594 -0.0526  0.1431 -0.2044
 1622POPC   GL219588  12.611  20.162  15.612 -0.1555 -0.0081 -0.0385
 1622POPC   C1A19589  12.325  20.402  16.000 -0.1823  0.1099 -0.0127
 1622POPC   D2A19590  12.486  20.664  16.412  0.0620 -0.0155  0.2994
 1622POPC   C3A19591  12.577  20.895  16.747  0.1400  0.0495  0.1790
 1622POPC   C4A19592  12.484  21.160  17.073  0.1084  0.2006 -0.0288
 1622POPC   C1B19593  12.978  20.020  15.735 -0.0398  0.5907 -0.3766
 1622POPC   C2B19594  12.962  19.815  16.110  0.0855 -0.0091  0.1957
 1622POPC   C3B19595  13.087  19.692  16.545  0.0074  0.2811 -0.3043
 1622POPC   C4B19596  13.337  19.587  16.901  0.1140 -0.0579 -0.0399
 1623POPC   NC319597   3.842  16.340  15.306  0.3027 -0.3533 -0.2304
 1623POPC   PO419598   4.119  16.441  15.552  0.0878 -0.0079  0.0084
 1623POPC   GL119599   3.877  16.450  15.793  0.1360  0.6218  0.0355
 1623POPC   GL219600   3.590  16.417  15.751 -0.1040 -0.1141 -0.4279
 1623POPC   C1A19601   3.812  16.307  16.205  0.1850  0.0189 -0.2369
 1623POPC   D2A19602   3.858  16.195  16.662 -0.0930  0.1192 -0.2042
 1623POPC   C3A19603   3.997  16.462  17.036 -0.3026  0.0521 -0.0746
 1623POPC   C4A19604   4.197  16.696  17.390 -0.1405  0.2823  0.0375
 1623POPC   C1B19605   3.259  16.334  16.027 -0.2457  0.1432  0.0470
 1623POPC   C2B19606   3.099  16.165  16.444  0.2727 -0.0799 -0.1089
 1623POPC   C3B19607   2.888  16.062  16.879  0.0799  0.0222  0.2297
 1623POPC   C4B19608   2.592  16.010  17.227 -0.3137 -0.0787  0.0341
 1624POPC   NC319609   9.163  18.151  15.662  0.2615  0.2888  0.3578
 1624POPC   PO419610   9.277  18.476  15.535  0.2207 -0.0844 -0.1310
 1624POPC   GL119611   9.498  18.586  15.858  0.2357  0.3856 -0.0119
 1624POPC   GL219612   9.349  18.375  16.054  0.3315  0.0604  0.0780
 1624POPC   C1A19613   9.831  18.512  16.196  0.1847 -0.0898 -0.1960
 1624POPC   D2A19614   9.929  18.460  16.616 -0.0698  0.1011 -0.1810
 1624POPC   C3A19615   9.603  18.516  16.957 -0.0069 -0.0387  0.2462
 1624POPC   C4A19616   9.348  18.350  17.266  0.3030 -0.0691 -0.0302
 1624POPC   C1B19617   9.444  18.218  16.454 -0.2738 -0.3653 -0.2279
 1624POPC   C2B19618   9.627  18.043  16.869  0.0121 -0.1171  0.2641
 1624POPC   C3B19619   9.991  18.200  17.083 -0.2392 -0.0666  0.0048
 1624POPC   C4B19620  10.250  18.522  17.082 -0.3742  0.2435  0.2040
 1625POPC   NC319621   0.724  28.788  15.027  0.1839 -0.1768 -0.0730
 1625POPC   PO419622   0.358  28.550  15.057  0.2616  0.3691 -0.1741
 1625POPC   GL119623   0.432  28.588  15.468 -0.0848  0.2330 -0.0957
 1625POPC   GL219624   0.723  28.513  15.474 -0.3649 -0.0993  0.1134
 1625POPC   C1A19625   0.259  28.339  15.801 -0.1144  0.1554 -0.2698
 1625POPC   D2A19626   0.066  28.350  16.168  0.0019 -0.0534  0.1814
 1625POPC   C3A19627   0.216  28.049  16.460 -0.0355  0.1763 -0.0614
 1625POPC   C4A19628   0.259  28.192  16.889  0.0287  0.0744 -0.4113
 1625POPC   C1B19629   0.922  28.563  15.841 -0.0682  0.3268 -0.2259
 1625POPC   C2B19630   0.997  28.534  16.317  0.1689  0.3561  0.0087
 1625POPC   C3B19631   1.105  28.423  16.785  0.0734  0.0850  0.1426
 1625POPC   C4B19632   1.422  28.168  16.928 -0.0737  0.0547  0.0311
 1626POPC   NC319633  12.285   2.386  15.448 -0.0993  0.1746  0.2994
 1626POPC   PO419634  12.021   2.636  15.517 -0.0257 -0.1428 -0.0427
 1626POPC   GL119635  12.276   2.643  15.846  0.0954 -0.0686  0.1818
 1626POPC   GL219636  12.355   2.884  15.800 -0.0928  0.0989  0.1579
 1626POPC   C1A19637  12.366   2.481  16.227 -0.0188  0.1150  0.0302
 1626POPC   D2A19638  12.388   2.214  16.635  0.0222 -0.2316 -0.1954
 1626POPC   C3A19639  12.098   2.123  16.993 -0.0103 -0.4228  0.1345
 1626POPC   C4A19640  11.780   1.899  17.265 -0.0397 -0.1221 -0.0141
 1626POPC   C1B19641  12.453   2.994  16.209  0.0136 -0.0269  0.0168
 1626POPC   C2B19642  12.318   2.781  16.607  0.0972 -0.0644  0.1433
 1626POPC   C3B19643  12.191   2.609  17.017 -0.0080 -0.1186 -0.0893
 1626POPC   C4B19644  12.381   2.833  17.442  0.0551  0.0120  0.0245
 1627POPC   NC319645   8.977   4.381  14.796  0.0277 -0.0074  0.2299
 1627POPC   PO419646   9.210   4.167  15.034  0.1648 -0.1783  0.0159
 1627POPC   GL119647   9.309   4.379  15.442 -0.1524 -0.0138  0.0525
 1627POPC   GL219648   9.313   4.651  15.614  0.1762  0.0343  0.2093
 1627POPC   C1A19649   9.271   4.157  15.820  0.0322  0.1696  0.1559
 1627POPC   D2A19650   9.078   3.843  16.113 -0.1763  0.1010  0.0133
 1627POPC   C3A19651   9.088   3.851  16.601  0.1775 -0.2003  0.1760
 1627POPC   C4A19652   9.034   3.943  17.090 -0.0172  0.1511 -0.1945
 1627POPC   C1B19653   9.140   4.636  16.018  0.1186  0.0227 -0.0032
 1627POPC   C2B19654   9.090   4.391  16.400  0.0965  0.3570  0.3913
 1627POPC   C3B19655   8.896   4.481  16.815 -0.0046 -0.1623  0.1716
 1627POPC   C4B19656   8.754   4.597  17.253  0.1470 -0.3028 -0.2028
 1628POPC   NC319657  12.866  24.102  15.276  0.1335 -0.0671 -0.5033
 1628POPC   PO419658  12.481  24.196  15.186  0.0215 -0.1883 -0.1805
 1628POPC   GL119659  12.549  24.153  15.600  0.0069  0.1311 -0.2798
 1628POPC   GL219660  12.646  24.417  15.750  0.3441  0.0882  0.1401
 1628POPC   C1A19661  12.412  23.887  15.988 -0.0255 -0.3196 -0.0407
 1628POPC   D2A19662  12.180  23.516  16.149 -0.0838  0.1064 -0.0738
 1628POPC   C3A19663  11.891  23.418  16.411 -0.1254 -0.0382  0.1513
 1628POPC   C4A19664  11.705  23.341  16.857 -0.0717 -0.2808 -0.1062
 1628POPC   C1B19665  12.424  24.497  16.154 -0.1716  0.0507  0.0625
 1628POPC   C2B19666  12.129  24.462  16.521  0.3129  0.1818 -0.2155
 1628POPC   C3B19667  12.152  24.160  16.894 -0.1607 -0.0222 -0.0323
 1628POPC   C4B19668  12.019  24.071  17.322 -0.0677 -0.1045 -0.0758
 1629POPC   NC319669   2.005  31.543  14.703  0.0786  0.0443  0.1986
 1629POPC   PO419670   2.069  31.899  14.921  0.1204  0.1054 -0.3459
 1629POPC   GL119671   2.301  31.776  15.269  0.0911  0.1386  0.2192
 1629POPC   GL219672   2.021  31.779  15.443  0.0333  0.3920 -0.0281
 1629POPC   C1A19673   2.423  31.425  15.537 -0.3459  0.1837  0.0699
 1629POPC   D2A19674   2.586  31.433  15.947 -0.0616  0.2821 -0.0709
 1629POPC   C3A19675   2.326  31.128  16.235  0.2483  0.0515 -0.0231
 1629POPC   C4A19676   2.262  31.180  16.663 -0.2298 -0.0022  0.0156
 1629POPC   C1B19677   2.199  31.685  15.889 -0.1784  0.1710  0.0038
 1629POPC   C2B19678   2.330  31.677  16.317 -0.0888  0.1182  0.3585
 1629POPC   C3B19679   2.368  31.695  16.782 -0.0506  0.0344 -0.2007
 1629POPC   C4B19680   2.124  31.535  17.181 -0.0385  0.0173 -0.0441
 1630POPC   NC319681  10.078  30.650  14.940 -0.2114 -0.1330 -0.0662
 1630POPC   PO419682   9.924  30.425  15.168  0.0889 -0.0249 -0.0104
 1630POPC   GL119683   9.993  30.581  15.475  0.2988  0.1160 -0.1982
 1630POPC   GL219684  10.085  30.357  15.687 -0.1032  0.1014 -0.1181
 1630POPC   C1A19685   9.835  30.803  15.819  0.1333  0.3442  0.0170
 1630POPC   D2A19686  10.020  30.991  16.191 -0.3068 -0.1739  0.0452
 1630POPC   C3A19687   9.794  31.088  16.568 -0.0656 -0.0301  0.1263
 1630POPC   C4A19688   9.732  31.222  16.991 -0.0853  0.0798  0.0009
 1630POPC   C1B19689   9.775  30.355  16.013  0.1624 -0.2230  0.2156
 1630POPC   C2B19690   9.658  30.679  16.275 -0.0299 -0.0657  0.2647
 1630POPC   C3B19691   9.384  30.804  16.552 -0.0998  0.2403 -0.1823
 1630POPC   C4B19692   9.172  31.040  16.902 -0.1192 -0.0493  0.1146
 1631POPC   NC319693  13.040  26.991  15.726  0.1008 -0.1520  0.0227
 1631POPC   PO419694  12.784  26.684  15.679  0.0746  0.2454  0.2722
 1631POPC   GL119695  12.753  26.560  16.138 -0.6881  0.2714 -0.5045
 1631POPC   GL219696  12.687  26.901  16.191 -0.4718  0.1935 -0.2789
 1631POPC   C1A19697  12.729  26.311  16.545 -0.0222  0.0946 -0.1491
 1631POPC   D2A19698  12.649  25.970  16.798  0.1596 -0.0507 -0.1993
 1631POPC   C3A19699  12.366  25.968  17.202  0.1472  0.1513  0.2726
 1631POPC   C4A19700  12.068  26.099  17.553  0.0511 -0.1325 -0.1398
 1631POPC   C1B19701  12.652  26.831  16.605 -0.4409 -0.2563  0.0976
 1631POPC   C2B19702  12.774  26.658  17.006 -0.0560 -0.0353  0.0293
 1631POPC   C3B19703  12.949  26.257  17.200 -0.1295  0.0438  0.0031
 1631POPC   C4B19704  12.815  25.960  17.451 -0.0940  0.0324 -0.0387
 1632POPC   NC319705  15.794  14.997  14.978  0.2835  0.1498 -0.0913
 1632POPC   PO419706  16.140  14.984  15.103  0.2983 -0.1983  0.1802
 1632POPC   GL119707  15.972  15.114  15.420  0.4679 -0.1073 -0.0717
 1632POPC   GL219708  16.103  15.242  15.683  0.1405 -0.0794 -0.0548
 1632POPC   C1A19709  16.033  14.734  15.705 -0.0882 -0.3881 -0.1606
 1632POPC   D2A19710  15.908  14.445  16.014 -0.0393 -0.6458 -0.3229
 1632POPC   C3A19711  16.233  14.166  16.154  0.1683  0.1223  0.1785
 1632POPC   C4A19712  16.517  13.891  15.896 -0.1007  0.0175 -0.1249
 1632POPC   C1B19713  16.152  15.373  16.138 -0.2898  0.1274  0.1361
 1632POPC   C2B19714  15.975  15.391  16.523 -0.0202 -0.0481  0.1724
 1632POPC   C3B19715  16.161  15.510  16.979 -0.0671  0.0602 -0.0345
 1632POPC   C4B19716  16.392  15.795  17.285 -0.0288  0.1093  0.0246
 1633POPC   NC319717   5.362  25.556  15.371 -0.1689 -0.1851 -0.5253
 1633POPC   PO419718   5.122  25.221  15.405 -0.2950  0.1532 -0.0075
 1633POPC   GL119719   5.260  25.246  15.810  0.3289 -0.1286 -0.0386
 1633POPC   GL219720   5.336  25.514  15.936  0.1021  0.0274  0.1092
 1633POPC   C1A19721   5.290  24.947  16.193 -0.0335 -0.1929 -0.0533
 1633POPC   D2A19722   5.603  24.653  16.433  0.0451  0.2543  0.0794
 1633POPC   C3A19723   5.897  24.629  16.734  0.1563  0.6500 -0.1331
 1633POPC   C4A19724   6.107  24.339  16.973  0.0616  0.3352 -0.1410
 1633POPC   C1B19725   5.318  25.373  16.374  0.0840 -0.0251  0.0542
 1633POPC   C2B19726   5.364  24.991  16.724  0.1824  0.1899 -0.1124
 1633POPC   C3B19727   5.452  24.645  17.001 -0.0340 -0.2164 -0.0530
 1633POPC   C4B19728   5.812  24.670  17.279 -0.0094  0.0648 -0.1294
 1634POPC   NC319729   4.285  22.003  14.846  0.0430  0.4214  0.2544
 1634POPC   PO419730   4.076  21.875  15.120  0.1916  0.0993  0.2373
 1634POPC   GL119731   4.137  21.781  15.436 -0.1384  0.4536  0.1685
 1634POPC   GL219732   4.229  21.581  15.567  0.0952 -0.1468 -0.0877
 1634POPC   C1A19733   3.916  21.851  15.877 -0.2021 -0.3313  0.0457
 1634POPC   D2A19734   3.781  22.099  16.202 -0.0984 -0.0637  0.1829
 1634POPC   C3A19735   3.939  22.251  16.632  0.0250 -0.0119 -0.2746
 1634POPC   C4A19736   4.189  22.553  16.933 -0.1236 -0.1332 -0.0364
 1634POPC   C1B19737   3.960  21.330  15.874 -0.0176 -0.0912  0.0913
 1634POPC   C2B19738   3.742  21.334  16.264 -0.2272 -0.0972  0.1997
 1634POPC   C3B19739   3.446  21.368  16.574 -0.3725 -0.2901 -0.0712
 1634POPC   C4B19740   3.268  21.455  17.024 -0.2672  0.2583 -0.2053
 1635POPC   NC319741   0.614   7.343  15.665 -0.0977  0.0189 -0.1504
 1635POPC   PO419742   0.262   7.283  15.569  0.2139  0.2016  0.4998
 1635POPC   GL119743   0.230   7.454  15.882  0.1983  0.2418 -0.2402
 1635POPC   GL219744   0.249   7.200  16.119 -0.1511  0.4021 -0.0539
 1635POPC   C1A19745   0.391   7.739  16.143  0.2255 -0.4510  0.2923
 1635POPC   D2A19746   0.331   7.891  16.573 -0.1676 -0.2441  0.0265
 1635POPC   C3A19747   0.648   7.728  16.893  0.1775  0.0667 -0.1337
 1635POPC   C4A19748   0.797   7.548  17.287  0.2413 -0.1610  0.2564
 1635POPC   C1B19749   0.017   7.172  16.460 -0.1194 -0.0395  0.1021
 1635POPC   C2B19750  -0.163   7.000  16.889  0.0043 -0.0458  0.3030
 1635POPC   C3B19751  -0.052   7.224  17.241 -0.1181 -0.2508 -0.0860
 1635POPC   C4B19752  -0.037   7.189  17.720  0.2263 -0.2341 -0.2167
 1636POPC   NC319753   2.509  13.920  15.665  0.2216  0.0741 -0.1839
 1636POPC   PO419754   2.252  13.934  15.424 -0.0587 -0.3589  0.0422
 1636POPC   GL119755   2.032  14.095  15.715 -0.0770 -0.0381 -0.0681
 1636POPC   GL219756   2.142  14.392  15.734 -0.3187 -0.1833 -0.4608
 1636POPC   C1A19757   1.882  14.095  16.164 -0.0841  0.0421  0.2926
 1636POPC   D2A19758   1.623  14.058  16.541 -0.0495 -0.0225  0.1284
 1636POPC   C3A19759   1.175  13.884  16.451 -0.3735  0.0235 -0.0978
 1636POPC   C4A19760   0.764  13.658  16.672 -0.1870 -0.0788 -0.0726
 1636POPC   C1B19761   2.361  14.237  16.104 -0.1495  0.0681  0.1853
 1636POPC   C2B19762   2.259  14.203  16.535 -0.1045  0.0936 -0.2179
 1636POPC   C3B19763   1.994  14.006  16.824 -0.0408 -0.3219 -0.1115
 1636POPC   C4B19764   1.581  14.118  17.053 -0.2359 -0.0469  0.2285
 1637POPC   NC319765   8.064   3.153  15.633  0.0579 -0.1706  0.1591
 1637POPC   PO419766   8.340   2.894  15.499  0.1116 -0.3116  0.1283
 1637POPC   GL119767   8.428   2.884  15.850 -0.1322  0.1445 -0.3611
 1637POPC   GL219768   8.471   3.174  16.023  0.2548 -0.1486  0.1108
 1637POPC   C1A19769   8.861   2.884  15.978 -0.0353  0.2426 -0.4628
 1637POPC   D2A19770   9.259   2.909  16.167 -0.3470  0.1099 -0.1503
 1637POPC   C3A19771   9.333   3.133  16.509  0.1705 -0.2600 -0.1567
 1637POPC   C4A19772   9.108   3.435  16.821 -0.1288  0.4762  0.0513
 1637POPC   C1B19773   8.289   3.182  16.455 -0.1157  0.3990 -0.2663
 1637POPC   C2B19774   7.895   3.077  16.677 -0.0439 -0.0249 -0.2385
 1637POPC   C3B19775   7.816   3.095  17.122 -0.3298  0.0833  0.0017
 1637POPC   C4B19776   7.636   3.321  17.509 -0.2573  0.0055 -0.0003
 1638POPC   NC319777   0.701  18.290  15.551  0.0582 -0.0778  0.0899
 1638POPC   PO419778   0.948  18.001  15.562  0.1193  0.0462  0.0437
 1638POPC   GL119779   1.016  18.213  15.937  0.2028  0.3605 -0.4632
 1638POPC   GL219780   1.289  18.096  16.034  0.1050  0.0968 -0.0352
 1638POPC   C1A19781   0.902  18.076  16.361  0.1764 -0.3998 -0.1468
 1638POPC   D2A19782   0.757  17.860  16.758  0.0071 -0.1507  0.2701
 1638POPC   C3A19783   0.585  18.045  17.178 -0.0780  0.0517  0.3943
 1638POPC   C4A19784   0.776  18.083  17.615 -0.0346 -0.0620  0.2018
 1638POPC   C1B19785   1.564  18.194  16.322 -0.0172  0.0235 -0.0603
 1638POPC   C2B19786   1.842  18.271  16.684  0.1489 -0.1203 -0.1447
 1638POPC   C3B19787   1.985  18.573  16.940 -0.0905  0.3400  0.2117
 1638POPC   C4B19788   2.116  18.888  17.272  0.0324 -0.1365 -0.2313
 1639POPC   NC319789  10.223  16.620  15.142 -0.1733 -0.2152 -0.1548
 1639POPC   PO419790  10.316  16.963  14.952 -0.2247  0.0752 -0.4374
 1639POPC   GL119791  10.224  17.197  15.337 -0.1227  0.2212 -0.1273
 1639POPC   GL219792  10.264  16.970  15.490 -0.0197  0.2812  0.2348
 1639POPC   C1A19793  10.151  17.400  15.759 -0.0224 -0.0200  0.1233
 1639POPC   D2A19794  10.208  17.563  16.257 -0.0231  0.0651  0.1746
 1639POPC   C3A19795  10.417  17.395  16.636 -0.0508  0.0805  0.2517
 1639POPC   C4A19796  10.468  17.211  17.063  0.2119  0.1044 -0.0555
 1639POPC   C1B19797  10.601  17.144  15.737  0.1295 -0.1406  0.2074
 1639POPC   C2B19798  10.665  17.244  16.144  0.0173  0.2956  0.2907
 1639POPC   C3B19799  10.904  17.349  16.513 -0.0916  0.1540 -0.0278
 1639POPC   C4B19800  10.842  17.568  16.924  0.1205 -0.4114 -0.0224
 1640POPC   NC319801   2.991  29.275  14.972 -0.1460 -0.0602 -0.0486
 1640POPC   PO419802   2.747  28.983  14.996  0.0793 -0.0777  0.2555
 1640POPC   GL119803   2.738  29.145  15.322  0.1446 -0.2911 -0.2090
 1640POPC   GL219804   3.011  29.022  15.428  0.0827 -0.1071 -0.2184
 1640POPC   C1A19805   2.642  29.075  15.799 -0.0193 -0.0896 -0.0101
 1640POPC   D2A19806   2.764  29.140  16.174 -0.1490 -0.2345 -0.0888
 1640POPC   C3A19807   2.418  29.396  16.382  0.1653  0.2365 -0.1279
 1640POPC   C4A19808   2.066  29.697  16.484  0.1091  0.0635  0.4024
 1640POPC   C1B19809   3.348  28.952  15.804  0.0740  0.0951 -0.3087
 1640POPC   C2B19810   3.530  28.918  16.249 -0.2162  0.0340  0.2660
 1640POPC   C3B19811   3.518  29.002  16.681 -0.1736 -0.2443 -0.0111
 1640POPC   C4B19812   3.264  28.984  17.103  0.3871  0.2191  0.0772
 1641POPC   NC319813   1.180  17.613  15.873 -0.1159 -0.1299 -0.0205
 1641POPC   PO419814   1.353  17.583  15.509 -0.1689  0.0647 -0.2782
 1641POPC   GL119815   1.606  17.522  15.776  0.3512  0.1019  0.1865
 1641POPC   GL219816   1.890  17.507  15.868  0.0250 -0.0786  0.0075
 1641POPC   C1A19817   1.557  17.664  16.207  0.1783 -0.0954 -0.0470
 1641POPC   D2A19818   1.765  17.721  16.640 -0.1965  0.1735  0.0304
 1641POPC   C3A19819   1.612  17.959  17.048 -0.0798 -0.3082  0.1849
 1641POPC   C4A19820   1.814  18.222  17.389 -0.3887 -0.1401 -0.1757
 1641POPC   C1B19821   2.068  17.595  16.297 -0.3074 -0.1473 -0.0230
 1641POPC   C2B19822   2.401  17.654  16.648 -0.1128 -0.0436  0.1323
 1641POPC   C3B19823   2.848  17.732  16.794  0.0712 -0.2932 -0.3989
 1641POPC   C4B19824   3.036  18.138  16.626 -0.0462 -0.0476  0.3608
 1642POPC   NC319825   4.678  10.963  15.587 -0.0418 -0.5022  0.0167
 1642POPC   PO419826   4.744  11.343  15.435 -0.0469  0.1651  0.0310
 1642POPC   GL119827   4.652  11.577  15.807 -0.1012  0.3043 -0.1208
 1642POPC   GL219828   4.428  11.533  15.987 -0.2072  0.1075 -0.0785
 1642POPC   C1A19829   4.936  11.607  16.188  0.0921 -0.0691  0.0488
 1642POPC   D2A19830   5.030  11.655  16.637 -0.1092  0.1808 -0.2165
 1642POPC   C3A19831   5.305  11.657  17.034 -0.2755  0.0484 -0.0338
 1642POPC   C4A19832   5.081  11.585  17.432 -0.0553  0.3247 -0.0885
 1642POPC   C1B19833   4.493  11.504  16.426  0.0609  0.2824 -0.0552
 1642POPC   C2B19834   4.380  11.218  16.784  0.0506  0.1264  0.0017
 1642POPC   C3B19835   4.651  10.958  17.068 -0.2088  0.2107  0.0975
 1642POPC   C4B19836   4.993  10.820  17.382  0.0322  0.0535 -0.0189
 1643POPC   NC319837   8.271  17.633  15.441 -0.0661  0.2350  0.0746
 1643POPC   PO419838   8.284  17.977  15.324  0.3125  0.1836  0.1274
 1643POPC   GL119839   8.331  18.049  15.741 -0.3944 -0.1157 -0.0471
 1643POPC   GL219840   8.183  18.272  15.843  0.3127 -0.3530  0.2443
 1643POPC   C1A19841   8.707  18.101  16.036 -0.2638  0.2366  0.0120
 1643POPC   D2A19842   9.116  17.951  16.183 -0.2378 -0.2055 -0.1819
 1643POPC   C3A19843   9.089  17.940  16.656  0.0173 -0.2140  0.0848
 1643POPC   C4A19844   9.052  17.984  17.126  0.2542  0.0210 -0.1661
 1643POPC   C1B19845   8.003  18.279  16.312 -0.0689 -0.0491 -0.1460
 1643POPC   C2B19846   7.845  18.162  16.723  0.0541 -0.0524  0.1069
 1643POPC   C3B19847   7.760  17.790  17.014  0.1345 -0.0014 -0.0212
 1643POPC   C4B19848   7.520  17.552  17.339  0.2768  0.1132  0.0053
 1644POPC   NC319849  14.963   1.085  15.205  0.0459 -0.0797  0.2536
 1644POPC   PO419850  14.701   1.358  15.113  0.0383 -0.3142 -0.0111
 1644POPC   GL119851  14.616   1.242  15.512 -0.1046  0.0708  0.1967
 1644POPC   GL219852  14.460   0.977  15.457  0.1567 -0.3535 -0.0697
 1644POPC   C1A19853  14.508   1.436  15.972 -0.0046 -0.2881  0.0459
 1644POPC   D2A19854  14.433   1.869  16.155 -0.1004  0.0047  0.0339
 1644POPC   C3A19855  14.696   2.089  16.496  0.1163 -0.1589  0.1148
 1644POPC   C4A19856  15.117   2.207  16.461  0.1915 -0.2735 -0.0449
 1644POPC   C1B19857  14.301   0.939  15.881  0.3124 -0.0210  0.1486
 1644POPC   C2B19858  14.458   0.930  16.339  0.1474  0.0090 -0.0426
 1644POPC   C3B19859  14.404   0.996  16.806  0.0873 -0.0706 -0.0713
 1644POPC   C4B19860  14.250   0.999  17.251 -0.4955  0.1931  0.3301
 1645POPC   NC319861   2.612   3.522  14.969 -0.1669  0.1258 -0.0019
 1645POPC   PO419862   2.862   3.655  15.236  0.0079  0.0711  0.0413
 1645POPC   GL119863   2.911   3.701  15.551  0.1812  0.0066 -0.1336
 1645POPC   GL219864   3.051   3.842  15.783  0.1245 -0.1539  0.0705
 1645POPC   C1A19865   2.566   3.708  15.845 -0.0411  0.0606  0.1113
 1645POPC   D2A19866   2.530   3.822  16.312  0.1715 -0.1074  0.1625
 1645POPC   C3A19867   2.232   3.660  16.491 -0.0380  0.0421  0.1331
 1645POPC   C4A19868   2.128   3.610  16.923 -0.0367 -0.2085 -0.3830
 1645POPC   C1B19869   2.974   3.730  16.182 -0.0939 -0.1052 -0.3125
 1645POPC   C2B19870   2.939   3.948  16.593 -0.0141 -0.1323 -0.2010
 1645POPC   C3B19871   2.985   4.102  17.034  0.1156 -0.1121 -0.2421
 1645POPC   C4B19872   2.953   4.151  17.491 -0.0045  0.3063 -0.2723
 1646POPC   NC319873   1.372   4.353  14.808  0.0225 -0.2664  0.1196
 1646POPC   PO419874   1.597   4.673  14.822 -0.1006  0.1077  0.0206
 1646POPC   GL119875   1.530   4.848  15.138  0.0782  0.1252  0.1908
 1646POPC   GL219876   1.543   4.500  15.257 -0.1180 -0.3152 -0.2053
 1646POPC   C1A19877   1.843   5.042  15.389 -0.1359  0.0249  0.2030
 1646POPC   D2A19878   2.098   4.960  15.739 -0.0777 -0.1672 -0.1289
 1646POPC   C3A19879   2.171   5.070  16.174 -0.0607 -0.0428 -0.0260
 1646POPC   C4A19880   2.253   5.176  16.593  0.3331  0.1249 -0.2272
 1646POPC   C1B19881   1.759   4.315  15.551 -0.3591  0.1822 -0.1913
 1646POPC   C2B19882   1.759   4.292  16.042  0.2224 -0.1436 -0.1490
 1646POPC   C3B19883   1.542   4.083  16.426 -0.3794 -0.3279  0.0530
 1646POPC   C4B19884   1.309   4.111  16.792 -0.1627 -0.2135  0.0580
 1647POPC   NC319885   4.820   5.971  14.829 -0.0402  0.1929  0.0647
 1647POPC   PO419886   4.736   6.334  15.021 -0.1965  0.1777  0.0628
 1647POPC   GL119887   4.612   5.956  15.276 -0.5037 -0.1820  0.0462
 1647POPC   GL219888   4.827   5.950  15.427  0.1233  0.1600  0.1609
 1647POPC   C1A19889   4.332   6.073  15.654  0.0978 -0.0735 -0.2751
 1647POPC   D2A19890   4.437   6.012  16.087 -0.1584  0.0046  0.5442
 1647POPC   C3A19891   4.163   5.937  16.479  0.2234 -0.0072  0.2218
 1647POPC   C4A19892   3.724   6.046  16.492  0.0978 -0.1686  0.0415
 1647POPC   C1B19893   4.820   6.185  15.839 -0.0576 -0.0363  0.1620
 1647POPC   C2B19894   4.804   6.280  16.309 -0.1656  0.2468 -0.1931
 1647POPC   C3B19895   4.613   6.018  16.683 -0.1617 -0.3343  0.2116
 1647POPC   C4B19896   4.468   5.825  17.084 -0.0248 -0.0870 -0.3898
 1648POPC   NC319897  14.336   0.607  14.737  0.1079  0.1578 -0.3291
 1648POPC   PO419898  14.272   0.888  14.983  0.2109 -0.2562  0.2065
 1648POPC   GL119899  14.093   0.613  15.171 -0.0716 -0.2969  0.0209
 1648POPC   GL219900  14.267   0.442  15.272  0.1233  0.1415 -0.1608
 1648POPC   C1A19901  13.935   0.906  15.507 -0.0995 -0.0625  0.0899
 1648POPC   D2A19902  14.039   1.324  15.659  0.1002 -0.0378  0.0115
 1648POPC   C3A19903  14.008   1.372  16.148  0.2111  0.2159  0.3466
 1648POPC   C4A19904  14.338   1.427  16.444 -0.0217 -0.2048 -0.3696
 1648POPC   C1B19905  14.186   0.412  15.772  0.1866 -0.1613 -0.0205
 1648POPC   C2B19906  14.216   0.540  16.235  0.0513 -0.0049  0.2671
 1648POPC   C3B19907  14.153   0.478  16.698  0.0910  0.0716 -0.0452
 1648POPC   C4B19908  14.075   0.257  17.117 -0.0138  0.0189  0.2520
 1649POPC   NC319909  12.314  16.315  15.199 -0.0047  0.0431  0.1298
 1649POPC   PO419910  12.470  16.692  15.119  0.1967  0.1985  0.1290
 1649POPC   GL119911  12.272  16.724  15.468  0.1990  0.0242  0.3992
 1649POPC   GL219912  12.485  16.722  15.668  0.3224  0.1099  0.4232
 1649POPC   C1A19913  12.047  17.074  15.623 -0.0333  0.0178  0.1201
 1649POPC   D2A19914  12.183  17.427  15.874 -0.2744  0.1595 -0.3622
 1649POPC   C3A19915  12.424  17.435  16.246 -0.1617 -0.0054 -0.2304
 1649POPC   C4A19916  12.473  17.422  16.701 -0.1888  0.0622 -0.2008
 1649POPC   C1B19917  12.370  16.751  16.087 -0.0159  0.1904  0.1098
 1649POPC   C2B19918  12.378  16.889  16.554  0.2418 -0.0849 -0.0907
 1649POPC   C3B19919  12.483  17.047  17.006  0.1808  0.1826  0.1329
 1649POPC   C4B19920  12.686  16.859  17.326 -0.1628 -0.0202  0.0908
 1650POPC   NC319921   9.595  19.848  15.562 -0.2191 -0.1624 -0.3429
 1650POPC   PO419922   9.992  19.813  15.492  0.4338 -0.0009 -0.0573
 1650POPC   GL119923  10.007  19.894  15.849  0.0248 -0.1252 -0.0954
 1650POPC   GL219924  10.089  20.206  15.906  0.1280  0.0932 -0.2581
 1650POPC   C1A19925   9.676  19.913  16.184  0.1712  0.0345  0.0561
 1650POPC   D2A19926   9.726  19.809  16.643  0.0813  0.0203 -0.2171
 1650POPC   C3A19927   9.716  19.866  17.109  0.3116  0.2839  0.0899
 1650POPC   C4A19928  10.047  19.886  17.444  0.0706  0.0958  0.2240
 1650POPC   C1B19929  10.144  20.049  16.353  0.0439 -0.2516  0.1683
 1650POPC   C2B19930  10.168  19.809  16.790  0.1378  0.0935  0.1986
 1650POPC   C3B19931  10.242  19.530  17.119 -0.1083  0.0526 -0.1578
 1650POPC   C4B19932  10.602  19.338  17.383  0.3149 -0.0980  0.0405
 1651POPC   NC319933   7.621   3.861  15.571  0.3039  0.0357  0.0753
 1651POPC   PO419934   7.950   3.678  15.461 -0.3013  0.0292 -0.1737
 1651POPC   GL119935   8.166   3.672  15.869  0.1578  0.1306  0.2378
 1651POPC   GL219936   8.077   3.469  16.041  0.2778 -0.0665 -0.0202
 1651POPC   C1A19937   8.341   3.933  16.170  0.1165  0.0152  0.2280
 1651POPC   D2A19938   8.182   3.975  16.571 -0.0531  0.3345  0.3719
 1651POPC   C3A19939   8.232   4.009  17.035  0.0108 -0.1311 -0.1408
 1651POPC   C4A19940   8.226   3.882  17.477 -0.1384 -0.3468  0.1344
 1651POPC   C1B19941   7.930   3.558  16.485  0.2663 -0.0820  0.0520
 1651POPC   C2B19942   7.663   3.511  16.874 -0.1418 -0.1230 -0.0010
 1651POPC   C3B19943   7.321   3.519  17.194  0.0250 -0.2371  0.0948
 1651POPC   C4B19944   7.326   3.830  17.527  0.2389  0.0725  0.0650
 1652POPC   NC319945   5.006  24.180  15.188  0.1724  0.0753 -0.4293
 1652POPC   PO419946   5.413  24.151  15.158 -0.2259  0.3163  0.2559
 1652POPC   GL119947   5.418  23.995  15.566  0.1518 -0.2111  0.0748
 1652POPC   GL219948   5.689  23.908  15.570 -0.0310 -0.0169  0.1153
 1652POPC   C1A19949   5.166  23.782  15.879  0.0733  0.0642 -0.0097
 1652POPC   D2A19950   5.001  23.543  16.263  0.0104 -0.4988  0.1056
 1652POPC   C3A19951   4.982  23.591  16.674  0.1185  0.1205  0.1845
 1652POPC   C4A19952   5.127  23.685  17.128  0.1405  0.4054  0.0917
 1652POPC   C1B19953   5.625  24.009  16.030  0.2250  0.3080 -0.2025
 1652POPC   C2B19954   5.651  24.163  16.470  0.0521 -0.0608 -0.0386
 1652POPC   C3B19955   5.610  24.180  16.899 -0.1829 -0.2256 -0.1089
 1652POPC   C4B19956   5.780  24.194  17.300 -0.0096 -0.1516 -0.0086
 1653POPS   CNO19957   8.878  22.447  15.004  0.4795  0.0362  0.4309
 1653POPS   PO419958   8.608  22.147  15.081 -0.2353  0.2418 -0.1255
 1653POPS   GL119959   8.405  22.208  15.453  0.3012 -0.2267 -0.0564
 1653POPS   GL219960   8.627  22.307  15.579  0.1059  0.0011  0.0654
 1653POPS   C1A19961   8.468  21.891  15.820 -0.2489 -0.0372  0.1121
 1653POPS   D2A19962   8.379  21.677  16.246  0.0022  0.0854  0.0594
 1653POPS   C3A19963   8.039  21.911  16.486 -0.1259  0.2225 -0.0178
 1653POPS   C4A19964   7.600  22.042  16.371  0.1697  0.2549  0.0674
 1653POPS   C1B19965   8.737  22.466  16.027  0.1343 -0.1920 -0.0970
 1653POPS   C2B19966   8.867  22.428  16.444  0.0296 -0.2313 -0.0969
 1653POPS   C3B19967   8.945  22.113  16.805  0.0384 -0.1358  0.2055
 1653POPS   C4B19968   8.807  21.787  17.124 -0.0119  0.0201  0.2880
 1654POPS   CNO19969   8.697   7.159  15.565 -0.3491  0.0502  0.0536
 1654POPS   PO419970   8.555   6.988  15.234  0.1520 -0.1773  0.1036
 1654POPS   GL119971   8.131   7.003  15.491 -0.0879 -0.5185  0.1074
 1654POPS   GL219972   8.234   7.116  15.776 -0.2008 -0.0062  0.0793
 1654POPS   C1A19973   7.730   7.226  15.597 -0.2030  0.1442  0.0678
 1654POPS   D2A19974   7.438   7.236  16.029  0.1352 -0.0201  0.0358
 1654POPS   C3A19975   7.310   7.307  16.479  0.0288 -0.2106 -0.2968
 1654POPS   C4A19976   7.078   7.647  16.689  0.2765 -0.1648  0.1261
 1654POPS   C1B19977   8.221   7.374  16.135  0.1615 -0.2527  0.0649
 1654POPS   C2B19978   8.323   7.547  16.559  0.0610 -0.1704 -0.2932
 1654POPS   C3B19979   8.637   7.659  16.838  0.1156 -0.2541  0.2682
 1654POPS   C4B19980   8.909   7.748  17.168 -0.1322  0.1377 -0.4009
 1655POPS   CNO19981   9.986   7.729  14.998 -0.1470  0.0449 -0.2689
 1655POPS   PO419982  10.201   7.599  15.271  0.0476 -0.1761  0.3087
 1655POPS   GL119983  10.306   7.746  15.584  0.0899  0.2016 -0.2128
 1655POPS   GL219984  10.542   7.865  15.476  0.2772  0.1845  0.2673
 1655POPS   C1A19985  10.574   7.464  15.863 -0.0172  0.4161 -0.1730
 1655POPS   D2A19986  10.777   7.316  16.277  0.2460 -0.2783 -0.2827
 1655POPS   C3A19987  11.205   7.218  16.394 -0.0355 -0.1116  0.3069
 1655POPS   C4A19988  11.260   6.766  16.395 -0.0184 -0.4715 -0.2518
 1655POPS   C1B19989  10.657   7.988  15.947 -0.0564 -0.0566  0.3092
 1655POPS   C2B19990  10.748   8.101  16.398  0.2917 -0.0965  0.1064
 1655POPS   C3B19991  10.594   8.082  16.791 -0.0093 -0.1039 -0.1130
 1655POPS   C4B19992  10.391   8.127  17.169  0.0786 -0.1097 -0.0355
 1656POPS   CNO19993  10.385   3.724  14.956  0.0673  0.2170  0.3310
 1656POPS   PO419994  10.618   3.632  15.223 -0.3215 -0.0371  0.1071
 1656POPS   GL119995  10.529   3.656  15.629 -0.0410 -0.2222 -0.1002
 1656POPS   GL219996  10.431   3.386  15.679 -0.1055 -0.3380 -0.1650
 1656POPS   C1A19997  10.229   3.840  15.915  0.1575 -0.2690  0.0982
 1656POPS   D2A19998   9.786   3.859  15.961  0.0780 -0.0059  0.1180
 1656POPS   C3A19999   9.532   4.111  16.262  0.2823  0.0407 -0.2050
 1656POPS   C4A20000   9.542   4.107  16.725 -0.0046 -0.1371  0.2855
 1656POPS   C1B20001  10.659   3.472  16.059 -0.2716 -0.0401 -0.1712
 1656POPS   C2B20002  10.806   3.706  16.397  0.2504 -0.0230 -0.3492
 1656POPS   C3B20003  10.864   3.868  16.822  0.5718 -0.1159 -0.3374
 1656POPS   C4B20004  10.942   4.219  17.022 -0.0606  0.0671 -0.2307
 1657POPS   CNO20005   0.952   5.317  14.712 -0.3750 -0.2841 -0.2485
 1657POPS   PO420006   1.043   5.320  15.094 -0.2782 -0.3445 -0.2860
 1657POPS   GL120007   1.199   5.141  15.380 -0.1601  0.3402 -0.0992
 1657POPS   GL220008   1.134   4.821  15.421 -0.1722 -0.0738 -0.0624
 1657POPS   C1A20009   1.364   5.289  15.807  0.0661  0.0817 -0.0409
 1657POPS   D2A20010   1.728   5.283  16.118  0.0955 -0.0173  0.5113
 1657POPS   C3A20011   1.473   5.274  16.505 -0.2968 -0.0733 -0.0908
 1657POPS   C4A20012   1.458   5.000  16.874 -0.1035 -0.0475 -0.1628
 1657POPS   C1B20013   1.560   4.803  15.682 -0.0920 -0.2420  0.0538
 1657POPS   C2B20014   1.714   4.782  16.081 -0.0644 -0.1762  0.0944
 1657POPS   C3B20015   1.823   4.885  16.519  0.1160  0.0197  0.1006
 1657POPS   C4B20016   1.956   4.841  16.980 -0.0477  0.2351  0.0735
 1658POPS   CNO20017   7.078  18.458  15.420  0.0945  0.0508  0.2903
 1658POPS   PO420018   6.750  18.264  15.497 -0.0782 -0.1079  0.0856
 1658POPS   GL120019   6.484  18.266  15.873 -0.3316 -0.2031  0.4056
 1658POPS   GL220020   6.343  18.098  15.780 -0.2619  0.1335 -0.1488
 1658POPS   C1A20021   6.374  18.439  16.270  0.0987  0.1912 -0.2492
 1658POPS   D2A20022   6.534  18.494  16.663  0.2925 -0.0404  0.0134
 1658POPS   C3A20023   6.775  18.855  16.789 -0.1095  0.2111  0.0513
 1658POPS   C4A20024   6.925  19.025  17.243  0.2029 -0.2270  0.3448
 1658POPS   C1B20025   6.003  18.104  16.110 -0.2435  0.0508 -0.2626
 1658POPS   C2B20026   5.848  17.943  16.447  0.1638  0.1812 -0.1189
 1658POPS   C3B20027   5.445  18.012  16.718  0.1625 -0.0187 -0.0601
 1658POPS   C4B20028   5.199  17.629  16.918 -0.0899  0.0241 -0.2186
 1659POPS   CNO20029   0.409  10.529  15.066  0.2018  0.0963 -0.2964
 1659POPS   PO420030   0.319  10.216  15.229  0.4411 -0.1238  0.1208
 1659POPS   GL120031   0.564  10.188  15.510  0.2282 -0.1767  0.0799
 1659POPS   GL220032   0.606  10.438  15.573  0.3183  0.2478 -0.0703
 1659POPS   C1A20033   0.609  10.210  15.988 -0.2270  0.1194 -0.4560
 1659POPS   D2A20034   0.639  10.036  16.438 -0.0168  0.0102 -0.1084
 1659POPS   C3A20035   0.575   9.753  16.759 -0.0063  0.1910 -0.3116
 1659POPS   C4A20036   0.374   9.581  17.134 -0.4900  0.0558 -0.0095
 1659POPS   C1B20037   0.825  10.691  15.931 -0.3496 -0.1352  0.2808
 1659POPS   C2B20038   0.834  10.472  16.353  0.0479  0.0878 -0.1404
 1659POPS   C3B20039   0.863  10.440  16.788  0.0188  0.0863  0.2159
 1659POPS   C4B20040   0.817  10.156  17.063  0.0007 -0.0491  0.1571
 1660POPS   CNO20041   9.882  10.805  15.400  0.0808 -0.1265  0.0777
 1660POPS   PO420042   9.519  10.691  15.498 -0.1855  0.3497  0.1836
 1660POPS   GL120043   9.516  10.676  15.886 -0.0263  0.0218 -0.0137
 1660POPS   GL220044   9.350  10.558  15.992  0.2949 -0.1488 -0.1535
 1660POPS   C1A20045   9.683  10.805  16.314  0.2961  0.2349  0.4005
 1660POPS   D2A20046   9.770  11.041  16.709 -0.4066 -0.1403 -0.0622
 1660POPS   C3A20047  10.103  10.923  17.011 -0.1231  0.3077  0.2467
 1660POPS   C4A20048  10.484  10.628  16.920  0.0132  0.0052 -0.0640
 1660POPS   C1B20049   9.044  10.459  16.280 -0.1556 -0.1825 -0.1888
 1660POPS   C2B20050   8.755  10.622  16.624  0.0686 -0.1113  0.0873
 1660POPS   C3B20051   8.495  10.867  16.964 -0.0824 -0.1981 -0.0198
 1660POPS   C4B20052   8.264  11.051  17.366 -0.1292  0.4453  0.2577
 1661POPS   CNO20053   5.872  12.041  15.223  0.2818  0.2409 -0.0653
 1661POPS   PO420054   5.977  12.047  15.597 -0.2832 -0.1799 -0.2721
 1661POPS   GL120055   5.838  11.772  15.854  0.0853 -0.5585  0.0346
 1661POPS   GL220056   5.881  11.873  16.087 -0.3039  0.1645 -0.0185
 1661POPS   C1A20057   5.689  11.403  16.112  0.1213  0.1073  0.0225
 1661POPS   D2A20058   5.896  11.246  16.500 -0.2123 -0.0183 -0.2447
 1661POPS   C3A20059   6.042  11.087  16.897 -0.1100  0.0249 -0.1376
 1661POPS   C4A20060   6.280  11.220  17.291  0.0573  0.2209  0.0712
 1661POPS   C1B20061   5.908  12.013  16.589 -0.0599 -0.0665 -0.0948
 1661POPS   C2B20062   6.073  12.268  16.970 -0.3830 -0.1185 -0.3852
 1661POPS   C3B20063   6.038  12.121  17.420 -0.0347 -0.3741 -0.0407
 1661POPS   C4B20064   5.815  11.763  17.472 -0.1107 -0.0663  0.1885
 1662POPS   CNO20065  10.677  26.336  15.213  0.3175 -0.0730 -0.2263
 1662POPS   PO420066  10.944  26.288  15.441 -0.0720 -0.0266 -0.0767
 1662POPS   GL120067  10.671  26.102  15.754 -0.0978  0.1241 -0.0556
 1662POPS   GL220068  10.397  26.111  15.693  0.1522  0.0871 -0.2864
 1662POPS   C1A20069  10.813  25.945  16.195 -0.3927 -0.0449 -0.0991
 1662POPS   D2A20070  11.025  26.124  16.524 -0.1125 -0.4303 -0.0227
 1662POPS   C3A20071  10.863  26.462  16.786  0.1359 -0.2627 -0.1359
 1662POPS   C4A20072  10.801  26.389  17.211  0.1885  0.0012 -0.1663
 1662POPS   C1B20073  10.367  25.833  16.051 -0.0586  0.2027 -0.3405
 1662POPS   C2B20074  10.489  25.709  16.421  0.1034 -0.1026 -0.0581
 1662POPS   C3B20075  10.638  25.858  16.862  0.0772 -0.0498 -0.1661
 1662POPS   C4B20076  10.315  26.068  17.162  0.0216  0.0578  0.4396
 1663POPS   CNO20077  14.087  17.577  14.520  0.2277 -0.1332 -0.1234
 1663POPS   PO420078  14.216  17.509  14.886  0.1591  0.2095 -0.1927
 1663POPS   GL120079  14.082  17.288  15.252 -0.1638  0.0232  0.1930
 1663POPS   GL220080  13.834  17.183  15.327  0.0772 -0.1422 -0.0883
 1663POPS   C1A20081  14.267  17.180  15.670  0.3190 -0.2513 -0.0443
 1663POPS   D2A20082  14.184  17.099  16.122 -0.0272  0.0026 -0.0420
 1663POPS   C3A20083  13.710  16.926  16.228 -0.0842 -0.1215 -0.0943
 1663POPS   C4A20084  13.343  16.913  16.486  0.3188 -0.0789 -0.1582
 1663POPS   C1B20085  13.757  17.216  15.789 -0.0645 -0.1454 -0.2087
 1663POPS   C2B20086  13.837  17.377  16.228  0.2256 -0.3550  0.1617
 1663POPS   C3B20087  13.909  17.671  16.595 -0.1253  0.2461  0.0202
 1663POPS   C4B20088  13.971  17.893  16.978 -0.0672  0.0393  0.1573
 1664POPS   CNO20089  15.732   8.082  14.904  0.1694 -0.0336 -0.3551
 1664POPS   PO420090  15.968   8.091  15.223  0.1382  0.3383 -0.1020
 1664POPS   GL120091  15.747   8.181  15.631 -0.0969 -0.4264  0.5851
 1664POPS   GL220092  15.820   8.394  15.853 -0.0780 -0.4681  0.4219
 1664POPS   C1A20093  15.773   8.000  16.046  0.1455  0.2030 -0.2247
 1664POPS   D2A20094  15.749   8.147  16.545 -0.2520 -0.1062 -0.0915
 1664POPS   C3A20095  15.913   8.067  16.975 -0.0002 -0.0446 -0.1137
 1664POPS   C4A20096  15.838   8.139  17.439  0.0172  0.0216 -0.0049
 1664POPS   C1B20097  15.744   8.538  16.254 -0.0922  0.0190  0.2073
 1664POPS   C2B20098  16.013   8.825  16.493  0.2376 -0.0693  0.1536
 1664POPS   C3B20099  16.329   9.110  16.423  0.0511 -0.1580  0.1260
 1664POPS   C4B20100  16.643   9.473  16.390  0.0621  0.1794  0.0745
 1665POPS   CNO20101  15.218  21.442  15.068  0.1119  0.3531  0.0737
 1665POPS   PO420102  15.436  21.564  15.335  0.1998 -0.3183 -0.0616
 1665POPS   GL120103  15.534  21.646  15.686  0.3251  0.0188 -0.2832
 1665POPS   GL220104  15.284  21.618  15.923 -0.4763 -0.1660 -0.0580
 1665POPS   C1A20105  15.825  21.650  16.017 -0.2130  0.0738 -0.0520
 1665POPS   D2A20106  15.790  21.724  16.485 -0.1309  0.2647 -0.3261
 1665POPS   C3A20107  15.573  21.672  16.787 -0.0991  0.0558 -0.0498
 1665POPS   C4A20108  15.692  21.509  17.211 -0.4504 -0.1336 -0.2782
 1665POPS   C1B20109  15.303  21.811  16.307 -0.1696  0.4042 -0.1731
 1665POPS   C2B20110  15.170  22.025  16.699 -0.0759  0.1719  0.0899
 1665POPS   C3B20111  14.776  22.062  16.971  0.0016 -0.1269 -0.0208
 1665POPS   C4B20112  14.355  22.300  17.106 -0.2440  0.0847 -0.1432
 1666POPS   CNO20113  14.956   7.224  15.041  0.0080 -0.2437  0.0057
 1666POPS   PO420114  15.170   7.264  15.360  0.0005  0.2517 -0.1533
 1666POPS   GL120115  15.199   7.243  15.740 -0.1807 -0.0913 -0.4522
 1666POPS   GL220116  15.206   6.963  15.802  0.0168  0.0647  0.3477
 1666POPS   C1A20117  14.925   7.623  15.812 -0.0446 -0.0637 -0.0291
 1666POPS   D2A20118  14.859   8.012  16.068 -0.0638  0.0507 -0.0448
 1666POPS   C3A20119  14.887   8.029  16.540  0.1074  0.0828 -0.0947
 1666POPS   C4A20120  15.149   8.221  16.846  0.1742  0.1229 -0.1466
 1666POPS   C1B20121  15.054   7.267  16.168  0.0722  0.2153  0.1367
 1666POPS   C2B20122  14.932   7.565  16.477  0.1154 -0.0308 -0.0868
 1666POPS   C3B20123  14.905   7.542  16.942  0.0858  0.0507  0.0141
 1666POPS   C4B20124  14.828   7.928  17.183  0.0104  0.4718  0.3262
 1667POPS   CNO20125  14.445  19.501  15.303  0.4346  0.5001  0.0655
 1667POPS   PO420126  14.287  19.195  15.356  0.1093 -0.0407  0.0769
 1667POPS   GL120127  14.181  19.002  15.680  0.1062  0.3103 -0.2750
 1667POPS   GL220128  14.334  19.308  15.820 -0.0327 -0.0395 -0.0803
 1667POPS   C1A20129  13.976  18.921  16.067  0.1137 -0.3188 -0.0908
 1667POPS   D2A20130  13.563  18.953  16.204  0.4959  0.1908 -0.2423
 1667POPS   C3A20131  13.359  19.340  16.293  0.1434  0.1056 -0.0208
 1667POPS   C4A20132  13.479  19.757  16.053 -0.1295 -0.0361 -0.0086
 1667POPS   C1B20133  13.969  19.449  16.089 -0.1773  0.3221  0.2584
 1667POPS   C2B20134  13.827  19.300  16.543 -0.2002 -0.1956 -0.1827
 1667POPS   C3B20135  13.584  19.113  16.894  0.1428  0.3682  0.2101
 1667POPS   C4B20136  13.230  19.185  17.209  0.1947  0.0103  0.0043
 1668POPS   CNO20137  11.092  30.761  15.120 -0.2356  0.1139 -0.3558
 1668POPS   PO420138  10.924  30.464  15.282 -0.1151 -0.1402 -0.2615
 1668POPS   GL120139  10.890  30.507  15.609  0.1139 -0.0566  0.0048
 1668POPS   GL220140  10.673  30.397  15.823 -0.2423  0.0773 -0.2509
 1668POPS   C1A20141  11.146  30.602  16.019  0.1201  0.0722  0.0669
 1668POPS   D2A20142  11.184  30.725  16.432  0.1513  0.0144 -0.0454
 1668POPS   C3A20143  11.501  30.864  16.820 -0.0125  0.1071  0.2367
 1668POPS   C4A20144  11.610  31.003  17.295 -0.0474  0.2043 -0.0268
 1668POPS   C1B20145  10.725  30.236  16.207  0.0531  0.1317 -0.0323
 1668POPS   C2B20146  11.062  30.294  16.497 -0.0708  0.2271 -0.2791
 1668POPS   C3B20147  11.163  30.508  16.876 -0.0515 -0.1871 -0.0049
 1668POPS   C4B20148  11.283  30.289  17.306 -0.0311  0.0704 -0.0877
 1669POPS   CNO20149  10.682  26.969  14.783  0.1900 -0.1724  0.2545
 1669POPS   PO420150  10.765  27.285  15.014  0.0110  0.2962  0.5023
 1669POPS   GL120151  10.557  27.480  15.428 -0.0768  0.1530 -0.2918
 1669POPS   GL220152  10.768  27.477  15.552  0.3308 -0.0117  0.0349
 1669POPS   C1A20153  10.420  27.349  15.905 -0.0054 -0.2036  0.2109
 1669POPS   D2A20154  10.291  27.204  16.307  0.1944  0.3338 -0.0346
 1669POPS   C3A20155  10.705  27.178  16.607 -0.1745 -0.3384  0.1537
 1669POPS   C4A20156  11.026  27.353  16.795  0.1730 -0.1086 -0.0841
 1669POPS   C1B20157  10.872  27.614  15.998  0.0815  0.0043  0.2117
 1669POPS   C2B20158  10.852  27.652  16.455  0.1658 -0.1560 -0.2799
 1669POPS   C3B20159  10.851  27.946  16.846  0.0732 -0.6006  0.1212
 1669POPS   C4B20160  10.838  27.940  17.286  0.1691  0.0872 -0.1018
 1670POPS   CNO20161   3.120  11.376  15.050 -0.4022  0.1262 -0.1219
 1670POPS   PO420162   3.275  11.635  15.245  0.0644 -0.1195 -0.3041
 1670POPS   GL120163   3.370  11.450  15.628 -0.3017 -0.1882  0.1753
 1670POPS   GL220164   3.211  11.547  15.789 -0.0577 -0.1450  0.0068
 1670POPS   C1A20165   3.416  11.109  15.896 -0.2002 -0.1251  0.1648
 1670POPS   D2A20166   3.494  11.220  16.337 -0.0806  0.2774  0.0469
 1670POPS   C3A20167   3.806  10.951  16.565 -0.0055 -0.2315  0.0755
 1670POPS   C4A20168   3.702  10.818  16.964 -0.0816  0.1606 -0.0037
 1670POPS   C1B20169   2.854  11.832  15.918 -0.2982 -0.0344 -0.1450
 1670POPS   C2B20170   2.720  11.935  16.395 -0.3793  0.1487  0.2533
 1670POPS   C3B20171   2.614  11.781  16.830  0.1086  0.1581  0.1218
 1670POPS   C4B20172   2.783  11.428  17.124  0.3077  0.1079  0.0774
 1671POPS   CNO20173   8.364  27.644  14.486 -0.2320 -0.0388  0.2561
 1671POPS   PO420174   8.500  27.646  14.827 -0.0432  0.0433 -0.3696
 1671POPS   GL120175   8.301  27.690  15.173 -0.0316  0.0485 -0.4072
 1671POPS   GL220176   8.287  27.965  15.259  0.1444  0.0908  0.3171
 1671POPS   C1A20177   7.947  27.442  15.410  0.0579  0.0444  0.0145
 1671POPS   D2A20178   7.512  27.440  15.590  0.1731  0.0328  0.4140
 1671POPS   C3A20179   7.277  27.381  16.013  0.0965 -0.1579  0.1770
 1671POPS   C4A20180   7.460  27.336  16.424 -0.1825 -0.2564 -0.2502
 1671POPS   C1B20181   8.215  27.891  15.671  0.0339  0.0538  0.4083
 1671POPS   C2B20182   8.103  28.087  16.075  0.2421 -0.0079  0.1700
 1671POPS   C3B20183   8.043  27.989  16.566 -0.2146 -0.4578  0.1275
 1671POPS   C4B20184   8.428  27.837  16.876  0.2854 -0.1983  0.1278
 1672POPS   CNO20185   5.152   2.550  14.753  0.2089  0.1898  0.0243
 1672POPS   PO420186   5.140   2.458  15.131 -0.0547  0.2529  0.0374
 1672POPS   GL120187   5.085   2.355  15.465 -0.0403  0.1253 -0.1719
 1672POPS   GL220188   4.789   2.454  15.510  0.4405 -0.2284  0.0750
 1672POPS   C1A20189   5.105   2.566  15.863 -0.2902 -0.0074 -0.2830
 1672POPS   D2A20190   4.789   2.827  16.028 -0.3051 -0.2236  0.0366
 1672POPS   C3A20191   4.731   3.277  16.057 -0.0647  0.2878  0.0679
 1672POPS   C4A20192   4.789   3.703  16.277  0.0357  0.1626 -0.2256
 1672POPS   C1B20193   4.867   2.139  15.768 -0.1157  0.1535  0.1741
 1672POPS   C2B20194   4.889   2.097  16.169  0.0267 -0.2172 -0.0431
 1672POPS   C3B20195   4.882   1.776  16.515 -0.0927 -0.2994 -0.2758
 1672POPS   C4B20196   4.852   1.520  16.867  0.2193 -0.0298 -0.3136
 1673POPS   CNO20197  14.652   2.087  15.275  0.0700 -0.1278  0.4945
 1673POPS   PO420198  14.699   2.122  15.641  0.0710  0.0416  0.2088
 1673POPS   GL120199  14.491   2.295  15.981 -0.0244 -0.4746 -0.1510
 1673POPS   GL220200  14.176   2.368  16.033  0.0615 -0.0601  0.0250
 1673POPS   C1A20201  14.733   2.519  16.307  0.0991  0.1199 -0.2479
 1673POPS   D2A20202  14.697   2.572  16.754 -0.0404  0.0957 -0.0197
 1673POPS   C3A20203  15.065   2.407  16.955 -0.0965 -0.2048  0.1624
 1673POPS   C4A20204  15.426   2.253  17.184 -0.1777 -0.1681  0.0405
 1673POPS   C1B20205  14.246   2.239  16.494  0.1418 -0.0861 -0.0959
 1673POPS   C2B20206  14.287   2.395  16.945  0.0832  0.0354 -0.0305
 1673POPS   C3B20207  14.636   2.458  17.279  0.0123 -0.2562  0.3809
 1673POPS   C4B20208  15.062   2.565  17.447  0.0232  0.3835  0.0595
 1674POPS   CNO20209   0.579   2.625  15.303  0.0808 -0.1472 -0.1196
 1674POPS   PO420210   0.774   2.308  15.187 -0.1562 -0.2795 -0.1951
 1674POPS   GL120211   0.933   2.443  15.580  0.0020  0.1800  0.3928
 1674POPS   GL220212   1.209   2.422  15.562  0.0741 -0.0527  0.2294
 1674POPS   C1A20213   1.064   2.723  15.926 -0.0610  0.1538  0.0529
 1674POPS   D2A20214   1.114   2.851  16.367  0.2742 -0.1521 -0.0877
 1674POPS   C3A20215   0.960   2.537  16.647 -0.4878 -0.0782 -0.0312
 1674POPS   C4A20216   0.968   2.337  17.032  0.3727  0.0491 -0.2506
 1674POPS   C1B20217   1.325   2.036  15.752  0.1756 -0.0639 -0.0977
 1674POPS   C2B20218   1.695   2.101  16.060  0.0497  0.1947  0.3920
 1674POPS   C3B20219   1.801   2.256  16.468 -0.0248  0.0272  0.2305
 1674POPS   C4B20220   1.821   2.280  16.938 -0.2871 -0.0904  0.2616
 1675POPS   CNO20221   0.054  26.427  14.725  0.3783  0.1453 -0.0580
 1675POPS   PO420222  -0.038  26.481  15.106 -0.3566  0.1650 -0.0757
 1675POPS   GL120223  -0.116  26.504  15.484 -0.0245 -0.1575 -0.3163
 1675POPS   GL220224  -0.337  26.319  15.475 -0.1278 -0.4316  0.0635
 1675POPS   C1A20225   0.150  26.397  15.923  0.0342  0.1367 -0.1361
 1675POPS   D2A20226   0.111  25.965  15.952 -0.2233  0.4184  0.1003
 1675POPS   C3A20227   0.357  25.744  15.641  0.0826  0.0667  0.0931
 1675POPS   C4A20228   0.403  25.538  15.240 -0.1227 -0.0313  0.3513
 1675POPS   C1B20229  -0.319  26.569  15.897  0.3884  0.0651 -0.1208
 1675POPS   C2B20230  -0.270  26.669  16.361  0.0330 -0.1669  0.0267
 1675POPS   C3B20231  -0.083  26.702  16.755 -0.2713  0.1992 -0.2769
 1675POPS   C4B20232   0.318  26.912  16.859  0.3854 -0.1800  0.2013
 1676POPS   CNO20233   4.708   1.809  14.624  0.2963  0.3915 -0.0080
 1676POPS   PO420234   4.430   1.934  14.849 -0.1933  0.1322  0.0952
 1676POPS   GL120235   4.134   2.035  15.136  0.0428 -0.0695  0.1118
 1676POPS   GL220236   3.884   1.889  15.173  0.0487 -0.0816 -0.1437
 1676POPS   C1A20237   4.227   2.247  15.569 -0.0534  0.1101  0.0816
 1676POPS   D2A20238   4.509   2.443  15.918 -0.0365 -0.1949  0.2259
 1676POPS   C3A20239   4.426   2.631  16.302 -0.0004  0.0302 -0.1342
 1676POPS   C4A20240   4.341   2.515  16.708 -0.1410  0.1074 -0.1821
 1676POPS   C1B20241   3.916   1.795  15.605  0.4700  0.0005  0.1780
 1676POPS   C2B20242   3.663   1.824  16.022 -0.0351  0.1773  0.2426
 1676POPS   C3B20243   3.413   2.089  16.258 -0.0160  0.0876 -0.2071
 1676POPS   C4B20244   3.117   2.372  16.365  0.2047  0.1055 -0.1421
 1677POPS   CNO20245   0.040  15.972  15.492  0.0998 -0.2525  0.0298
 1677POPS   PO420246  -0.251  16.204  15.743  0.1771 -0.2391  0.1136
 1677POPS   GL120247  -0.143  16.156  16.054 -0.0170  0.0398  0.0497
 1677POPS   GL220248  -0.358  16.135  16.247  0.1937 -0.0213  0.3139
 1677POPS   C1A20249   0.094  16.364  16.405  0.0749  0.2724 -0.5103
 1677POPS   D2A20250   0.100  16.382  16.841 -0.2442 -0.0517  0.0848
 1677POPS   C3A20251   0.294  16.275  17.205 -0.0639  0.1307  0.0511
 1677POPS   C4A20252   0.757  16.209  17.279  0.1568  0.0381 -0.5941
 1677POPS   C1B20253  -0.106  15.863  16.496 -0.0468  0.0384 -0.3228
 1677POPS   C2B20254  -0.014  15.911  16.949  0.1051  0.0840  0.0911
 1677POPS   C3B20255  -0.125  15.701  17.326  0.1384  0.0049  0.3068
 1677POPS   C4B20256   0.178  15.519  17.530 -0.3138 -0.3032 -0.1154
 1678POPS   CNO20257   3.139  14.335  15.069  0.0946 -0.2423 -0.1894
 1678POPS   PO420258   3.167  14.722  15.186 -0.1009 -0.1239  0.1464
 1678POPS   GL120259   3.056  14.518  15.490  0.3342  0.0432 -0.0730
 1678POPS   GL220260   3.195  14.670  15.752 -0.2926  0.1900  0.0992
 1678POPS   C1A20261   3.112  14.127  15.755  0.2136 -0.0629 -0.2312
 1678POPS   D2A20262   2.774  13.945  16.066 -0.0538 -0.0274  0.0895
 1678POPS   C3A20263   2.954  13.691  16.404 -0.1633  0.0401  0.3108
 1678POPS   C4A20264   2.940  13.268  16.667 -0.2065  0.3165 -0.1582
 1678POPS   C1B20265   2.887  14.977  15.984 -0.1848 -0.1083  0.0712
 1678POPS   C2B20266   2.660  15.339  16.082 -0.3108 -0.3518  0.0400
 1678POPS   C3B20267   2.576  15.661  16.366 -0.1869  0.0130  0.0776
 1678POPS   C4B20268   2.449  15.814  16.804  0.2896  0.2783  0.2605
 1679POPS   CNO20269  15.868  28.192  14.968  0.2939 -0.0749 -0.1560
 1679POPS   PO420270  15.471  28.225  15.058 -0.3775 -0.0420  0.0441
 1679POPS   GL120271  15.391  28.304  15.470 -0.3032 -0.0475  0.0086
 1679POPS   GL220272  15.212  28.493  15.401  0.0115 -0.1008  0.1030
 1679POPS   C1A20273  15.567  28.079  15.877  0.4609  0.0402 -0.3262
 1679POPS   D2A20274  15.915  27.849  16.017 -0.2742 -0.2907 -0.1404
 1679POPS   C3A20275  15.915  27.522  16.341 -0.0301 -0.0035 -0.0491
 1679POPS   C4A20276  15.927  27.398  16.786  0.1540 -0.0945 -0.3976
 1679POPS   C1B20277  15.386  28.756  15.697  0.1588 -0.0400  0.4413
 1679POPS   C2B20278  15.518  28.761  16.141 -0.0031  0.0416  0.2081
 1679POPS   C3B20279  15.653  28.661  16.521  0.0899 -0.1191 -0.1724
 1679POPS   C4B20280  15.771  28.513  16.942  0.4326  0.1532  0.0610
 1680POPS   CNO20281   6.287  24.184  14.893 -0.1698  0.1602  0.0772
 1680POPS   PO420282   6.342  23.851  15.042  0.0848  0.0679  0.0742
 1680POPS   GL120283   6.331  23.865  15.478  0.3218  0.0478  0.0591
 1680POPS   GL220284   6.199  23.633  15.523 -0.0881  0.0152 -0.4372
 1680POPS   C1A20285   6.072  24.055  15.861 -0.1950 -0.0233  0.0187
 1680POPS   D2A20286   6.033  23.898  16.330  0.1770  0.1748  0.0642
 1680POPS   C3A20287   5.893  23.802  16.782  0.1000  0.0672 -0.0697
 1680POPS   C4A20288   5.622  23.737  17.131  0.0700 -0.3294 -0.2159
 1680POPS   C1B20289   6.178  23.565  15.974  0.0734 -0.0338  0.0193
 1680POPS   C2B20290   6.390  23.481  16.379 -0.2722  0.0610 -0.0711
 1680POPS   C3B20291   6.309  23.581  16.826  0.2538  0.3191 -0.1450
 1680POPS   C4B20292   6.285  23.933  17.162 -0.2476  0.0022 -0.1188
 1681POPS   CNO20293   5.587   2.504  15.291  0.0664 -0.3508  0.0150
 1681POPS   PO420294   5.809   2.774  15.221  0.0199  0.0740  0.2665
 1681POPS   GL120295   5.827   2.738  15.626  0.1048  0.4410  0.1594
 1681POPS   GL220296   5.575   2.863  15.709 -0.1463  0.1181 -0.1331
 1681POPS   C1A20297   5.590   2.458  15.990 -0.0731 -0.0027  0.3458
 1681POPS   D2A20298   5.297   2.368  16.314 -0.1886 -0.2136 -0.0272
 1681POPS   C3A20299   5.275   2.561  16.702 -0.0285  0.2713 -0.2257
 1681POPS   C4A20300   5.503   2.629  17.089 -0.1250 -0.4223 -0.2500
 1681POPS   C1B20301   5.616   2.910  16.202  0.3983 -0.0621  0.0634
 1681POPS   C2B20302   5.580   3.019  16.665 -0.0951  0.2022  0.0211
 1681POPS   C3B20303   5.226   3.009  16.960 -0.0859 -0.1560 -0.0624
 1681POPS   C4B20304   4.808   2.882  17.140  0.1912 -0.0542  0.1946
 1682POPS   CNO20305   3.024  26.183  14.693  0.0338 -0.0241  0.1558
 1682POPS   PO420306   3.162  26.478  14.926 -0.2345  0.0537  0.2860
 1682POPS   GL120307   2.784  26.591  15.029  0.3174  0.0196  0.1539
 1682POPS   GL220308   2.779  26.386  15.265 -0.3267 -0.2932  0.1809
 1682POPS   C1A20309   2.636  26.874  15.340 -0.0892 -0.2134 -0.2537
 1682POPS   D2A20310   2.454  27.308  15.530  0.1557 -0.0536 -0.1700
 1682POPS   C3A20311   2.601  27.558  15.876  0.1148  0.0884 -0.2200
 1682POPS   C4A20312   2.423  27.387  16.326 -0.1375 -0.2590  0.2766
 1682POPS   C1B20313   2.921  26.579  15.680  0.1415  0.1452 -0.0215
 1682POPS   C2B20314   2.857  26.309  16.064 -0.2331  0.0497 -0.1617
 1682POPS   C3B20315   2.574  26.262  16.455  0.2011  0.0030 -0.0790
 1682POPS   C4B20316   2.238  26.299  16.831  0.0061  0.1565  0.1253
 1683POPS   CNO20317   7.762   1.051  15.425  0.1760 -0.0138 -0.0478
 1683POPS   PO420318   7.631   1.245  15.093 -0.1096  0.1172  0.0026
 1683POPS   GL120319   7.573   1.466  15.365  0.1709 -0.1077  0.0753
 1683POPS   GL220320   7.827   1.631  15.470  0.1026 -0.1161 -0.1269
 1683POPS   C1A20321   7.324   1.359  15.704 -0.2029 -0.1595  0.4466
 1683POPS   D2A20322   7.217   1.052  16.054 -0.1411 -0.1368  0.0390
 1683POPS   C3A20323   7.271   0.984  16.536  0.0098  0.0785 -0.0656
 1683POPS   C4A20324   7.267   0.642  16.849 -0.0195  0.2446 -0.0542
 1683POPS   C1B20325   8.115   1.763  15.789  0.0881 -0.2798 -0.1958
 1683POPS   C2B20326   8.290   1.850  16.207 -0.1240 -0.0672  0.4399
 1683POPS   C3B20327   8.494   1.603  16.461 -0.6636 -0.2512  0.0419
 1683POPS   C4B20328   8.716   1.238  16.599  0.1259 -0.0714  0.3674
 1684POPS   CNO20329  13.924  24.264  15.059  0.1085  0.1280  0.1807
 1684POPS   PO420330  13.788  23.918  14.926 -0.1296 -0.1197 -0.1666
 1684POPS   GL120331  13.947  23.860  15.322  0.1998 -0.0906 -0.1826
 1684POPS   GL220332  14.231  23.888  15.337 -0.3454  0.1914  0.1045
 1684POPS   C1A20333  14.010  23.889  15.776  0.0535 -0.2400  0.3253
 1684POPS   D2A20334  14.259  23.773  16.206  0.5560 -0.0835  0.2611
 1684POPS   C3A20335  14.242  24.121  16.487 -0.2444  0.0474 -0.4877
 1684POPS   C4A20336  14.389  24.484  16.826  0.2918 -0.0404 -0.0848
 1684POPS   C1B20337  14.526  23.849  15.688 -0.1335 -0.2516  0.0380
 1684POPS   C2B20338  14.823  23.885  16.062 -0.2135  0.2891  0.1453
 1684POPS   C3B20339  14.875  23.941  16.513  0.0969  0.2882  0.1445
 1684POPS   C4B20340  14.570  24.017  16.877  0.1543 -0.2340  0.2379
 1685POPS   CNO20341   9.992  15.021  14.719 -0.0255  0.1834  0.0956
 1685POPS   PO420342   9.803  15.028  15.059 -0.4165  0.1385 -0.0295
 1685POPS   GL120343  10.203  15.110  15.119  0.0626 -0.1054  0.0710
 1685POPS   GL220344  10.402  14.914  15.205 -0.1435 -0.4408  0.1256
 1685POPS   C1A20345  10.260  15.289  15.516 -0.0643  0.0159 -0.3296
 1685POPS   D2A20346  10.076  15.669  15.673 -0.2537  0.1153  0.0271
 1685POPS   C3A20347   9.796  15.866  15.970  0.2466  0.0583  0.1506
 1685POPS   C4A20348   9.449  15.817  16.311  0.0963  0.0451 -0.1802
 1685POPS   C1B20349  10.389  14.796  15.622  0.0319  0.0682  0.0035
 1685POPS   C2B20350  10.403  14.618  16.056  0.3693 -0.1066  0.0023
 1685POPS   C3B20351  10.463  14.375  16.437  0.2010  0.0641 -0.1224
 1685POPS   C4B20352  10.529  14.358  16.944 -0.1668 -0.0515  0.4145
 1686POPS   CNO20353   9.869  19.474  15.096 -0.1660 -0.0085  0.1187
 1686POPS   PO420354   9.631  19.340  15.377 -0.0249  0.4629  0.0654
 1686POPS   GL120355   9.671  19.384  15.666 -0.1304 -0.2841 -0.0296
 1686POPS   GL220356   9.812  19.506  15.855  0.0220 -0.5096  0.0140
 1686POPS   C1A20357   9.431  19.393  16.085  0.0566  0.0217 -0.2708
 1686POPS   D2A20358   9.401  19.341  16.566 -0.1473 -0.1601  0.1354
 1686POPS   C3A20359   9.742  19.407  16.914 -0.0209 -0.1423 -0.2583
 1686POPS   C4A20360   9.813  19.310  17.354 -0.0156  0.3845 -0.1514
 1686POPS   C1B20361   9.999  19.459  16.247 -0.0020  0.1841 -0.0197
 1686POPS   C2B20362  10.152  19.330  16.614  0.0355  0.1643 -0.2813
 1686POPS   C3B20363  10.573  19.252  16.841 -0.1047  0.0196  0.3173
 1686POPS   C4B20364  10.861  18.995  17.001 -0.0232  0.3878  0.1487
 1687POPS   CNO20365  10.570  12.945  15.092 -0.2821 -0.0563 -0.2518
 1687POPS   PO420366  10.325  12.675  15.185  0.1586  0.2312  0.4411
 1687POPS   GL120367  10.252  12.983  15.468 -0.0249  0.2697  0.2399
 1687POPS   GL220368  10.564  12.918  15.593  0.0138 -0.2963 -0.2694
 1687POPS   C1A20369  10.252  13.269  15.849 -0.0967  0.0916  0.0388
 1687POPS   D2A20370  10.422  13.429  16.255  0.1519  0.0829  0.0015
 1687POPS   C3A20371  10.599  13.195  16.646  0.0602 -0.0836  0.2743
 1687POPS   C4A20372  11.001  13.108  16.811 -0.0630  0.0801  0.0001
 1687POPS   C1B20373  10.601  12.979  16.090  0.0190 -0.1815 -0.1537
 1687POPS   C2B20374  10.772  12.750  16.467 -0.4012  0.3934 -0.0571
 1687POPS   C3B20375  10.763  12.694  16.964  0.1361  0.0676  0.3527
 1687POPS   C4B20376  10.838  12.265  17.134  0.3474 -0.2531  0.0917
 1688POPS   CNO20377  15.231   6.200  15.380  0.2677 -0.3898 -0.1467
 1688POPS   PO420378  15.417   5.891  15.519 -0.2078  0.1803  0.1198
 1688POPS   GL120379  15.426   5.932  15.947  0.1773  0.2717 -0.0955
 1688POPS   GL220380  15.297   6.237  15.978 -0.2969  0.0275  0.2142
 1688POPS   C1A20381  15.573   5.906  16.388  0.1191  0.0169  0.1287
 1688POPS   D2A20382  15.647   6.099  16.771  0.0416 -0.0185 -0.2312
 1688POPS   C3A20383  15.644   5.824  17.094 -0.0998 -0.0474 -0.3156
 1688POPS   C4A20384  15.848   5.620  17.456  0.1753  0.1419  0.0955
 1688POPS   C1B20385  15.260   6.310  16.414 -0.0040 -0.2093 -0.0988
 1688POPS   C2B20386  15.149   6.130  16.805  0.1602  0.1084 -0.1513
 1688POPS   C3B20387  15.241   6.121  17.254 -0.2988 -0.0440  0.1089
 1688POPS   C4B20388  15.536   6.033  17.585  0.1707  0.1398 -0.2430
 1689POPS   CNO20389  15.183  11.884  14.849 -0.0028  0.0015  0.1418
 1689POPS   PO420390  14.942  11.625  14.967  0.1044 -0.1633  0.1338
 1689POPS   GL120391  14.867  11.514  15.375 -0.2764  0.0262 -0.1604
 1689POPS   GL220392  15.153  11.606  15.478  0.0817 -0.1123 -0.0066
 1689POPS   C1A20393  14.653  11.278  15.679 -0.1451  0.0802  0.2317
 1689POPS   D2A20394  14.824  10.967  15.965 -0.0995 -0.1274 -0.4743
 1689POPS   C3A20395  14.850  11.074  16.421 -0.0338  0.1922  0.0000
 1689POPS   C4A20396  15.049  11.230  16.843  0.1427 -0.2112 -0.0132
 1689POPS   C1B20397  15.030  11.487  15.904 -0.0599  0.1508 -0.5189
 1689POPS   C2B20398  14.855  11.524  16.343 -0.0446 -0.1133 -0.1218
 1689POPS   C3B20399  14.652  11.644  16.741  0.1770 -0.2702  0.0760
 1689POPS   C4B20400  14.830  11.734  17.118 -0.1107  0.1143 -0.1379
 1690POPS   CNO20401   9.148  19.325  15.241  0.1031 -0.0301  0.0089
 1690POPS   PO420402   9.193  19.555  15.537  0.0030  0.1485  0.0846
 1690POPS   GL120403   9.093  19.542  15.895 -0.0897 -0.0075  0.0586
 1690POPS   GL220404   9.223  19.802  16.026 -0.0790  0.0645  0.0360
 1690POPS   C1A20405   8.964  19.468  16.279  0.1738  0.1001  0.0278
 1690POPS   D2A20406   8.953  19.325  16.709  0.2328 -0.1493  0.1165
 1690POPS   C3A20407   8.753  19.115  17.054  0.0618  0.2787  0.2137
 1690POPS   C4A20408   8.756  19.260  17.527 -0.1346  0.0179 -0.3708
 1690POPS   C1B20409   9.214  19.893  16.505  0.0743  0.2222  0.0852
 1690POPS   C2B20410   9.239  19.691  16.914 -0.1987  0.1717 -0.1512
 1690POPS   C3B20411   9.026  19.606  17.298 -0.0652 -0.1438 -0.0022
 1690POPS   C4B20412   9.094  19.595  17.775 -0.0231 -0.1134 -0.0289
 1691POPS   CNO20413   4.785   4.320  15.166  0.0481 -0.1009  0.0790
 1691POPS   PO420414   4.866   4.681  15.092 -0.3535  0.0950 -0.2378
 1691POPS   GL120415   5.021   4.466  15.468 -0.0167  0.1601 -0.1687
 1691POPS   GL220416   5.129   4.163  15.537  0.4823 -0.1404  0.1367
 1691POPS   C1A20417   5.014   4.804  15.805  0.1897 -0.0128 -0.2220
 1691POPS   D2A20418   5.142   5.084  16.108 -0.1874  0.0019 -0.0196
 1691POPS   C3A20419   5.023   4.979  16.548 -0.3261  0.2112  0.0387
 1691POPS   C4A20420   4.551   4.978  16.487  0.0039  0.2512  0.2107
 1691POPS   C1B20421   4.872   4.316  15.916  0.3365 -0.2098  0.1552
 1691POPS   C2B20422   4.647   4.266  16.323  0.3155  0.2036  0.1796
 1691POPS   C3B20423   4.571   4.011  16.694  0.0475  0.1135 -0.1874
 1691POPS   C4B20424   4.374   3.998  17.116  0.2659 -0.2381  0.2460
 1692POPS   CNO20425   0.149  29.921  14.791 -0.0314 -0.1344 -0.0660
 1692POPS   PO420426   0.116  29.979  15.171 -0.2436  0.1366 -0.3214
 1692POPS   GL120427   0.068  30.204  15.577 -0.2871  0.3443  0.0240
 1692POPS   GL220428   0.441  30.121  15.551 -0.1823 -0.0319 -0.1742
 1692POPS   C1A20429  -0.244  29.937  15.855 -0.0400  0.0063  0.3877
 1692POPS   D2A20430  -0.171  29.552  16.100  0.2361 -0.0652  0.2430
 1692POPS   C3A20431  -0.135  29.584  16.572 -0.1011 -0.1050  0.0170
 1692POPS   C4A20432   0.099  29.391  16.916  0.0332  0.0412  0.1534
 1692POPS   C1B20433   0.233  29.946  15.956  0.0725  0.0050  0.0778
 1692POPS   C2B20434   0.358  29.649  16.292  0.0353 -0.0865 -0.0068
 1692POPS   C3B20435   0.594  29.413  16.593  0.0837 -0.0392 -0.3352
 1692POPS   C4B20436   0.571  29.117  16.971 -0.2733 -0.0862  0.2808
 1693POPS   CNO20437   2.527  17.618  14.986  0.1681 -0.1225  0.1531
 1693POPS   PO420438   2.576  17.946  14.787  0.1479  0.0913  0.2782
 1693POPS   GL120439   2.717  18.093  15.150 -0.5738  0.2726 -0.0635
 1693POPS   GL220440   3.032  17.959  15.090  0.1985 -0.0797  0.0350
 1693POPS   C1A20441   2.744  17.869  15.535 -0.0073  0.0133  0.4192
 1693POPS   D2A20442   2.926  17.675  15.932  0.3813  0.0678  0.0439
 1693POPS   C3A20443   3.224  17.849  16.193  0.0012 -0.2799  0.0740
 1693POPS   C4A20444   3.303  17.701  16.634  0.3153  0.0566  0.3942
 1693POPS   C1B20445   3.444  18.026  15.283 -0.0933 -0.2362  0.1788
 1693POPS   C2B20446   3.824  18.004  15.508 -0.4945  0.1381  0.0044
 1693POPS   C3B20447   4.047  18.413  15.600  0.1834  0.2100 -0.4089
 1693POPS   C4B20448   4.389  18.698  15.542 -0.1723  0.0995 -0.3272
 1694POPS   CNO20449   8.940  16.679  14.913 -0.1875 -0.1140  0.0274
 1694POPS   PO420450   8.718  16.419  15.021  0.1432 -0.2221  0.1322
 1694POPS   GL120451   8.638  16.553  15.370  0.5060  0.1302  0.1620
 1694POPS   GL220452   8.865  16.762  15.461 -0.3496  0.1574  0.0392
 1694POPS   C1A20453   8.322  16.603  15.706  0.0521 -0.3562  0.0712
 1694POPS   D2A20454   8.208  16.666  16.171 -0.3485  0.0657 -0.0147
 1694POPS   C3A20455   8.289  16.549  16.619  0.3005  0.0494 -0.0648
 1694POPS   C4A20456   8.361  16.172  16.764 -0.0838  0.1837 -0.1617
 1694POPS   C1B20457   9.129  16.617  15.817 -0.3050 -0.6589  0.0034
 1694POPS   C2B20458   9.206  16.539  16.271 -0.3578 -0.1264  0.4064
 1694POPS   C3B20459   9.559  16.297  16.481  0.0975 -0.0189  0.1165
 1694POPS   C4B20460   9.739  16.218  16.904 -0.1276  0.3377  0.3902
 1695POPS   CNO20461  10.184  27.229  15.027 -0.0448  0.0619 -0.2780
 1695POPS   PO420462   9.868  27.149  14.893 -0.0141 -0.2701  0.1252
 1695POPS   GL120463   9.580  27.040  15.265  0.0469 -0.0075  0.0309
 1695POPS   GL220464   9.734  27.206  15.396  0.2437 -0.2618 -0.0987
 1695POPS   C1A20465   9.212  27.289  15.400 -0.1344 -0.3862 -0.1468
 1695POPS   D2A20466   8.902  27.431  15.747  0.0665 -0.1529 -0.2172
 1695POPS   C3A20467   8.688  27.180  16.024 -0.2072 -0.1631  0.0179
 1695POPS   C4A20468   8.236  27.177  16.165  0.0799 -0.0046  0.0077
 1695POPS   C1B20469   9.955  27.168  15.834 -0.2613 -0.1062 -0.0523
 1695POPS   C2B20470   9.777  27.198  16.225 -0.1647 -0.1998 -0.0550
 1695POPS   C3B20471   9.678  27.244  16.632 -0.0670  0.0606 -0.0499
 1695POPS   C4B20472   9.724  27.464  17.048 -0.3822  0.2189  0.0170
 1696POPS   CNO20473  11.188   0.368  15.149 -0.0432  0.1140 -0.1571
 1696POPS   PO420474  10.966   0.199  15.358 -0.2676 -0.0680  0.0053
 1696POPS   GL120475  11.137   0.281  15.679 -0.5408  0.0244 -0.1161
 1696POPS   GL220476  11.415   0.478  15.667 -0.5457  0.1718  0.0698
 1696POPS   C1A20477  11.131   0.364  16.129 -0.3102  0.2163  0.1493
 1696POPS   D2A20478  11.369  -0.010  16.335 -0.3654 -0.1397  0.1860
 1696POPS   C3A20479  11.511   0.156  16.712 -0.2532  0.0069 -0.2009
 1696POPS   C4A20480  11.358   0.152  17.123 -0.1337  0.1860  0.2929
 1696POPS   C1B20481  11.698   0.594  16.081  0.2888  0.0226 -0.1040
 1696POPS   C2B20482  11.543   0.613  16.522  0.1953 -0.0244 -0.0035
 1696POPS   C3B20483  11.530   0.703  16.998 -0.1602 -0.2351  0.1588
 1696POPS   C4B20484  11.446   0.610  17.472 -0.0850 -0.6611  0.4104
 1697POPS   CNO20485   4.952  23.324  14.802 -0.1513  0.0822 -0.0769
 1697POPS   PO420486   4.655  23.112  14.983  0.4719 -0.2178 -0.1247
 1697POPS   GL120487   4.636  23.073  15.329  0.0176 -0.0053 -0.4782
 1697POPS   GL220488   4.625  22.815  15.363  0.1562 -0.0203  0.0620
 1697POPS   C1A20489   4.829  23.215  15.687  0.0517 -0.1861  0.0156
 1697POPS   D2A20490   5.252  23.111  15.774  0.1214 -0.0725 -0.2612
 1697POPS   C3A20491   5.379  23.021  16.218  0.1982  0.0767  0.1782
 1697POPS   C4A20492   5.480  22.952  16.636 -0.0862  0.2530  0.0067
 1697POPS   C1B20493   5.018  22.734  15.563 -0.0987  0.0531  0.0901
 1697POPS   C2B20494   5.112  22.601  15.997 -0.0288  0.0474  0.3333
 1697POPS   C3B20495   5.115  22.586  16.451 -0.0581  0.0349 -0.1703
 1697POPS   C4B20496   5.122  22.609  16.853  0.1215 -0.0314  0.0477
 1698POPS   CNO20497   5.489  21.639  14.643 -0.0761  0.1762  0.0803
 1698POPS   PO420498   5.584  21.481  14.963 -0.0310  0.2340 -0.0180
 1698POPS   GL120499   5.535  21.531  15.254 -0.0039 -0.4391  0.0792
 1698POPS   GL220500   5.776  21.650  15.455  0.0723 -0.0264 -0.3135
 1698POPS   C1A20501   5.421  21.519  15.732 -0.1404  0.1083 -0.3486
 1698POPS   D2A20502   5.014  21.413  15.941  0.3340  0.2658 -0.1713
 1698POPS   C3A20503   4.789  21.332  16.289  0.4301  0.2528 -0.1684
 1698POPS   C4A20504   4.518  21.103  16.606  0.3133 -0.0118  0.2887
 1698POPS   C1B20505   5.880  21.582  15.933  0.3800 -0.0928 -0.1179
 1698POPS   C2B20506   5.819  21.343  16.320 -0.3452 -0.1517 -0.0784
 1698POPS   C3B20507   5.705  20.951  16.593 -0.0147 -0.2151  0.0174
 1698POPS   C4B20508   5.818  20.703  16.979  0.0556 -0.1917  0.3376
 1699POPS   CNO20509  15.205   8.865  14.943 -0.1755 -0.1276 -0.1167
 1699POPS   PO420510  15.174   8.532  15.179  0.0941 -0.0846 -0.0269
 1699POPS   GL120511  15.133   8.468  15.614 -0.0004 -0.0364  0.0562
 1699POPS   GL220512  15.363   8.279  15.784  0.3929  0.0783 -0.2366
 1699POPS   C1A20513  14.882   8.511  15.991  0.1848 -0.0108 -0.1323
 1699POPS   D2A20514  14.593   8.338  16.310 -0.2902 -0.0279 -0.0714
 1699POPS   C3A20515  14.182   8.493  16.512 -0.1792  0.0393 -0.0485
 1699POPS   C4A20516  14.006   8.353  16.864 -0.0466 -0.1690 -0.0976
 1699POPS   C1B20517  15.264   8.295  16.230 -0.2718  0.1940  0.1496
 1699POPS   C2B20518  14.985   8.574  16.482 -0.2775  0.0182 -0.0633
 1699POPS   C3B20519  15.099   8.738  16.895 -0.1128 -0.2550 -0.2409
 1699POPS   C4B20520  15.488   8.971  17.095 -0.1551 -0.2933  0.0428
 1700POPS   CNO20521  12.739  27.002  15.325 -0.2004 -0.0192  0.1230
 1700POPS   PO420522  12.910  27.352  15.426 -0.0094 -0.1837  0.0105
 1700POPS   GL120523  13.017  27.549  15.801  0.0129  0.0257  0.0308
 1700POPS   GL220524  12.930  27.398  16.019  0.1082 -0.1665 -0.2298
 1700POPS   C1A20525  12.955  27.959  15.981 -0.0605 -0.2122  0.2290
 1700POPS   D2A20526  12.756  28.312  16.167  0.0794  0.2048  0.0318
 1700POPS   C3A20527  12.372  28.330  16.376  0.2138  0.2810 -0.0664
 1700POPS   C4A20528  11.983  28.335  16.657 -0.2392 -0.3339 -0.0653
 1700POPS   C1B20529  13.132  27.342  16.376 -0.1098  0.2522  0.2312
 1700POPS   C2B20530  13.130  27.462  16.816 -0.1713 -0.2469  0.2526
 1700POPS   C3B20531  13.106  27.526  17.284 -0.0927  0.2298 -0.0888
 1700POPS   C4B20532  13.111  27.295  17.700  0.1097  0.1556 -0.0137
 1701POPS   CNO20533   3.269  27.793  14.641  0.1097  0.4134 -0.1384
 1701POPS   PO420534   3.234  27.843  15.019 -0.0439  0.0173  0.1768
 1701POPS   GL120535   3.174  27.574  15.296 -0.0574 -0.5959  0.0703
 1701POPS   GL220536   3.175  27.685  15.513  0.3800 -0.0224  0.1655
 1701POPS   C1A20537   2.696  27.664  15.361  0.0390 -0.0544 -0.0187
 1701POPS   D2A20538   2.219  27.842  15.464  0.2183 -0.3893  0.1436
 1701POPS   C3A20539   2.165  27.663  15.889 -0.3475  0.0821 -0.3923
 1701POPS   C4A20540   1.983  27.599  16.273  0.3609 -0.1907 -0.1448
 1701POPS   C1B20541   3.045  27.962  15.849 -0.2033 -0.0043  0.2571
 1701POPS   C2B20542   2.947  28.205  16.218 -0.1669 -0.2340 -0.2065
 1701POPS   C3B20543   2.788  28.319  16.649  0.1338  0.1659 -0.2837
 1701POPS   C4B20544   2.734  27.998  17.028  0.3711  0.1000  0.2662
 1702POPS   CNO20545  15.644  25.677  14.995  0.2253  0.2580  0.1421
 1702POPS   PO420546  15.466  26.013  15.021 -0.0545  0.3666 -0.0185
 1702POPS   GL120547  15.529  25.844  15.445  0.3525  0.0045  0.1567
 1702POPS   GL220548  15.767  25.817  15.460  0.4129 -0.1042  0.0523
 1702POPS   C1A20549  15.513  26.035  15.868 -0.0523  0.0471  0.3203
 1702POPS   D2A20550  15.708  26.221  16.270 -0.0252 -0.2812  0.0857
 1702POPS   C3A20551  16.074  26.029  16.466  0.4481 -0.0085 -0.1887
 1702POPS   C4A20552  16.392  26.032  16.751 -0.0160 -0.0259  0.1281
 1702POPS   C1B20553  15.869  25.354  15.524 -0.4384  0.0019  0.0925
 1702POPS   C2B20554  16.109  25.184  15.916 -0.0554 -0.0394 -0.0005
 1702POPS   C3B20555  16.203  24.992  16.394  0.0095  0.0540  0.1261
 1702POPS   C4B20556  16.130  25.125  16.839  0.3769 -0.1468 -0.0746
 1703POPS   CNO20557   9.357  27.861  14.521 -0.0009  0.0772 -0.2324
 1703POPS   PO420558   9.320  27.851  14.883  0.1283 -0.0581  0.0625
 1703POPS   GL120559   9.061  27.761  15.306  0.1117 -0.1529  0.1013
 1703POPS   GL220560   8.761  27.775  15.317 -0.1326  0.0908 -0.4358
 1703POPS   C1A20561   9.199  27.804  15.802  0.0990  0.4692  0.1217
 1703POPS   D2A20562   8.985  27.841  16.219  0.2175 -0.0592  0.2672
 1703POPS   C3A20563   8.943  27.860  16.681 -0.1465  0.0946 -0.0069
 1703POPS   C4A20564   9.355  27.837  16.981  0.1662  0.1821 -0.0048
 1703POPS   C1B20565   8.488  27.414  15.523 -0.0991  0.0564  0.2367
 1703POPS   C2B20566   8.388  26.995  15.679  0.3325  0.2415  0.2482
 1703POPS   C3B20567   8.144  26.625  15.824  0.1875  0.0892 -0.1382
 1703POPS   C4B20568   8.242  26.232  15.967  0.2153  0.2152 -0.0325
 1704POPS   CNO20569  15.418  20.073  15.181 -0.0921 -0.1769  0.0443
 1704POPS   PO420570  15.289  20.151  15.535 -0.0856 -0.1393  0.1127
 1704POPS   GL120571  15.292  20.403  15.795  0.1306  0.4067  0.1033
 1704POPS   GL220572  15.519  20.390  15.922 -0.1287 -0.0411 -0.2886
 1704POPS   C1A20573  15.212  20.675  16.177  0.0583 -0.0626  0.0705
 1704POPS   D2A20574  15.325  20.788  16.621 -0.0131 -0.2994 -0.2809
 1704POPS   C3A20575  15.212  20.775  17.027 -0.2087  0.4216  0.1994
 1704POPS   C4A20576  15.225  20.667  17.444 -0.1460  0.0529  0.3433
 1704POPS   C1B20577  15.775  20.572  16.293  0.4826  0.0167  0.0707
 1704POPS   C2B20578  15.803  20.683  16.677 -0.0068  0.2580 -0.2476
 1704POPS   C3B20579  16.008  20.993  16.966  0.2202  0.1822  0.2046
 1704POPS   C4B20580  16.206  21.201  17.313 -0.1773  0.1024 -0.0949
 1705POPS   CNO20581   8.932  22.955  15.122  0.2890  0.0477 -0.1452
 1705POPS   PO420582   8.734  22.818  15.407 -0.0801 -0.0376 -0.1907
 1705POPS   GL120583   8.799  22.912  15.745  0.3942 -0.1365  0.2820
 1705POPS   GL220584   9.087  23.017  15.683 -0.0112 -0.3297  0.2586
 1705POPS   C1A20585   8.868  22.937  16.271 -0.1347 -0.1618 -0.3079
 1705POPS   D2A20586   8.813  22.910  16.744  0.0220  0.0281 -0.1173
 1705POPS   C3A20587   9.063  23.160  17.059  0.3590  0.0856 -0.0828
 1705POPS   C4A20588   9.114  23.540  17.325  0.0287 -0.1665  0.0958
 1705POPS   C1B20589   9.413  23.072  15.997 -0.0569 -0.1195 -0.0319
 1705POPS   C2B20590   9.621  23.340  16.334 -0.1643 -0.1429  0.1426
 1705POPS   C3B20591   9.504  23.280  16.787  0.1491 -0.0342  0.2191
 1705POPS   C4B20592   9.503  23.246  17.278 -0.0466 -0.0875 -0.2302
 1706POPS   CNO20593  14.558   5.623  15.425  0.0284 -0.1549 -0.1552
 1706POPS   PO420594  14.478   5.295  15.503  0.1305  0.1004 -0.0007
 1706POPS   GL120595  14.556   5.195  15.853 -0.0667 -0.0434 -0.1249
 1706POPS   GL220596  14.674   5.392  16.061  0.3378  0.0443  0.1562
 1706POPS   C1A20597  14.203   5.200  16.125 -0.2696 -0.0405 -0.1595
 1706POPS   D2A20598  14.167   5.405  16.520  0.0259  0.1973  0.1099
 1706POPS   C3A20599  14.018   5.175  16.939 -0.2049  0.3076 -0.3200
 1706POPS   C4A20600  13.856   4.976  17.323 -0.0499 -0.0114  0.4522
 1706POPS   C1B20601  14.751   5.210  16.462  0.1219  0.0234  0.5081
 1706POPS   C2B20602  14.338   4.955  16.613 -0.0247 -0.2090 -0.2951
 1706POPS   C3B20603  14.134   4.657  16.941  0.1147  0.0182  0.1076
 1706POPS   C4B20604  14.018   4.355  17.257  0.0514  0.0926 -0.1197
 1707POPS   CNO20605   1.647  19.284  14.700 -0.0757  0.0236 -0.1485
 1707POPS   PO420606   1.984  19.100  14.703  0.3483 -0.0531  0.0042
 1707POPS   GL120607   2.249  19.037  15.034  0.0909  0.1802 -0.3887
 1707POPS   GL220608   2.190  18.811  15.176  0.1201 -0.2100 -0.1338
 1707POPS   C1A20609   2.551  19.275  15.290  0.2417  0.0039  0.4746
 1707POPS   D2A20610   2.684  19.641  15.587 -0.2101 -0.2495  0.0939
 1707POPS   C3A20611   2.737  19.826  15.997  0.2953  0.1657 -0.5177
 1707POPS   C4A20612   2.791  19.672  16.425 -0.1548 -0.0796  0.2108
 1707POPS   C1B20613   2.100  19.147  15.526  0.1807 -0.2241 -0.2297
 1707POPS   C2B20614   2.109  19.061  15.969 -0.0682  0.1326  0.1683
 1707POPS   C3B20615   2.049  18.884  16.395 -0.4009 -0.0981 -0.2651
 1707POPS   C4B20616   2.219  19.071  16.830 -0.0573  0.2878  0.0840
 1708POPS   CNO20617   6.485  12.591  14.680  0.0319 -0.0000  0.1054
 1708POPS   PO420618   6.488  12.729  15.065 -0.0082  0.2477 -0.0057
 1708POPS   GL120619   6.664  12.840  15.389 -0.1288 -0.1718  0.1260
 1708POPS   GL220620   6.775  13.098  15.352 -0.1750  0.0198 -0.1433
 1708POPS   C1A20621   6.464  12.824  15.772  0.1548  0.1141 -0.0296
 1708POPS   D2A20622   6.072  13.027  15.802  0.3466 -0.1160 -0.0411
 1708POPS   C3A20623   6.151  12.941  16.206 -0.0510  0.1409  0.1042
 1708POPS   C4A20624   6.277  12.957  16.634 -0.1085  0.0221  0.2774
 1708POPS   C1B20625   7.038  13.126  15.738 -0.1202  0.0673  0.1697
 1708POPS   C2B20626   7.129  13.129  16.153  0.0583  0.1882 -0.1225
 1708POPS   C3B20627   7.310  13.254  16.591  0.3708 -0.2391  0.1207
 1708POPS   C4B20628   7.300  13.261  17.045 -0.0014 -0.0724  0.1252
 1709POPS   CNO20629   2.301   7.642  15.352  0.1554 -0.3691 -0.1370
 1709POPS   PO420630   2.046   7.464  15.172  0.2983 -0.0429  0.0687
 1709POPS   GL120631   1.995   7.408  15.587 -0.0936  0.3894 -0.3152
 1709POPS   GL220632   1.728   7.373  15.627  0.0066 -0.0313  0.1292
 1709POPS   C1A20633   1.917   7.552  16.015  0.0406 -0.0782 -0.0516
 1709POPS   D2A20634   2.027   7.736  16.411  0.0705  0.0753 -0.0217
 1709POPS   C3A20635   2.243   7.491  16.668  0.1346 -0.0387  0.1464
 1709POPS   C4A20636   2.380   7.395  17.164 -0.0274 -0.1902 -0.0074
 1709POPS   C1B20637   1.787   7.075  15.998 -0.3301  0.0569 -0.2292
 1709POPS   C2B20638   1.693   6.830  16.370  0.3906 -0.0044  0.1298
 1709POPS   C3B20639   1.549   6.569  16.728  0.1505 -0.3995 -0.4607
 1709POPS   C4B20640   1.241   6.563  17.112  0.1421 -0.2615  0.1761
 1710POPS   CNO20641   9.797  16.006  14.922 -0.3620 -0.1530 -0.0026
 1710POPS   PO420642   9.794  16.320  15.113 -0.1201 -0.1049 -0.0341
 1710POPS   GL120643   9.686  16.403  15.510  0.2315  0.1071 -0.3294
 1710POPS   GL220644   9.948  16.597  15.583  0.2613  0.2502  0.0737
 1710POPS   C1A20645   9.351  16.159  15.825 -0.2594 -0.1757  0.2061
 1710POPS   D2A20646   9.031  15.956  16.100  0.1777 -0.3418  0.0286
 1710POPS   C3A20647   8.975  15.703  16.472  0.0638  0.0815 -0.2361
 1710POPS   C4A20648   8.720  15.783  16.836 -0.1275 -0.0817 -0.0396
 1710POPS   C1B20649   9.708  16.544  15.990 -0.0343 -0.1042  0.0495
 1710POPS   C2B20650   9.685  16.786  16.406  0.2017  0.4024  0.0828
 1710POPS   C3B20651   9.700  16.776  16.882 -0.0478  0.2066 -0.1407
 1710POPS   C4B20652   9.282  16.593  17.053 -0.0887 -0.1050 -0.1879
 1711POPS   CNO20653   7.048  19.684  14.492  0.1782 -0.0053  0.0712
 1711POPS   PO420654   7.065  19.832  14.863  0.3544  0.2091 -0.0260
 1711POPS   GL120655   6.905  19.550  15.206  0.0167 -0.2230 -0.0465
 1711POPS   GL220656   6.654  19.680  15.385  0.2215  0.1275  0.0582
 1711POPS   C1A20657   7.006  19.460  15.637 -0.0208 -0.1450  0.2894
 1711POPS   D2A20658   6.760  19.276  15.969  0.3090  0.0750 -0.3155
 1711POPS   C3A20659   6.585  18.968  16.288 -0.2692 -0.0367  0.2636
 1711POPS   C4A20660   6.235  18.903  16.567  0.2029  0.3480  0.3901
 1711POPS   C1B20661   6.526  19.752  15.806  0.2753 -0.0568  0.0425
 1711POPS   C2B20662   6.502  19.582  16.237  0.0083 -0.1556  0.1453
 1711POPS   C3B20663   6.498  19.333  16.668 -0.0489 -0.0472 -0.2115
 1711POPS   C4B20664   6.327  19.168  17.048 -0.2766  0.2625  0.0605
 1712POPS   CNO20665   7.381  15.249  15.333 -0.0026  0.1891  0.0157
 1712POPS   PO420666   7.537  15.610  15.318 -0.0380 -0.2333 -0.0476
 1712POPS   GL120667   7.557  15.652  15.760  0.0614 -0.1077 -0.0656
 1712POPS   GL220668   7.288  15.706  15.744 -0.1159 -0.0401  0.2372
 1712POPS   C1A20669   7.491  15.901  16.146 -0.0178 -0.0070  0.2398
 1712POPS   D2A20670   7.359  16.015  16.508 -0.1711 -0.1698 -0.1763
 1712POPS   C3A20671   6.969  15.922  16.698  0.2241  0.1209  0.1739
 1712POPS   C4A20672   6.740  16.190  17.006 -0.0516  0.3422 -0.0032
 1712POPS   C1B20673   7.015  15.794  16.129  0.0407 -0.3686 -0.1680
 1712POPS   C2B20674   6.637  16.000  16.320  0.1413  0.1896 -0.4245
 1712POPS   C3B20675   6.371  16.044  16.711 -0.2564 -0.0250  0.0797
 1712POPS   C4B20676   6.114  16.038  17.096 -0.1317 -0.3594 -0.0170
 1713POPS   CNO20677   9.922  26.343  15.004  0.1338  0.0182  0.1839
 1713POPS   PO420678   9.576  26.446  15.177 -0.2190  0.2875  0.2951
 1713POPS   GL120679   9.373  26.645  15.477 -0.2250 -0.3934 -0.0921
 1713POPS   GL220680   9.280  26.490  15.651 -0.1553 -0.0366  0.2577
 1713POPS   C1A20681   9.498  26.969  15.811  0.0677  0.1623  0.0316
 1713POPS   D2A20682   9.308  27.319  15.974 -0.0196 -0.1348  0.2536
 1713POPS   C3A20683   9.003  27.271  16.367 -0.1496  0.2171 -0.3448
 1713POPS   C4A20684   8.779  26.960  16.603 -0.0739 -0.1466 -0.2289
 1713POPS   C1B20685   9.038  26.270  15.898  0.0993 -0.2272  0.1263
 1713POPS   C2B20686   8.681  26.195  16.147  0.0455  0.0210 -0.3755
 1713POPS   C3B20687   8.394  26.239  16.505 -0.0146 -0.2164 -0.2065
 1713POPS   C4B20688   8.102  26.166  16.928 -0.1779  0.0342  0.1857
 1714POPS   CNO20689  14.896  15.344  15.217 -0.0273 -0.0401  0.0843
 1714POPS   PO420690  15.031  15.650  15.258  0.0907 -0.1366 -0.2441
 1714POPS   GL120691  14.914  15.613  15.540 -0.1907  0.3572 -0.3691
 1714POPS   GL220692  14.753  15.756  15.695 -0.1288 -0.4973 -0.4602
 1714POPS   C1A20693  14.670  15.301  15.822 -0.0821 -0.1339  0.1671
 1714POPS   D2A20694  14.538  15.018  16.019 -0.0496  0.0684  0.1628
 1714POPS   C3A20695  14.243  15.053  16.339  0.2173  0.1028 -0.2327
 1714POPS   C4A20696  13.923  15.003  16.669 -0.0351 -0.1463  0.3510
 1714POPS   C1B20697  14.476  15.930  16.013  0.1758  0.1395  0.0426
 1714POPS   C2B20698  14.325  15.790  16.421 -0.2895 -0.0128 -0.2427
 1714POPS   C3B20699  14.492  15.571  16.828 -0.3900  0.2473 -0.0050
 1714POPS   C4B20700  14.886  15.388  16.987 -0.2733 -0.5182  0.1663
 1715POPS   CNO20701  14.714  12.826  14.989  0.0576  0.0675 -0.1042
 1715POPS   PO420702  14.950  12.783  15.264  0.1194 -0.2782 -0.1778
 1715POPS   GL120703  14.907  12.512  15.515  0.0777 -0.0268  0.1410
 1715POPS   GL220704  15.160  12.572  15.692  0.2574  0.0786  0.1525
 1715POPS   C1A20705  14.734  12.319  15.905 -0.0399  0.0456  0.0043
 1715POPS   D2A20706  14.852  12.351  16.349 -0.1297 -0.0376  0.1537
 1715POPS   C3A20707  14.972  12.032  16.626  0.1967  0.0896  0.1815
 1715POPS   C4A20708  15.189  11.674  16.784 -0.0662 -0.2711 -0.0875
 1715POPS   C1B20709  15.360  12.633  16.093 -0.1041  0.0016  0.0420
 1715POPS   C2B20710  15.240  12.581  16.503  0.2602 -0.1765 -0.0516
 1715POPS   C3B20711  15.044  12.588  16.888 -0.1706  0.2562 -0.2632
 1715POPS   C4B20712  14.910  12.747  17.283 -0.4800  0.0065  0.0170
 1716POPS   CNO20713   6.705   2.718  15.361 -0.3521  0.1873  0.0497
 1716POPS   PO420714   6.410   2.649  15.559  0.0601 -0.1119  0.1904
 1716POPS   GL120715   6.392   2.536  15.914  0.2514 -0.6225  0.1948
 1716POPS   GL220716   6.131   2.452  15.924 -0.0777  0.3294 -0.3053
 1716POPS   C1A20717   6.611   2.775  16.263  0.1087  0.0357 -0.2747
 1716POPS   D2A20718   6.768   2.956  16.661  0.1017  0.0154 -0.1883
 1716POPS   C3A20719   6.714   2.706  17.077 -0.1816 -0.2679 -0.0960
 1716POPS   C4A20720   6.874   2.518  17.477  0.0327  0.1492  0.1222
 1716POPS   C1B20721   6.038   2.597  16.405 -0.0862 -0.1887 -0.0627
 1716POPS   C2B20722   5.890   2.639  16.847 -0.0367  0.2241  0.0835
 1716POPS   C3B20723   5.975   3.010  17.097 -0.0096  0.1608  0.0487
 1716POPS   C4B20724   6.071   3.449  17.250 -0.0702  0.0874  0.1194
 1717POPS   CNO20725  14.823   0.523  14.542 -0.2856  0.1539 -0.2181
 1717POPS   PO420726  14.610   0.233  14.673  0.0503 -0.0611 -0.0269
 1717POPS   GL120727  14.585   0.321  15.040 -0.1587 -0.0107 -0.2187
 1717POPS   GL220728  14.713   0.600  15.079  0.0358  0.0461  0.1188
 1717POPS   C1A20729  14.555   0.108  15.474  0.0464 -0.0444  0.0818
 1717POPS   D2A20730  14.635  -0.251  15.732  0.2193  0.1978 -0.1896
 1717POPS   C3A20731  14.538  -0.318  16.162 -0.0997 -0.1394  0.0804
 1717POPS   C4A20732  14.646  -0.012  16.489  0.0122  0.1267  0.0836
 1717POPS   C1B20733  14.697   0.559  15.535  0.1797  0.1644 -0.0911
 1717POPS   C2B20734  14.685   0.637  15.950 -0.1784  0.0845 -0.0422
 1717POPS   C3B20735  14.757   0.471  16.352  0.0893 -0.0125  0.4163
 1717POPS   C4B20736  14.773   0.442  16.803 -0.1966  0.0043  0.2713
 1718POPS   CNO20737  15.589  20.954  15.274 -0.3172 -0.1930  0.3037
 1718POPS   PO420738  15.232  20.970  15.259  0.0637 -0.1482  0.1106
 1718POPS   GL120739  15.221  21.206  15.538 -0.0051 -0.3599 -0.2954
 1718POPS   GL220740  14.987  21.441  15.534  0.2174 -0.1663  0.0191
 1718POPS   C1A20741  15.295  21.150  16.007  0.0077  0.0454 -0.1126
 1718POPS   D2A20742  15.250  21.375  16.403 -0.0998  0.0078 -0.3351
 1718POPS   C3A20743  15.072  21.502  16.797 -0.0866  0.4181  0.1436
 1718POPS   C4A20744  15.263  21.669  17.152 -0.3230  0.1924 -0.0679
 1718POPS   C1B20745  14.821  21.403  15.976 -0.4262 -0.3886 -0.0360
 1718POPS   C2B20746  14.762  21.204  16.409 -0.2643  0.0079 -0.0965
 1718POPS   C3B20747  14.865  21.077  16.867 -0.2592  0.3314 -0.2514
 1718POPS   C4B20748  15.069  21.197  17.287  0.0252 -0.0802  0.1685
 1719POPS   CNO20749  11.629  29.625  15.159 -0.2784  0.2319  0.2049
 1719POPS   PO420750  11.573  29.958  15.348  0.1884 -0.1248  0.1969
 1719POPS   GL120751  11.494  29.926  15.675  0.1921 -0.2512 -0.2272
 1719POPS   GL220752  11.729  30.081  15.839 -0.0424 -0.1028 -0.1674
 1719POPS   C1A20753  11.156  30.063  15.946 -0.1369  0.1959  0.0660
 1719POPS   D2A20754  10.877  29.805  16.113 -0.3463 -0.0941  0.0314
 1719POPS   C3A20755  10.788  29.847  16.579 -0.0753  0.1337 -0.0060
 1719POPS   C4A20756  10.518  29.830  16.916 -0.1934 -0.0404  0.0783
 1719POPS   C1B20757  11.511  30.003  16.290 -0.1437  0.1173  0.0292
 1719POPS   C2B20758  11.272  29.808  16.621 -0.1956  0.1767  0.1069
 1719POPS   C3B20759  11.013  30.048  16.935  0.2189  0.0624 -0.3079
 1719POPS   C4B20760  10.674  30.297  17.067 -0.0493 -0.1209  0.1953
 1720POPS   CNO20761   6.251   1.141  15.192 -0.0260  0.4147 -0.0322
 1720POPS   PO420762   5.896   1.095  15.259  0.1189  0.2701 -0.1046
 1720POPS   GL120763   6.076   1.225  15.571  0.3825  0.4949 -0.0991
 1720POPS   GL220764   5.887   1.054  15.743 -0.1663  0.0855  0.2809
 1720POPS   C1A20765   6.028   1.538  15.920 -0.0825 -0.0862  0.1628
 1720POPS   D2A20766   5.967   1.697  16.303  0.1126  0.0668  0.2477
 1720POPS   C3A20767   6.015   1.457  16.670  0.1113  0.0249 -0.0188
 1720POPS   C4A20768   6.305   1.309  16.976  0.1109 -0.1554 -0.2179
 1720POPS   C1B20769   5.910   0.892  16.216  0.1112 -0.0582 -0.1723
 1720POPS   C2B20770   5.820   0.568  16.530  0.2456  0.3013 -0.0177
 1720POPS   C3B20771   5.682   0.323  16.890 -0.0112  0.0922 -0.3157
 1720POPS   C4B20772   5.357   0.134  17.134 -0.1516  0.0318  0.1278
 1721POPS   CNO20773   9.976  22.421  15.623 -0.2389 -0.0212 -0.0281
 1721POPS   PO420774   9.910  22.062  15.596 -0.1300 -0.3043 -0.0466
 1721POPS   GL120775   9.887  22.093  15.957  0.1125  0.2106  0.1484
 1721POPS   GL220776  10.055  22.087  16.130  0.2344  0.2597 -0.0703
 1721POPS   C1A20777   9.624  21.803  16.184 -0.1418  0.3972  0.1845
 1721POPS   D2A20778   9.414  21.371  16.245 -0.0833 -0.1060  0.0162
 1721POPS   C3A20779   9.113  21.161  16.506  0.1853  0.4274  0.2696
 1721POPS   C4A20780   8.795  21.240  16.814  0.0786 -0.0040  0.1176
 1721POPS   C1B20781   9.659  22.257  16.397  0.1108  0.0192 -0.0578
 1721POPS   C2B20782   9.471  22.145  16.822  0.1197  0.1458 -0.0015
 1721POPS   C3B20783   9.411  22.102  17.268  0.1270  0.5026  0.1505
 1721POPS   C4B20784   9.520  22.370  17.618 -0.1083 -0.0515  0.0190
 1722POPS   CNO20785   0.483  16.180  15.512 -0.0955 -0.0591  0.2561
 1722POPS   PO420786   0.735  16.454  15.606 -0.2794  0.0808 -0.1062
 1722POPS   GL120787   0.770  16.435  16.009  0.2985  0.3850  0.0747
 1722POPS   GL220788   1.046  16.643  16.061 -0.0281  0.1215 -0.1226
 1722POPS   C1A20789   0.615  16.163  16.340 -0.1314 -0.0635  0.0002
 1722POPS   D2A20790   0.418  15.771  16.404  0.3500  0.0731  0.0316
 1722POPS   C3A20791   0.611  15.348  16.592 -0.0497  0.0596  0.1691
 1722POPS   C4A20792   0.766  15.041  16.920  0.3797 -0.0794  0.0153
 1722POPS   C1B20793   0.921  16.736  16.520  0.0777  0.1352 -0.1197
 1722POPS   C2B20794   0.943  17.090  16.806 -0.0366 -0.0700  0.1903
 1722POPS   C3B20795   0.753  17.138  17.208  0.0696 -0.3364 -0.0267
 1722POPS   C4B20796   0.418  17.157  17.578 -0.0606 -0.1951  0.0261
 1723POPS   CNO20797  13.013  21.175  15.179  0.0765 -0.0169 -0.0247
 1723POPS   PO420798  12.745  20.930  15.196  0.0351 -0.0599  0.1857
 1723POPS   GL120799  12.743  20.861  15.535 -0.0646 -0.2894 -0.2201
 1723POPS   GL220800  13.048  20.881  15.626 -0.0350 -0.0486 -0.0412
 1723POPS   C1A20801  12.777  20.665  15.952  0.0147  0.2304 -0.3091
 1723POPS   D2A20802  12.771  20.276  16.190 -0.2648 -0.0194 -0.1500
 1723POPS   C3A20803  13.121  20.156  16.460 -0.0545  0.4352 -0.1788
 1723POPS   C4A20804  13.387  20.117  16.875  0.0741 -0.2890  0.1072
 1723POPS   C1B20805  13.302  20.838  15.988 -0.5559  0.1303  0.4308
 1723POPS   C2B20806  13.584  20.926  16.327 -0.0036  0.0642 -0.0682
 1723POPS   C3B20807  13.480  20.917  16.708 -0.0662 -0.1375 -0.0013
 1723POPS   C4B20808  13.316  20.854  17.100 -0.2938  0.2328 -0.1207
 1724POPS   CNO20809   3.236  10.841  14.955 -0.1418 -0.2382  0.0562
 1724POPS   PO420810   2.898  10.858  15.173 -0.2417  0.3082  0.2954
 1724POPS   GL120811   2.679  10.861  15.537  0.0424  0.0985 -0.1682
 1724POPS   GL220812   2.606  10.592  15.499 -0.3870 -0.0226 -0.2330
 1724POPS   C1A20813   2.966  10.804  15.901  0.1231  0.0925  0.1539
 1724POPS   D2A20814   3.122  10.863  16.383  0.1742  0.0345  0.1645
 1724POPS   C3A20815   2.999  11.263  16.649 -0.1845  0.1009  0.1237
 1724POPS   C4A20816   3.064  11.699  16.807 -0.1121  0.1525 -0.2135
 1724POPS   C1B20817   2.461  10.703  15.928  0.0773  0.0501 -0.1413
 1724POPS   C2B20818   2.611  10.871  16.358 -0.1212  0.0428 -0.1395
 1724POPS   C3B20819   2.760  10.790  16.769  0.1387  0.0714  0.0236
 1724POPS   C4B20820   3.154  10.823  16.906 -0.0583  0.1005 -0.0765
 1725POPS   CNO20821   7.988   9.149  14.397 -0.1805 -0.0134  0.3446
 1725POPS   PO420822   7.782   9.015  14.679  0.0829  0.0082  0.2082
 1725POPS   GL120823   7.641   9.115  14.971 -0.0551  0.2510 -0.1482
 1725POPS   GL220824   7.811   9.117  15.240  0.3770 -0.0620  0.0091
 1725POPS   C1A20825   7.284   9.071  15.316  0.0595 -0.0727 -0.3607
 1725POPS   D2A20826   7.069   9.207  15.740 -0.2845 -0.4173  0.1536
 1725POPS   C3A20827   6.694   9.433  15.590 -0.0279  0.0830  0.0515
 1725POPS   C4A20828   6.274   9.616  15.434  0.2183 -0.0094 -0.2445
 1725POPS   C1B20829   7.624   9.067  15.665  0.2386 -0.0623  0.0314
 1725POPS   C2B20830   7.335   8.869  16.046 -0.1892  0.0232 -0.1543
 1725POPS   C3B20831   7.083   8.743  16.399 -0.3123  0.0962 -0.0331
 1725POPS   C4B20832   6.804   8.516  16.704 -0.0607  0.3285  0.2201
 1726POPS   CNO20833   5.645   6.657  15.254 -0.0349  0.1354 -0.0259
 1726POPS   PO420834   5.657   6.280  15.201  0.2850  0.1300  0.3625
 1726POPS   GL120835   5.877   6.345  15.528 -0.0782 -0.2799 -0.3055
 1726POPS   GL220836   6.057   6.590  15.468  0.0318  0.1435  0.1206
 1726POPS   C1A20837   6.148   6.171  15.812  0.2642  0.3111 -0.0537
 1726POPS   D2A20838   6.572   5.930  15.812  0.1790 -0.1645 -0.0921
 1726POPS   C3A20839   6.884   6.085  16.124  0.3650  0.3953 -0.0429
 1726POPS   C4A20840   7.287   6.062  16.360  0.0062  0.0179  0.0375
 1726POPS   C1B20841   6.094   6.816  15.886  0.2056 -0.0105 -0.1237
 1726POPS   C2B20842   6.350   6.897  16.301  0.1654 -0.1130  0.0394
 1726POPS   C3B20843   6.619   6.765  16.674 -0.4994  0.0917  0.1939
 1726POPS   C4B20844   6.852   6.871  17.065 -0.0837 -0.0798  0.0567
 1727POPS   CNO20845   1.157  18.513  14.823  0.1887  0.1845 -0.2492
 1727POPS   PO420846   0.976  18.562  15.163 -0.4624 -0.3234 -0.2481
 1727POPS   GL120847   1.411  18.470  15.247 -0.1893 -0.1936  0.0555
 1727POPS   GL220848   1.380  18.383  15.505  0.0481 -0.1139  0.1294
 1727POPS   C1A20849   1.854  18.340  15.241 -0.0224 -0.0537 -0.1388
 1727POPS   D2A20850   2.319  18.257  15.288  0.0155  0.3827 -0.2351
 1727POPS   C3A20851   2.511  18.648  15.471  0.2890 -0.0569 -0.1635
 1727POPS   C4A20852   2.585  19.002  15.828 -0.3617  0.0708  0.3368
 1727POPS   C1B20853   1.601  18.454  15.895 -0.0060  0.0948  0.2190
 1727POPS   C2B20854   1.940  18.476  16.152  0.0937 -0.1290 -0.1909
 1727POPS   C3B20855   2.346  18.617  16.109  0.3473 -0.0263 -0.1648
 1727POPS   C4B20856   2.799  18.653  16.323  0.2337  0.2837 -0.1938
 1728POPS   CNO20857   5.355  25.970  15.094 -0.0427  0.3081  0.3624
 1728POPS   PO420858   5.020  25.834  15.176 -0.1417  0.2023 -0.0808
 1728POPS   GL120859   4.938  25.645  15.513 -0.2529  0.1127 -0.0645
 1728POPS   GL220860   4.776  25.435  15.655 -0.0183 -0.0027  0.1338
 1728POPS   C1A20861   4.919  25.789  15.970  0.2783  0.2314 -0.3174
 1728POPS   D2A20862   5.009  25.800  16.406  0.0611 -0.0409  0.4622
 1728POPS   C3A20863   4.709  25.603  16.686 -0.0397 -0.0728 -0.2828
 1728POPS   C4A20864   4.410  25.394  16.939 -0.0729 -0.0018 -0.0202
 1728POPS   C1B20865   4.874  25.303  16.132  0.0674  0.0632 -0.1695
 1728POPS   C2B20866   4.957  25.190  16.642  0.1102  0.0023 -0.0078
 1728POPS   C3B20867   4.906  25.186  17.136 -0.0892  0.2650  0.1268
 1728POPS   C4B20868   4.542  25.038  17.475  0.2102  0.1747  0.0107
 1729POPS   CNO20869  10.613  21.619  15.146  0.1431 -0.0092  0.0808
 1729POPS   PO420870  10.348  21.774  15.384 -0.2078 -0.0585  0.0303
 1729POPS   GL120871  10.332  21.710  15.740 -0.1453  0.1148  0.0354
 1729POPS   GL220872  10.112  21.653  15.871  0.1881 -0.0283 -0.0348
 1729POPS   C1A20873  10.591  22.010  16.090  0.2720  0.1451  0.0960
 1729POPS   D2A20874  10.445  22.127  16.502  0.0301  0.1304  0.2294
 1729POPS   C3A20875  10.053  21.970  16.662  0.1827  0.1908  0.0671
 1729POPS   C4A20876   9.709  21.663  16.630  0.1557 -0.0576 -0.1672
 1729POPS   C1B20877   9.909  21.294  16.159  0.0153 -0.1384 -0.0777
 1729POPS   C2B20878  10.050  21.079  16.523  0.2162 -0.0375 -0.0334
 1729POPS   C3B20879   9.954  20.837  16.894 -0.2154  0.3178  0.1302
 1729POPS   C4B20880   9.936  20.930  17.358 -0.0766 -0.2889 -0.0759
 1730POPS   CNO20881   0.749  21.294  14.950  0.0243  0.3312  0.0970
 1730POPS   PO420882   0.473  21.501  15.136 -0.1494  0.3022 -0.0119
 1730POPS   GL120883   0.709  21.419  15.418  0.0316  0.2288  0.2736
 1730POPS   GL220884   0.460  21.220  15.512  0.0021 -0.2569  0.1207
 1730POPS   C1A20885   0.822  21.264  15.846  0.2472  0.0016  0.0909
 1730POPS   D2A20886   0.750  21.276  16.333 -0.0574 -0.1639  0.2571
 1730POPS   C3A20887   0.738  21.688  16.500  0.0787  0.1537 -0.0008
 1730POPS   C4A20888   0.688  21.890  16.872 -0.1804  0.3174 -0.0492
 1730POPS   C1B20889   0.356  21.326  15.945 -0.1945  0.0346  0.0236
 1730POPS   C2B20890   0.309  21.396  16.393 -0.1078  0.0086  0.0081
 1730POPS   C3B20891   0.203  21.502  16.839 -0.0484 -0.0617 -0.1166
 1730POPS   C4B20892   0.183  21.909  17.066 -0.0606 -0.0160  0.1649
 1731POPS   CNO20893   4.702   9.618  14.819  0.1757  0.1389  0.3455
 1731POPS   PO420894   4.678   9.935  15.034 -0.1291  0.2304  0.3638
 1731POPS   GL120895   4.618  10.070  15.419 -0.0427  0.4029  0.2911
 1731POPS   GL220896   4.329  10.156  15.536 -0.3381 -0.0118 -0.0775
 1731POPS   C1A20897   4.627   9.741  15.775 -0.0138 -0.2297  0.0413
 1731POPS   D2A20898   4.802   9.370  15.864 -0.2626  0.4464  0.0290
 1731POPS   C3A20899   5.225   9.356  15.827  0.0059  0.1224  0.1540
 1731POPS   C4A20900   5.647   9.415  16.073  0.2357 -0.2389 -0.1509
 1731POPS   C1B20901   4.300  10.227  16.002  0.0698  0.0691  0.0798
 1731POPS   C2B20902   4.440  10.171  16.476  0.2248 -0.1315 -0.1256
 1731POPS   C3B20903   4.416  10.317  16.846  0.2637 -0.1972 -0.0514
 1731POPS   C4B20904   4.643  10.460  17.234  0.2521 -0.0143 -0.2279
 1732POPS   CNO20905   2.672   7.701  15.028  0.2012  0.0688 -0.4723
 1732POPS   PO420906   2.913   7.862  15.236 -0.2399  0.2948 -0.0577
 1732POPS   GL120907   3.056   7.976  15.473 -0.0429 -0.2761 -0.1387
 1732POPS   GL220908   2.868   8.180  15.625 -0.0583 -0.1618  0.3688
 1732POPS   C1A20909   3.198   7.879  15.929 -0.1664 -0.0082 -0.0394
 1732POPS   D2A20910   3.044   7.818  16.373  0.2704  0.0595 -0.1126
 1732POPS   C3A20911   3.063   8.079  16.672 -0.0537 -0.0240  0.3227
 1732POPS   C4A20912   3.130   8.190  17.126 -0.0016  0.1171 -0.2649
 1732POPS   C1B20913   2.784   8.192  16.069  0.1171  0.1026  0.1383
 1732POPS   C2B20914   2.598   8.146  16.423  0.0918 -0.2858 -0.3762
 1732POPS   C3B20915   2.245   8.074  16.701 -0.0992 -0.4515  0.1155
 1732POPS   C4B20916   2.238   7.953  17.119  0.1402  0.1812 -0.1853
 1733POPS   CNO20917   2.734  22.467  14.936  0.0206 -0.2373  0.0013
 1733POPS   PO420918   2.807  22.826  15.071 -0.2322 -0.3346  0.0804
 1733POPS   GL120919   2.884  22.704  15.561 -0.0803 -0.0743 -0.1625
 1733POPS   GL220920   3.141  22.584  15.679  0.3311  0.0992  0.2531
 1733POPS   C1A20921   2.627  22.566  15.992 -0.1631 -0.3141 -0.1777
 1733POPS   D2A20922   2.533  22.585  16.428 -0.1493 -0.1783  0.1544
 1733POPS   C3A20923   2.227  22.411  16.673  0.1132  0.1965  0.0139
 1733POPS   C4A20924   1.795  22.392  16.697 -0.0439  0.0932 -0.2269
 1733POPS   C1B20925   3.102  22.747  16.068  0.1769  0.2042  0.0366
 1733POPS   C2B20926   3.218  22.790  16.513  0.2652 -0.1472 -0.0205
 1733POPS   C3B20927   3.302  22.773  16.950 -0.0552  0.2332 -0.1888
 1733POPS   C4B20928   3.407  22.544  17.397 -0.0652  0.2322  0.1766
 1734POPS   CNO20929  14.422   4.870  15.111  0.0203  0.1263  0.4666
 1734POPS   PO420930  14.119   4.829  15.306  0.3623  0.1779 -0.0933
 1734POPS   GL120931  13.902   4.765  15.708  0.2225 -0.2610  0.1830
 1734POPS   GL220932  14.261   4.759  15.772  0.0045  0.1802 -0.0438
 1734POPS   C1A20933  13.750   4.964  16.099  0.2817 -0.3634  0.0666
 1734POPS   D2A20934  13.432   5.041  16.466 -0.2496 -0.0288 -0.1028
 1734POPS   C3A20935  13.568   4.936  16.957 -0.1742  0.2344  0.2509
 1734POPS   C4A20936  13.297   4.948  17.330  0.1080  0.1033  0.2360
 1734POPS   C1B20937  14.212   4.683  16.237  0.3625  0.1564  0.3629
 1734POPS   C2B20938  13.851   4.759  16.546  0.0604 -0.2074  0.0366
 1734POPS   C3B20939  13.525   4.471  16.704 -0.1234 -0.0190  0.1799
 1734POPS   C4B20940  13.467   4.445  17.151  0.4556  0.1372 -0.1977
 1735POPS   CNO20941   9.282   1.209  14.855 -0.3291  0.1520  0.0481
 1735POPS   PO420942   9.544   1.305  15.131 -0.0526  0.1657 -0.1136
 1735POPS   GL120943   9.615   1.396  15.472  0.1643  0.4554 -0.2609
 1735POPS   GL220944   9.424   1.182  15.664  0.1179  0.2917 -0.1730
 1735POPS   C1A20945   9.682   1.566  15.935  0.1841 -0.0100 -0.0033
 1735POPS   D2A20946   9.501   1.617  16.371  0.0886  0.0949  0.0928
 1735POPS   C3A20947   9.390   1.431  16.765 -0.3471 -0.0003  0.4794
 1735POPS   C4A20948   9.242   1.492  17.192 -0.0124 -0.0169  0.0382
 1735POPS   C1B20949   9.288   1.075  16.123 -0.1323  0.0770  0.2041
 1735POPS   C2B20950   9.330   0.936  16.545  0.1297  0.3837 -0.1123
 1735POPS   C3B20951   9.322   0.634  16.875  0.1554 -0.0320  0.0988
 1735POPS   C4B20952   9.108   0.224  17.040 -0.1122 -0.1542 -0.5262
 1736POPS   CNO20953   3.647  13.227  14.971  0.0424 -0.1411  0.5401
 1736POPS   PO420954   3.614  13.129  15.333 -0.1410 -0.2833 -0.2383
 1736POPS   GL120955   3.769  13.167  15.631  0.0293 -0.0961 -0.1199
 1736POPS   GL220956   3.641  13.371  15.809 -0.4155  0.0375  0.5861
 1736POPS   C1A20957   4.131  12.969  15.905  0.0034 -0.1401 -0.0147
 1736POPS   D2A20958   4.340  13.157  16.299 -0.0531  0.0030  0.0402
 1736POPS   C3A20959   4.311  13.250  16.740 -0.1636  0.0978 -0.0765
 1736POPS   C4A20960   4.145  13.444  17.083 -0.1511 -0.1288  0.0531
 1736POPS   C1B20961   3.702  12.966  16.094  0.3186  0.2167  0.0642
 1736POPS   C2B20962   3.909  12.896  16.482 -0.1696 -0.0660 -0.2225
 1736POPS   C3B20963   3.643  12.852  16.849  0.0333  0.1808  0.0200
 1736POPS   C4B20964   3.384  12.493  17.051  0.0610 -0.0112  0.1539
 1737POPS   CNO20965  13.420  21.585  15.026  0.3667  0.2070  0.3560
 1737POPS   PO420966  13.685  21.382  15.044 -0.2549 -0.1034  0.0708
 1737POPS   GL120967  13.899  21.367  15.424  0.2043 -0.1602  0.2903
 1737POPS   GL220968  13.951  21.692  15.422  0.3388 -0.0384  0.1275
 1737POPS   C1A20969  13.766  21.235  15.822  0.1176 -0.0063 -0.1026
 1737POPS   D2A20970  13.362  21.373  16.043 -0.3597 -0.1822 -0.1104
 1737POPS   C3A20971  13.264  21.377  16.510  0.1869 -0.3578 -0.0874
 1737POPS   C4A20972  13.384  21.327  16.924  0.0576  0.1934 -0.3027
 1737POPS   C1B20973  13.819  21.753  15.890  0.1580 -0.1200  0.2356
 1737POPS   C2B20974  13.865  21.448  16.248  0.0253 -0.0248  0.0372
 1737POPS   C3B20975  13.821  21.291  16.673  0.0330 -0.2600  0.0185
 1737POPS   C4B20976  13.799  21.019  17.058  0.1186 -0.1707  0.1361
 1738POPS   CNO20977   8.634   8.566  14.661 -0.0341  0.2257  0.1565
 1738POPS   PO420978   8.601   8.731  15.016 -0.1016 -0.1371 -0.2835
 1738POPS   GL120979   8.236   8.786  15.205 -0.0121 -0.0849 -0.0019
 1738POPS   GL220980   8.014   8.681  15.061  0.0476 -0.1706  0.0237
 1738POPS   C1A20981   7.990   8.692  15.571  0.0155  0.0100 -0.0595
 1738POPS   D2A20982   7.850   8.734  16.001  0.1074  0.2302 -0.1033
 1738POPS   C3A20983   7.602   8.509  16.368  0.0884 -0.1142 -0.2341
 1738POPS   C4A20984   7.378   8.119  16.517  0.0076 -0.1989 -0.0053
 1738POPS   C1B20985   7.598   8.638  15.312  0.0746  0.0323  0.0012
 1738POPS   C2B20986   7.255   8.647  15.637 -0.1128 -0.0932 -0.1739
 1738POPS   C3B20987   6.812   8.515  15.753 -0.1740 -0.0266  0.1459
 1738POPS   C4B20988   6.536   8.459  16.141 -0.2979 -0.3855  0.1710
 1739POPS   CNO20989  14.694  14.065  14.828 -0.0865 -0.1156  0.2652
 1739POPS   PO420990  15.009  14.130  15.060 -0.2247 -0.1245  0.1786
 1739POPS   GL120991  15.232  14.004  15.368 -0.1541  0.3148 -0.1147
 1739POPS   GL220992  15.193  13.954  15.623 -0.1628  0.0417  0.3194
 1739POPS   C1A20993  15.610  13.793  15.563  0.0267  0.0995 -0.0386
 1739POPS   D2A20994  15.998  13.772  15.812 -0.2541  0.2500 -0.1219
 1739POPS   C3A20995  15.985  13.694  16.272 -0.3145 -0.1256  0.1206
 1739POPS   C4A20996  16.119  13.879  16.679 -0.1029  0.0076  0.0927
 1739POPS   C1B20997  15.057  13.895  16.056  0.2086  0.4242  0.0837
 1739POPS   C2B20998  15.031  13.617  16.457 -0.1726  0.0994 -0.3581
 1739POPS   C3B20999  15.343  13.449  16.843 -0.0283  0.1241 -0.0314
 1739POPS   C4B21000  15.807  13.427  16.834 -0.0544  0.0264  0.1946
 1740POPS   CNO21001   9.899   8.816  15.420 -0.0206  0.4010  0.1346
 1740POPS   PO421002  10.239   8.644  15.372 -0.0460  0.0212  0.0250
 1740POPS   GL121003  10.029   8.492  15.737 -0.0599  0.1470  0.1685
 1740POPS   GL221004  10.242   8.249  15.725 -0.1011  0.0896 -0.1881
 1740POPS   C1A21005   9.929   8.503  16.177 -0.0521 -0.1719 -0.1308
 1740POPS   D2A21006   9.795   8.569  16.572  0.1161 -0.1867  0.0395
 1740POPS   C3A21007   9.832   8.245  16.926 -0.0165  0.3936  0.2571
 1740POPS   C4A21008   9.819   8.120  17.373 -0.0488 -0.1694 -0.1003
 1740POPS   C1B21009  10.099   7.840  16.037 -0.1043  0.0966  0.3660
 1740POPS   C2B21010  10.387   7.702  16.406  0.0108 -0.1890 -0.1754
 1740POPS   C3B21011  10.660   7.503  16.711 -0.1654  0.0152  0.1266
 1740POPS   C4B21012  10.660   7.656  17.122 -0.0512  0.0765 -0.2640
 1741SAP2    C121013   0.929  23.400  13.961  0.4908 -0.0227  0.0253
 1741SAP2    C221014   0.667  23.314  13.937  0.3636  0.2541  0.3337
 1741SAP2    C321015   0.938  23.117  13.919  0.1649  0.0144 -0.3553
 1741SAP2    C421016   0.845  23.277  13.939  0.0007 -0.0000  0.0553
 1741SAP2   PO421017   0.897  23.625  14.176 -0.0201 -0.0875  0.2711
 1741SAP2    P421018   0.786  22.851  13.926 -0.2255  0.2441  0.2428
 1741SAP2    P521019   0.534  23.202  13.720 -0.3073 -0.0772 -0.0969
 1741SAP2   GL121020   1.013  24.021  14.117 -0.0025  0.1553  0.2292
 1741SAP2   GL221021   0.830  24.155  14.108  0.2107 -0.0185 -0.2899
 1741SAP2   D1A21022   1.002  23.938  14.567 -0.2219  0.2358  0.1267
 1741SAP2   D2A21023   1.419  24.230  14.447 -0.3928  0.0141 -0.0314
 1741SAP2   D3A21024   1.662  23.955  14.707  0.3042 -0.1505  0.3658
 1741SAP2   D4A21025   1.320  23.740  14.952 -0.1360 -0.4233  0.0916
 1741SAP2   C5A21026   0.954  23.686  15.251  0.1205  0.3427  0.1678
 1741SAP2   C1B21027   1.196  24.529  14.153 -0.1522  0.0067 -0.0294
 1741SAP2   C2B21028   1.531  24.915  14.300  0.2296  0.0355 -0.0250
 1741SAP2   C3B21029   1.546  25.251  14.616  0.2136 -0.1589  0.0043
 1741SAP2   C4B21030   1.263  25.402  14.966 -0.2064  0.3429 -0.0424
 1742SAP2    C121031   2.721  30.795  14.477 -0.1296 -0.0968  0.1603
 1742SAP2    C221032   2.639  30.713  14.226 -0.1585 -0.3892  0.2615
 1742SAP2    C321033   2.505  30.967  14.399  0.2248  0.1850 -0.2426
 1742SAP2    C421034   2.622  30.825  14.367  0.0007 -0.0000  0.0553
 1742SAP2   PO421035   3.034  30.768  14.512 -0.2854  0.2439 -0.3311
 1742SAP2    P421036   2.295  31.086  14.190 -0.0036  0.2527  0.1806
 1742SAP2    P521037   2.522  30.494  14.178 -0.1795  0.1481 -0.0093
 1742SAP2   GL121038   3.127  30.676  14.820 -0.2387 -0.2269  0.0156
 1742SAP2   GL221039   3.067  30.881  15.061 -0.0105 -0.0337  0.1125
 1742SAP2   D1A21040   3.436  31.051  14.756 -0.0576  0.0863  0.2383
 1742SAP2   D2A21041   3.796  31.315  14.987  0.2000  0.4133 -0.0613
 1742SAP2   D3A21042   3.702  31.565  14.675  0.0259  0.1441  0.3341
 1742SAP2   D4A21043   4.021  31.786  14.850 -0.0343  0.1306  0.2550
 1742SAP2   C5A21044   3.656  31.815  15.138 -0.1415 -0.3620 -0.1588
 1742SAP2   C1B21045   3.465  30.912  15.297 -0.0950  0.0089 -0.1258
 1742SAP2   C2B21046   3.509  31.047  15.788  0.1828  0.0614 -0.1799
 1742SAP2   C3B21047   3.633  30.848  16.139  0.0273 -0.1359 -0.1481
 1742SAP2   C4B21048   3.700  30.535  16.454  0.2081 -0.0615  0.1291
 1743SAP2    C121049  13.179   7.437  14.730  0.0704  0.0972  0.2306
 1743SAP2    C221050  13.170   7.561  14.482  0.0291  0.1851  0.2759
 1743SAP2    C321051  13.433   7.391  14.605  0.0185  0.0651  0.1354
 1743SAP2    C421052  13.260   7.463  14.606  0.0007 -0.0000  0.0553
 1743SAP2   PO421053  12.892   7.244  14.847  0.1643  0.2192  0.3421
 1743SAP2    P421054  13.681   7.341  14.394  0.3623  0.1358 -0.0864
 1743SAP2    P521055  13.391   7.758  14.354 -0.1909  0.1477  0.2506
 1743SAP2   GL121056  12.868   7.261  15.159  0.0270  0.0132  0.0503
 1743SAP2   GL221057  12.968   7.023  15.278  0.1090  0.0197  0.0747
 1743SAP2   D1A21058  12.853   7.549  15.531 -0.2083  0.0269  0.1447
 1743SAP2   D2A21059  13.038   7.521  15.943 -0.2614 -0.0952  0.0619
 1743SAP2   D3A21060  13.123   7.101  15.843  0.0885 -0.0534  0.2868
 1743SAP2   D4A21061  13.420   7.070  15.523  0.0198 -0.0037  0.0130
 1743SAP2   C5A21062  13.242   6.633  15.522  0.3146  0.1098  0.2165
 1743SAP2   C1B21063  12.641   6.965  15.599 -0.0176  0.0564 -0.0351
 1743SAP2   C2B21064  12.539   6.868  16.054  0.1917 -0.2762  0.0868
 1743SAP2   C3B21065  12.538   6.928  16.502 -0.2928  0.1071 -0.1598
 1743SAP2   C4B21066  12.467   6.976  16.983 -0.1415 -0.0298 -0.1112
 1744SAP2    C121067   9.745  12.569  14.681 -0.2748 -0.1098 -0.0269
 1744SAP2    C221068   9.779  12.302  14.615  0.0343 -0.0824  0.0069
 1744SAP2    C321069   9.801  12.560  14.400 -0.1612 -0.0747 -0.0058
 1744SAP2    C421070   9.775  12.477  14.565  0.0007 -0.0000  0.0553
 1744SAP2   PO421071   9.833  12.565  15.008  0.0142 -0.0774  0.0783
 1744SAP2    P421072   9.828  12.435  14.131 -0.1219 -0.0106 -0.2364
 1744SAP2    P521073   9.587  12.112  14.458  0.2181  0.0461  0.0142
 1744SAP2   GL121074   9.869  12.732  15.255 -0.1118  0.1321 -0.0217
 1744SAP2   GL221075   9.830  12.785  15.517 -0.1355  0.0873  0.2795
 1744SAP2   D1A21076   9.437  12.704  15.255 -0.2109  0.1574 -0.0057
 1744SAP2   D2A21077   9.333  12.784  15.697  0.0607 -0.2109 -0.0151
 1744SAP2   D3A21078   9.188  12.371  15.677  0.2519  0.4210 -0.1789
 1744SAP2   D4A21079   9.076  12.306  16.120 -0.0641  0.1002 -0.0463
 1744SAP2   C5A21080   8.709  12.411  16.389 -0.1431  0.2906  0.0019
 1744SAP2   C1B21081  10.081  12.792  15.910 -0.0031 -0.1384  0.1538
 1744SAP2   C2B21082  10.133  12.968  16.355 -0.0582  0.0328  0.2368
 1744SAP2   C3B21083  10.059  13.282  16.660 -0.3543  0.0200  0.0713
 1744SAP2   C4B21084   9.938  13.387  17.069  0.0717  0.1283 -0.1064
 1745SAP2    C121085   6.420  31.563  14.393 -0.0042 -0.0881  0.0075
 1745SAP2    C221086   6.582  31.760  14.285  0.0590 -0.2195 -0.1410
 1745SAP2    C321087   6.287  31.813  14.436  0.2199  0.0188  0.0981
 1745SAP2    C421088   6.430  31.712  14.371  0.0007 -0.0000  0.0553
 1745SAP2   PO421089   6.626  31.375  14.581 -0.0529  0.3446  0.1066
 1745SAP2    P421090   6.257  32.088  14.283  0.1336  0.0326 -0.0637
 1745SAP2    P521091   6.683  31.808  14.014  0.0401 -0.0523 -0.2942
 1745SAP2   GL121092   6.542  31.572  14.812  0.2134 -0.3746 -0.1210
 1745SAP2   GL221093   6.560  31.888  14.766  0.3280  0.0642 -0.0658
 1745SAP2   D1A21094   6.481  31.228  15.138 -0.1863 -0.1284 -0.0606
 1745SAP2   D2A21095   6.779  31.334  15.537 -0.2694 -0.1257 -0.0168
 1745SAP2   D3A21096   7.001  31.735  15.481  0.0201 -0.0548  0.1687
 1745SAP2   D4A21097   6.955  31.736  15.987  0.0346  0.1452 -0.0243
 1745SAP2   C5A21098   6.716  31.341  16.051 -0.1481  0.0842  0.1562
 1745SAP2   C1B21099   6.582  31.834  15.213  0.0221  0.0720 -0.0025
 1745SAP2   C2B21100   6.535  31.882  15.655  0.0358  0.1472 -0.4168
 1745SAP2   C3B21101   6.303  31.726  16.065  0.0589  0.0430 -0.0896
 1745SAP2   C4B21102   6.058  31.626  16.409 -0.0722  0.1354 -0.1807
 1746SAP2    C121103  15.680  31.393  14.798 -0.0018 -0.0257  0.0055
 1746SAP2    C221104  15.708  31.538  14.563 -0.0857 -0.0420 -0.0146
 1746SAP2    C321105  15.671  31.204  14.582  0.1382 -0.0661  0.0335
 1746SAP2    C421106  15.686  31.378  14.648  0.0007 -0.0000  0.0553
 1746SAP2   PO421107  15.501  31.595  15.006  0.2546  0.2499  0.2049
 1746SAP2    P421108  15.614  31.235  14.251 -0.0435 -0.1329  0.2598
 1746SAP2    P521109  15.814  31.536  14.259  0.2048  0.0346 -0.0024
 1746SAP2   GL121110  15.396  31.463  15.307  0.1239  0.2541 -0.0833
 1746SAP2   GL221111  15.515  31.294  15.480 -0.3396 -0.2359  0.1566
 1746SAP2   D1A21112  15.027  31.288  15.533 -0.2619  0.1929 -0.1297
 1746SAP2   D2A21113  15.096  31.359  15.992  0.1408  0.1519 -0.0384
 1746SAP2   D3A21114  14.745  31.029  15.953 -0.0074  0.1563 -0.0067
 1746SAP2   D4A21115  14.837  31.235  16.466  0.2627  0.1710 -0.3199
 1746SAP2   C5A21116  14.417  31.261  16.639 -0.0727 -0.1843 -0.3204
 1746SAP2   C1B21117  15.433  31.633  15.705 -0.0194  0.1283 -0.1298
 1746SAP2   C2B21118  15.346  31.765  16.157  0.2574  0.3128 -0.1292
 1746SAP2   C3B21119  15.282  31.979  16.616 -0.0004  0.1772 -0.2770
 1746SAP2   C4B21120  15.199  32.166  17.104 -0.1031  0.1157 -0.2220
 1747SAP2    C121121  11.294  22.852  15.200 -0.0918 -0.0573 -0.3395
 1747SAP2    C221122  11.403  22.860  14.945 -0.0736 -0.0666 -0.3320
 1747SAP2    C321123  11.164  23.066  15.059 -0.2238 -0.1894 -0.4210
 1747SAP2    C421124  11.287  22.926  15.068  0.0007 -0.0000  0.0553
 1747SAP2   PO421125  11.573  22.916  15.383  0.0707  0.3757 -0.1490
 1747SAP2    P421126  11.003  23.170  14.806 -0.1307 -0.3121  0.1907
 1747SAP2    P521127  11.415  23.003  14.699  0.1212  0.2674  0.3291
 1747SAP2   GL121128  11.632  22.800  15.703 -0.0928  0.2892  0.0943
 1747SAP2   GL221129  11.851  22.838  15.807  0.0132  0.0986  0.1282
 1747SAP2   D1A21130  11.415  22.588  16.046  0.1644 -0.1702 -0.0109
 1747SAP2   D2A21131  11.243  22.969  15.781  0.1015 -0.2124  0.0878
 1747SAP2   D3A21132  10.973  23.393  15.858  0.1379 -0.0117  0.2692
 1747SAP2   D4A21133  10.899  23.526  16.258 -0.3656 -0.0558 -0.0499
 1747SAP2   C5A21134  11.204  23.436  16.596  0.1083  0.1726  0.0412
 1747SAP2   C1B21135  11.704  22.995  16.159  0.0412  0.0205  0.3777
 1747SAP2   C2B21136  11.553  23.022  16.568 -0.0977 -0.0452  0.1330
 1747SAP2   C3B21137  11.306  23.118  16.966 -0.0345  0.0098  0.4995
 1747SAP2   C4B21138  10.945  23.161  17.217  0.1792  0.1032 -0.0332
 1748SAP2    C121139   7.501  27.230  14.088  0.1732 -0.2359 -0.3487
 1748SAP2    C221140   7.745  27.361  14.094  0.1404 -0.1804 -0.1091
 1748SAP2    C321141   7.448  27.501  14.163  0.1154 -0.3988  0.2499
 1748SAP2    C421142   7.565  27.364  14.115  0.0007 -0.0000  0.0553
 1748SAP2   PO421143   7.542  26.959  14.244 -0.0653  0.1962 -0.1279
 1748SAP2    P421144   7.525  27.746  14.248  0.2691  0.2219 -0.2426
 1748SAP2    P521145   7.800  27.608  13.890 -0.1905  0.1521 -0.0626
 1748SAP2   GL121146   7.760  26.771  14.378 -0.1885 -0.3687  0.0337
 1748SAP2   GL221147   7.636  26.586  14.477  0.0855  0.1328 -0.0540
 1748SAP2   D1A21148   7.893  26.973  14.735 -0.1515  0.1486 -0.0399
 1748SAP2   D2A21149   8.247  26.845  14.790 -0.0143  0.3859  0.1724
 1748SAP2   D3A21150   8.199  27.282  14.969 -0.0526 -0.3088 -0.2096
 1748SAP2   D4A21151   8.029  26.896  15.211  0.0650  0.2278 -0.0784
 1748SAP2   C5A21152   8.365  26.598  15.215 -0.0384  0.0098  0.0609
 1748SAP2   C1B21153   7.612  26.631  15.003  0.1397  0.0877  0.0462
 1748SAP2   C2B21154   7.850  26.352  15.283 -0.1656 -0.2274  0.0666
 1748SAP2   C3B21155   8.240  26.193  15.468  0.2994 -0.2305  0.1737
 1748SAP2   C4B21156   8.608  25.989  15.646  0.1302  0.1431  0.0495
 1749SAP2    C121157   4.272  25.330  14.988  0.3546  0.2262 -0.1854
 1749SAP2    C221158   4.171  25.291  14.733 -0.1242  0.1787 -0.0004
 1749SAP2    C321159   4.497  25.313  14.812  0.0382  0.0879 -0.5937
 1749SAP2    C421160   4.313  25.311  14.844  0.0007 -0.0000  0.0553
 1749SAP2   PO421161   4.123  25.131  15.231  0.1749  0.0849 -0.0881
 1749SAP2    P421162   4.617  25.303  14.563  0.0349 -0.1676  0.3578
 1749SAP2    P521163   4.149  25.470  14.502  0.0756  0.0246 -0.1429
 1749SAP2   GL121164   4.364  25.201  15.514  0.0526  0.0856 -0.0314
 1749SAP2   GL221165   4.118  25.326  15.684  0.1676  0.0542 -0.2231
 1749SAP2   D1A21166   4.461  25.113  15.977  0.0878 -0.0637 -0.0695
 1749SAP2   D2A21167   4.101  24.811  16.053 -0.2228  0.0964  0.0254
 1749SAP2   D3A21168   3.723  25.135  16.117 -0.0928  0.1793  0.0492
 1749SAP2   D4A21169   4.147  25.183  16.386  0.0092 -0.2082 -0.1399
 1749SAP2   C5A21170   3.920  25.202  16.836  0.1549 -0.2743  0.2309
 1749SAP2   C1B21171   3.902  25.579  16.058 -0.1259  0.3147 -0.0996
 1749SAP2   C2B21172   3.710  25.534  16.483  0.0453  0.1743  0.0817
 1749SAP2   C3B21173   3.345  25.714  16.666 -0.1652 -0.0489  0.1227
 1749SAP2   C4B21174   2.896  25.597  16.716  0.1067  0.0973 -0.0088
 1750SAP2    C121175   3.055   7.027  15.011  0.1789  0.1639 -0.2002
 1750SAP2    C221176   2.798   7.036  14.910  0.1023 -0.0491 -0.0316
 1750SAP2    C321177   3.069   6.933  14.741 -0.0087 -0.3097 -0.0563
 1750SAP2    C421178   2.974   6.999  14.888  0.0007 -0.0000  0.0553
 1750SAP2   PO421179   2.984   6.881  15.314 -0.2527  0.1983  0.1509
 1750SAP2    P421180   2.931   6.872  14.478 -0.0029 -0.1584  0.0827
 1750SAP2    P521181   2.611   6.905  14.710 -0.2220 -0.2394 -0.0003
 1750SAP2   GL121182   2.921   6.926  15.654  0.0308 -0.0213 -0.3379
 1750SAP2   GL221183   3.063   7.151  15.701 -0.0498 -0.0724 -0.1164
 1750SAP2   D1A21184   2.772   6.954  16.123 -0.0396  0.2615 -0.1466
 1750SAP2   D2A21185   2.504   6.827  16.464 -0.0657  0.0735  0.1464
 1750SAP2   D3A21186   2.524   6.924  16.884 -0.2287  0.0983  0.0918
 1750SAP2   D4A21187   2.338   6.673  17.159 -0.0695  0.1748  0.1604
 1750SAP2   C5A21188   2.079   7.028  17.101 -0.1156  0.0845 -0.0784
 1750SAP2   C1B21189   2.995   7.370  16.101 -0.3266 -0.1314 -0.0968
 1750SAP2   C2B21190   2.820   7.274  16.528  0.1497  0.1948 -0.0463
 1750SAP2   C3B21191   3.033   7.023  16.946  0.1259  0.1511 -0.0864
 1750SAP2   C4B21192   3.237   6.758  17.202 -0.3779  0.0961 -0.4579
 1751SAP2    C121193   8.079  11.077  15.025 -0.2350  0.1247  0.0231
 1751SAP2    C221194   8.179  11.277  14.861  0.0423 -0.0265  0.0013
 1751SAP2    C321195   7.911  11.085  14.793  0.1293 -0.0610 -0.2580
 1751SAP2    C421196   8.056  11.146  14.893  0.0007 -0.0000  0.0553
 1751SAP2   PO421197   8.086  11.203  15.319  0.0662  0.2570 -0.3585
 1751SAP2    P421198   7.818  11.219  14.543 -0.1324 -0.1223  0.1825
 1751SAP2    P521199   8.313  11.332  14.598  0.0576  0.1735 -0.1661
 1751SAP2   GL121200   8.263  11.125  15.588 -0.2544  0.0738 -0.1607
 1751SAP2   GL221201   8.268  11.402  15.698  0.0103  0.1354 -0.0705
 1751SAP2   D1A21202   7.891  11.155  15.846 -0.0370 -0.3476  0.0785
 1751SAP2   D2A21203   7.851  11.518  16.157 -0.0927 -0.0325  0.2181
 1751SAP2   D3A21204   8.199  11.266  16.172  0.0470  0.1304 -0.2552
 1751SAP2   D4A21205   8.228  11.581  16.545  0.0734 -0.3799  0.0983
 1751SAP2   C5A21206   8.364  11.326  16.934  0.3203 -0.1200  0.0073
 1751SAP2   C1B21207   8.452  11.702  16.009 -0.3226 -0.1293 -0.0260
 1751SAP2   C2B21208   8.281  12.087  16.153 -0.1047 -0.1385  0.0334
 1751SAP2   C3B21209   8.204  12.415  16.448  0.1589  0.1039  0.2140
 1751SAP2   C4B21210   7.986  12.694  16.752 -0.2007  0.1494  0.0247
 1752SAP2    C121211  11.730  15.685  14.429  0.1194 -0.5183  0.1003
 1752SAP2    C221212  11.610  15.604  14.192  0.1370  0.0402 -0.1138
 1752SAP2    C321213  11.888  15.470  14.324  0.0244 -0.3998 -0.3048
 1752SAP2    C421214  11.743  15.586  14.315  0.0007 -0.0000  0.0553
 1752SAP2   PO421215  11.436  15.695  14.600 -0.1047 -0.2351  0.1837
 1752SAP2    P421216  11.965  15.266  14.105 -0.2495  0.0070  0.1367
 1752SAP2    P521217  11.596  15.454  13.950  0.0011  0.1059 -0.0813
 1752SAP2   GL121218  11.475  15.879  14.906  0.0643  0.0913 -0.1719
 1752SAP2   GL221219  11.655  15.695  14.979  0.1377  0.0110  0.1692
 1752SAP2   D1A21220  11.325  15.873  15.351 -0.2211  0.1288  0.1556
 1752SAP2   D2A21221  11.109  16.298  15.434 -0.0913  0.2542  0.0379
 1752SAP2   D3A21222  11.418  16.488  15.708  0.2690  0.1682  0.3575
 1752SAP2   D4A21223  11.348  16.917  15.727 -0.1859 -0.3266 -0.2106
 1752SAP2   C5A21224  11.643  16.835  15.316  0.2128 -0.1218  0.1913
 1752SAP2   C1B21225  11.529  15.445  15.328  0.1633 -0.2292 -0.3161
 1752SAP2   C2B21226  11.330  15.537  15.739  0.0305  0.3281 -0.4305
 1752SAP2   C3B21227  10.949  15.817  15.742  0.1483 -0.0190 -0.1201
 1752SAP2   C4B21228  10.578  16.092  15.782 -0.3327  0.0086 -0.0715
 1753SAP2    C121229   9.107   2.568  14.833  0.1953 -0.1759 -0.0193
 1753SAP2    C221230   9.012   2.805  14.725  0.2283 -0.1217  0.0692
 1753SAP2    C321231   8.989   2.502  14.580 -0.1188 -0.1180  0.1077
 1753SAP2    C421232   9.036   2.625  14.713  0.0007 -0.0000  0.0553
 1753SAP2   PO421233   9.032   2.540  15.156  0.2139  0.2919 -0.2674
 1753SAP2    P421234   8.869   2.558  14.319  0.0279 -0.3042  0.0939
 1753SAP2    P521235   8.966   2.973  14.423  0.0184 -0.3344  0.2263
 1753SAP2   GL121236   9.162   2.641  15.484  0.4893 -0.2840 -0.0817
 1753SAP2   GL221237   9.127   2.431  15.651  0.0140  0.2442 -0.1878
 1753SAP2   D1A21238   9.300   3.068  15.721 -0.0776  0.1903  0.0539
 1753SAP2   D2A21239   9.550   3.321  15.348 -0.0985 -0.0084 -0.0173
 1753SAP2   D3A21240   9.933   3.443  15.631 -0.2297 -0.4419  0.0122
 1753SAP2   D4A21241  10.131   3.328  16.048 -0.0182  0.1502 -0.0040
 1753SAP2   C5A21242  10.104   3.685  16.357 -0.0191  0.2910  0.1861
 1753SAP2   C1B21243   9.067   2.447  16.084 -0.0208  0.1340 -0.3039
 1753SAP2   C2B21244   9.104   2.525  16.557 -0.1150  0.1593  0.0429
 1753SAP2   C3B21245   9.054   2.780  16.936 -0.0689 -0.1286 -0.0154
 1753SAP2   C4B21246   8.876   3.075  17.161  0.1165 -0.0193  0.1337
 1754SAP2    C121247   4.089   9.341  14.602 -0.1266  0.0304 -0.0563
 1754SAP2    C221248   4.122   9.119  14.439  0.2625  0.0640 -0.0329
 1754SAP2    C321249   4.053   9.429  14.332  0.1057  0.0077 -0.0974
 1754SAP2    C421250   4.088   9.296  14.458  0.0007 -0.0000  0.0553
 1754SAP2   PO421251   4.268   9.228  14.848  0.0609 -0.2141  0.2318
 1754SAP2    P421252   3.986   9.374  14.027 -0.0618  0.1461  0.2256
 1754SAP2    P521253   3.972   8.911  14.266 -0.0088  0.0910  0.0061
 1754SAP2   GL121254   4.530   9.214  15.053 -0.1849 -0.2693 -0.1723
 1754SAP2   GL221255   4.541   8.980  15.228 -0.0860 -0.0421 -0.0583
 1754SAP2   D1A21256   4.800   9.451  15.395  0.2774 -0.2613  0.1372
 1754SAP2   D2A21257   5.179   9.249  15.322 -0.0879 -0.0061 -0.3641
 1754SAP2   D3A21258   5.306   8.843  15.288 -0.1244  0.0031  0.0294
 1754SAP2   D4A21259   5.551   8.864  14.908 -0.3157 -0.0945  0.0010
 1754SAP2   C5A21260   5.642   8.445  15.081  0.0891  0.0881 -0.5078
 1754SAP2   C1B21261   4.847   8.872  15.581  0.1555  0.0630  0.0362
 1754SAP2   C2B21262   5.119   8.858  15.883 -0.0607  0.0392 -0.0957
 1754SAP2   C3B21263   5.163   8.675  16.293  0.1815 -0.1291  0.0971
 1754SAP2   C4B21264   5.278   8.631  16.788 -0.0189  0.2409 -0.1779
 1755SAP2    C121265   5.633  20.688  14.026  0.0079  0.1794 -0.5208
 1755SAP2    C221266   5.906  20.736  14.019  0.0465  0.0116 -0.2793
 1755SAP2    C321267   5.668  20.973  14.027  0.1910  0.1588 -0.2881
 1755SAP2    C421268   5.736  20.799  14.024  0.0007 -0.0000  0.0553
 1755SAP2   PO421269   5.549  20.474  14.242 -0.2143 -0.3581 -0.0313
 1755SAP2    P421270   5.776  21.195  13.977  0.0088  0.0461  0.1680
 1755SAP2    P521271   6.177  20.766  13.874  0.1126  0.0743  0.0397
 1755SAP2   GL121272   5.357  20.637  14.481 -0.0554 -0.0894 -0.0244
 1755SAP2   GL221273   5.296  20.621  14.716  0.2266 -0.1896 -0.0026
 1755SAP2   D1A21274   4.927  20.525  14.367  0.0152  0.0580  0.0100
 1755SAP2   D2A21275   4.618  20.865  14.338 -0.0575  0.0364  0.0557
 1755SAP2   D3A21276   4.244  20.595  14.285  0.0126 -0.0111 -0.0034
 1755SAP2   D4A21277   4.527  20.255  14.174  0.0998 -0.1341  0.3214
 1755SAP2   C5A21278   4.733  20.559  13.871 -0.1182 -0.0680 -0.2598
 1755SAP2   C1B21279   5.174  20.230  14.724  0.0128 -0.0336  0.2342
 1755SAP2   C2B21280   4.880  19.948  14.930  0.0710 -0.0636  0.1024
 1755SAP2   C3B21281   4.697  19.568  14.763 -0.3637 -0.2469  0.2671
 1755SAP2   C4B21282   4.842  19.478  14.333  0.1871  0.4018 -0.0304
 1756SAP2    C121283   6.666  16.987  14.834 -0.1225  0.1407  0.0868
 1756SAP2    C221284   6.628  17.062  14.570 -0.1994 -0.5497 -0.1177
 1756SAP2    C321285   6.391  16.935  14.772 -0.1440 -0.0191  0.3057
 1756SAP2    C421286   6.562  16.995  14.725  0.0007 -0.0000  0.0553
 1756SAP2   PO421287   6.913  17.228  14.878  0.1281 -0.0104  0.0994
 1756SAP2    P421288   6.202  16.908  14.596 -0.0435 -0.2124 -0.0249
 1756SAP2    P521289   6.599  16.940  14.294 -0.1157  0.1807  0.0433
 1756SAP2   GL121290   6.762  17.398  15.175 -0.0057  0.2328  0.2756
 1756SAP2   GL221291   6.902  17.149  15.266  0.2086  0.2003  0.0658
 1756SAP2   D1A21292   6.824  17.686  15.597 -0.2197 -0.2257  0.2090
 1756SAP2   D2A21293   6.971  17.510  15.952  0.1274  0.0175 -0.0005
 1756SAP2   D3A21294   7.217  17.818  16.188  0.1463 -0.0280  0.0549
 1756SAP2   D4A21295   7.139  18.167  15.850  0.0648  0.0383  0.0481
 1756SAP2   C5A21296   6.825  18.351  16.181  0.3360 -0.0775 -0.1412
 1756SAP2   C1B21297   6.733  17.173  15.655 -0.4026 -0.0014 -0.0214
 1756SAP2   C2B21298   6.813  17.087  16.099 -0.1643 -0.2259  0.1336
 1756SAP2   C3B21299   6.817  16.918  16.557 -0.0072  0.0430 -0.0435
 1756SAP2   C4B21300   6.842  16.645  16.899  0.1964  0.2614 -0.1986
 1757SAP2    C121301   1.155   8.472  14.596  0.1006 -0.1918 -0.2219
 1757SAP2    C221302   0.986   8.296  14.464 -0.3505 -0.2335  0.3694
 1757SAP2    C321303   1.252   8.208  14.650  0.0772 -0.1955 -0.1977
 1757SAP2    C421304   1.131   8.325  14.570  0.0007 -0.0000  0.0553
 1757SAP2   PO421305   0.863   8.714  14.641  0.1152  0.1129  0.2663
 1757SAP2    P421306   1.273   7.935  14.554  0.1282 -0.0884 -0.0862
 1757SAP2    P521307   1.076   8.159  14.180 -0.1891 -0.0832 -0.1260
 1757SAP2   GL121308   0.973   8.869  14.915 -0.0846  0.1244  0.2997
 1757SAP2   GL221309   1.021   8.609  15.093 -0.3943 -0.0560  0.0733
 1757SAP2   D1A21310   1.309   8.953  15.173 -0.0359 -0.0456  0.0132
 1757SAP2   D2A21311   1.540   9.277  15.385  0.2584  0.2834 -0.0095
 1757SAP2   D3A21312   1.279   9.664  15.385  0.0449  0.2489  0.2138
 1757SAP2   D4A21313   1.423   9.902  15.725 -0.0350  0.1596 -0.0009
 1757SAP2   C5A21314   0.979  10.001  15.636  0.0148 -0.0653 -0.1479
 1757SAP2   C1B21315   1.002   8.726  15.520  0.1438 -0.3187 -0.0137
 1757SAP2   C2B21316   1.310   8.921  15.804  0.1707  0.2414 -0.1900
 1757SAP2   C3B21317   1.324   8.960  16.276  0.0272  0.2133 -0.0964
 1757SAP2   C4B21318   1.006   9.039  16.593 -0.1170 -0.0097  0.1064
 1758SAP2    C121319   2.574  26.421  14.336  0.2333  0.3170 -0.0381
 1758SAP2    C221320   2.735  26.610  14.213  0.2492  0.0167 -0.5031
 1758SAP2    C321321   2.423  26.529  14.118  0.0636  0.1257 -0.0189
 1758SAP2    C421322   2.577  26.520  14.223  0.0007 -0.0000  0.0553
 1758SAP2   PO421323   2.542  26.433  14.671  0.1862  0.4069  0.1862
 1758SAP2    P421324   2.471  26.586  13.789  0.0120 -0.0011  0.0138
 1758SAP2    P521325   2.842  26.708  13.957  0.0015  0.3344 -0.2231
 1758SAP2   GL121326   2.207  26.475  14.829 -0.1587  0.1069 -0.2372
 1758SAP2   GL221327   2.303  26.526  15.129  0.1282 -0.0179  0.0469
 1758SAP2   D1A21328   1.763  26.429  14.765 -0.0175 -0.0334  0.0606
 1758SAP2   D2A21329   1.495  26.260  15.106 -0.0131  0.2693  0.1032
 1758SAP2   D3A21330   1.047  26.312  15.124 -0.1406 -0.4472  0.2648
 1758SAP2   D4A21331   1.060  26.253  15.544  0.2428  0.1105  0.0319
 1758SAP2   C5A21332   1.107  26.235  16.035  0.0457 -0.0525 -0.0640
 1758SAP2   C1B21333   2.204  26.308  15.472  0.0773 -0.0899 -0.2442
 1758SAP2   C2B21334   1.978  26.203  15.889 -0.2175  0.0791 -0.3061
 1758SAP2   C3B21335   1.975  26.022  16.356 -0.0523 -0.0604  0.4825
 1758SAP2   C4B21336   2.161  25.752  16.711  0.0756 -0.0037  0.0674
 1759SAP2    C121337   2.084  23.349  14.242  0.1559 -0.1045 -0.2291
 1759SAP2    C221338   1.847  23.422  14.118 -0.0838  0.0651  0.2980
 1759SAP2    C321339   1.923  23.113  14.226  0.0121 -0.0244 -0.0140
 1759SAP2    C421340   1.951  23.295  14.195  0.0007 -0.0000  0.0553
 1759SAP2   PO421341   2.200  23.575  14.445 -0.1277 -0.1760  0.2426
 1759SAP2    P421342   1.704  22.973  14.033 -0.1467 -0.2086  0.0654
 1759SAP2    P521343   1.700  23.442  13.853 -0.0635  0.2060 -0.1793
 1759SAP2   GL121344   2.123  23.640  14.743  0.0975 -0.1167 -0.1346
 1759SAP2   GL221345   2.173  23.503  14.982 -0.2215 -0.0247 -0.1693
 1759SAP2   D1A21346   2.159  24.069  14.595 -0.1277  0.2522  0.0770
 1759SAP2   D2A21347   2.073  24.256  14.982 -0.1838  0.0914 -0.0267
 1759SAP2   D3A21348   2.185  24.595  14.656  0.3018 -0.1581  0.0661
 1759SAP2   D4A21349   1.971  25.017  14.748  0.1018 -0.0186  0.1426
 1759SAP2   C5A21350   1.708  24.660  14.710  0.1367 -0.0999  0.0666
 1759SAP2   C1B21351   1.882  23.809  15.172  0.0409  0.1762 -0.4087
 1759SAP2   C2B21352   1.803  23.804  15.625 -0.0746 -0.0231  0.0747
 1759SAP2   C3B21353   1.695  23.932  16.047 -0.0126 -0.0657 -0.2964
 1759SAP2   C4B21354   1.523  24.056  16.481  0.0420 -0.2652  0.0549
 1760SAP2    C121355  11.554  13.321  14.500 -0.1250  0.0915 -0.2355
 1760SAP2    C221356  11.366  13.328  14.297 -0.0919  0.0152 -0.2692
 1760SAP2    C321357  11.654  13.155  14.289  0.0021  0.1678 -0.2367
 1760SAP2    C421358  11.525  13.268  14.362  0.0007 -0.0000  0.0553
 1760SAP2   PO421359  11.399  13.345  14.779 -0.1703 -0.0955 -0.1553
 1760SAP2    P421360  11.593  13.092  14.003 -0.3191  0.1666 -0.1896
 1760SAP2    P521361  11.333  13.466  14.065  0.0027 -0.1997  0.0539
 1760SAP2   GL121362  11.588  13.395  15.000  0.2267  0.1789  0.0204
 1760SAP2   GL221363  11.420  13.654  15.155  0.1071  0.0943 -0.0639
 1760SAP2   D1A21364  11.901  13.466  15.286 -0.2122 -0.2888  0.1185
 1760SAP2   D2A21365  11.814  13.122  15.534 -0.4556 -0.0789 -0.4948
 1760SAP2   D3A21366  11.907  13.289  15.957  0.1780  0.1929 -0.0825
 1760SAP2   D4A21367  12.287  13.434  16.244  0.1677 -0.0232 -0.0726
 1760SAP2   C5A21368  12.689  13.536  16.034  0.0524 -0.2637 -0.2401
 1760SAP2   C1B21369  11.442  13.696  15.644  0.3155  0.1906  0.0849
 1760SAP2   C2B21370  11.690  13.752  15.988 -0.1542  0.2679 -0.2177
 1760SAP2   C3B21371  11.746  13.733  16.467  0.2640  0.0517  0.1234
 1760SAP2   C4B21372  11.907  13.706  16.857 -0.1161 -0.1082 -0.0137
 1761SAP2    C121373  14.021  29.710  14.934 -0.1713  0.1394  0.0199
 1761SAP2    C221374  13.829  29.565  14.796  0.1244 -0.1697 -0.0800
 1761SAP2    C321375  14.081  29.737  14.656  0.0998 -0.0159  0.0603
 1761SAP2    C421376  13.977  29.671  14.795  0.0007 -0.0000  0.0553
 1761SAP2   PO421377  14.127  29.500  15.173  0.0325  0.2178 -0.0963
 1761SAP2    P421378  13.971  29.669  14.366 -0.1111  0.0330  0.0554
 1761SAP2    P521379  13.610  29.584  14.645  0.1026 -0.1789 -0.0845
 1761SAP2   GL121380  14.028  29.418  15.414  0.3419 -0.0878 -0.1267
 1761SAP2   GL221381  13.773  29.247  15.462  0.0215 -0.1339  0.3389
 1761SAP2   D1A21382  14.483  29.458  15.522 -0.1074  0.1335  0.1532
 1761SAP2   D2A21383  14.330  29.898  15.698  0.2273 -0.2352  0.3274
 1761SAP2   D3A21384  13.985  30.149  15.896  0.3291  0.1673 -0.0160
 1761SAP2   D4A21385  13.902  29.856  16.264  0.0847  0.0863  0.1841
 1761SAP2   C5A21386  14.191  30.003  16.569  0.0730  0.0074 -0.0722
 1761SAP2   C1B21387  13.780  29.211  15.961  0.1092 -0.3338  0.1503
 1761SAP2   C2B21388  13.571  29.446  16.308  0.2555  0.3882 -0.0614
 1761SAP2   C3B21389  13.297  29.764  16.426  0.0606 -0.1380  0.0938
 1761SAP2   C4B21390  12.917  30.076  16.369  0.2690  0.0192 -0.1997
 1762SAP2    C121391   0.070  24.723  14.008 -0.1120 -0.1481  0.0826
 1762SAP2    C221392  -0.015  24.460  14.031 -0.3262 -0.1203 -0.2995
 1762SAP2    C321393  -0.199  24.713  13.908  0.0285  0.1198 -0.3509
 1762SAP2    C421394  -0.048  24.632  13.982  0.0007 -0.0000  0.0553
 1762SAP2   PO421395   0.390  24.700  13.859 -0.3155  0.2632  0.2568
 1762SAP2    P421396  -0.395  24.511  13.796 -0.0600  0.0918 -0.0873
 1762SAP2    P521397  -0.212  24.165  14.054 -0.0391 -0.2718 -0.1409
 1762SAP2   GL121398   0.658  24.859  14.108 -0.1806  0.5377  0.0745
 1762SAP2   GL221399   0.782  24.676  14.300  0.1098  0.1680  0.1276
 1762SAP2   D1A21400   0.896  25.259  14.288  0.1563  0.3312 -0.1579
 1762SAP2   D2A21401   1.114  25.053  14.569  0.0129  0.1661  0.0797
 1762SAP2   D3A21402   0.960  24.857  14.938  0.0929  0.0308 -0.0117
 1762SAP2   D4A21403   0.601  25.075  14.792  0.0337 -0.0697 -0.0121
 1762SAP2   C5A21404   0.725  25.532  14.803 -0.0309  0.0580 -0.1138
 1762SAP2   C1B21405   0.993  24.472  14.637 -0.1755  0.1066 -0.0424
 1762SAP2   C2B21406   1.362  24.408  14.917  0.0468 -0.2600  0.2459
 1762SAP2   C3B21407   1.680  24.514  15.211  0.0772 -0.1762 -0.1882
 1762SAP2   C4B21408   1.844  24.306  15.551  0.3542  0.1901  0.0772
 1763POPC   NC321409  12.555   6.335   7.556  0.0048 -0.0668  0.1215
 1763POPC   PO421410  12.826   6.445   7.829  0.1120 -0.0381  0.0539
 1763POPC   GL121411  13.097   6.344   7.679 -0.1797 -0.0185  0.2200
 1763POPC   GL221412  13.384   6.440   7.686  0.0497  0.0281  0.2723
 1763POPC   C1A21413  13.057   6.284   7.237 -0.0836  0.1173 -0.0245
 1763POPC   D2A21414  13.302   6.365   6.816  0.0739 -0.2538  0.1261
 1763POPC   C3A21415  13.273   6.708   6.478 -0.0129  0.2085  0.1339
 1763POPC   C4A21416  13.175   6.682   6.041  0.0996 -0.2587 -0.2050
 1763POPC   C1B21417  13.567   6.049   7.744  0.0679 -0.0873  0.0835
 1763POPC   C2B21418  13.757   5.670   7.875 -0.0471  0.0574 -0.1744
 1763POPC   C3B21419  13.896   5.241   7.865 -0.1145  0.0323 -0.1539
 1763POPC   C4B21420  13.976   4.854   7.595 -0.0368 -0.2312 -0.0442
 1764POPC   NC321421  14.097  16.529   7.486 -0.0272  0.0938 -0.0758
 1764POPC   PO421422  13.863  16.283   7.646  0.1590 -0.0923 -0.1410
 1764POPC   GL121423  13.992  16.099   7.300 -0.5259 -0.1787 -0.1135
 1764POPC   GL221424  14.074  16.236   7.076 -0.3162 -0.1073 -0.2368
 1764POPC   C1A21425  13.753  15.888   6.998  0.0244 -0.1325  0.1143
 1764POPC   D2A21426  13.535  15.527   6.922 -0.4468 -0.2358  0.1267
 1764POPC   C3A21427  13.574  15.596   6.419  0.1246  0.2232 -0.1617
 1764POPC   C4A21428  13.814  15.694   6.021 -0.1337 -0.0794 -0.3142
 1764POPC   C1B21429  14.239  16.138   6.677  0.1035  0.3159  0.3243
 1764POPC   C2B21430  14.553  15.829   6.510 -0.1867 -0.0503 -0.1549
 1764POPC   C3B21431  14.946  15.787   6.238 -0.3356  0.1154 -0.0393
 1764POPC   C4B21432  15.156  15.596   5.805 -0.0422  0.0702  0.0862
 1765POPC   NC321433  12.984  26.585   7.569 -0.3671  0.1499  0.3633
 1765POPC   PO421434  13.275  26.494   7.816 -0.0201  0.2405 -0.2203
 1765POPC   GL121435  13.488  26.429   7.500 -0.0754  0.0464  0.2759
 1765POPC   GL221436  13.616  26.159   7.600 -0.2084  0.1309 -0.0224
 1765POPC   C1A21437  13.556  26.495   6.992  0.1149  0.1035 -0.2533
 1765POPC   D2A21438  13.739  26.733   6.659 -0.0157 -0.1605  0.1828
 1765POPC   C3A21439  13.806  26.636   6.207 -0.0673 -0.2825  0.2824
 1765POPC   C4A21440  13.984  26.795   5.768  0.1999  0.1153  0.4191
 1765POPC   C1B21441  13.853  25.891   7.274  0.1636  0.1540 -0.1864
 1765POPC   C2B21442  13.752  25.859   6.810 -0.0502  0.1785  0.0345
 1765POPC   C3B21443  13.468  26.047   6.538 -0.0136 -0.1876 -0.1233
 1765POPC   C4B21444  13.300  26.471   6.453 -0.1087  0.0500  0.1354
 1766POPC   NC321445   3.639   5.547   7.867 -0.3529 -0.0996 -0.0299
 1766POPC   PO421446   3.406   5.247   7.778 -0.2181  0.2153 -0.2479
 1766POPC   GL121447   3.553   5.268   7.428 -0.0824  0.0429 -0.0073
 1766POPC   GL221448   3.492   5.567   7.402  0.1617 -0.0683 -0.4768
 1766POPC   C1A21449   3.453   4.888   7.145 -0.0445 -0.2074  0.1370
 1766POPC   D2A21450   3.418   4.492   6.900  0.0516  0.0696  0.2095
 1766POPC   C3A21451   3.674   4.465   6.545 -0.1438 -0.1497  0.0644
 1766POPC   C4A21452   3.666   4.740   6.225  0.0756  0.0095  0.0757
 1766POPC   C1B21453   3.450   5.397   6.970 -0.0439 -0.0120 -0.1736
 1766POPC   C2B21454   3.370   5.412   6.488 -0.0901  0.2134  0.2223
 1766POPC   C3B21455   3.671   5.234   6.199 -0.2529  0.2057 -0.0215
 1766POPC   C4B21456   3.968   4.999   5.889  0.0769 -0.0468  0.0539
 1767POPC   NC321457   7.205   6.764   7.506 -0.0633  0.0988 -0.2709
 1767POPC   PO421458   6.850   6.906   7.607 -0.1026 -0.1540 -0.1899
 1767POPC   GL121459   6.976   7.088   7.244  0.1224  0.2641  0.2001
 1767POPC   GL221460   7.171   7.314   7.184 -0.1338  0.1278 -0.1013
 1767POPC   C1A21461   7.009   6.978   6.794 -0.2938 -0.3035  0.2759
 1767POPC   D2A21462   6.955   6.841   6.360 -0.1542  0.0520  0.0922
 1767POPC   C3A21463   7.079   6.477   6.066 -0.2001 -0.2835 -0.0319
 1767POPC   C4A21464   7.109   6.040   5.969  0.2005 -0.2397  0.2821
 1767POPC   C1B21465   7.247   7.514   6.807  0.0027  0.3501  0.0166
 1767POPC   C2B21466   7.330   7.267   6.394  0.0261 -0.0632 -0.0492
 1767POPC   C3B21467   7.433   7.001   6.054 -0.1290 -0.0435  0.1493
 1767POPC   C4B21468   7.610   6.575   5.861 -0.3939 -0.3199 -0.0382
 1768POPC   NC321469   9.357  22.794   7.492  0.2419 -0.0233 -0.0111
 1768POPC   PO421470   9.329  23.030   7.791  0.0503 -0.1095 -0.4220
 1768POPC   GL121471   9.289  23.252   7.426 -0.0358  0.2430  0.2829
 1768POPC   GL221472   9.072  23.159   7.285  0.2934 -0.0521  0.1754
 1768POPC   C1A21473   9.193  23.627   7.219  0.0984  0.1301  0.2304
 1768POPC   D2A21474   9.188  23.695   6.763 -0.0662  0.1670 -0.1430
 1768POPC   C3A21475   9.210  24.133   6.735  0.0753  0.0590  0.1005
 1768POPC   C4A21476   9.055  24.442   6.369  0.1139 -0.3237 -0.2510
 1768POPC   C1B21477   8.834  23.123   6.892 -0.3895  0.1949 -0.1874
 1768POPC   C2B21478   8.907  23.340   6.455 -0.1669  0.0184 -0.1276
 1768POPC   C3B21479   8.920  23.234   6.036  0.2595 -0.1589 -0.1230
 1768POPC   C4B21480   8.966  23.168   5.553  0.0427  0.0221 -0.1535
 1769POPC   NC321481  13.674   8.515   7.755 -0.1144 -0.0715 -0.0716
 1769POPC   PO421482  13.953   8.718   7.979 -0.1399 -0.1099 -0.1862
 1769POPC   GL121483  13.935   8.890   7.580  0.0312 -0.2512 -0.1208
 1769POPC   GL221484  13.867   9.182   7.550 -0.2029 -0.1058 -0.1497
 1769POPC   C1A21485  14.356   9.051   7.383 -0.0622 -0.1514 -0.1087
 1769POPC   D2A21486  14.607   9.336   7.155  0.0184  0.0843  0.1619
 1769POPC   C3A21487  14.582   9.359   6.713 -0.2953  0.0267  0.0900
 1769POPC   C4A21488  14.647   9.311   6.273 -0.0586  0.0733  0.2401
 1769POPC   C1B21489  13.757   9.043   7.124 -0.1648  0.1463  0.1508
 1769POPC   C2B21490  13.669   9.021   6.648 -0.0372 -0.3669 -0.0011
 1769POPC   C3B21491  13.456   8.784   6.278  0.2276  0.0035 -0.1591
 1769POPC   C4B21492  13.417   8.778   5.836 -0.0970  0.0793  0.1079
 1770POPC   NC321493   1.823   7.433   7.634 -0.0997 -0.0858  0.1660
 1770POPC   PO421494   2.180   7.608   7.719  0.1659  0.0766 -0.1832
 1770POPC   GL121495   2.333   7.608   7.385 -0.0286  0.1255  0.0752
 1770POPC   GL221496   2.228   7.321   7.258 -0.0018 -0.1666  0.2606
 1770POPC   C1A21497   2.756   7.546   7.238 -0.0893  0.0299 -0.1178
 1770POPC   D2A21498   3.211   7.498   7.001 -0.0115  0.0214  0.1307
 1770POPC   C3A21499   3.171   7.335   6.539  0.0544  0.0209  0.1805
 1770POPC   C4A21500   3.016   7.430   6.092 -0.0376 -0.0574 -0.0206
 1770POPC   C1B21501   2.299   7.004   6.912  0.1442 -0.3113  0.0539
 1770POPC   C2B21502   2.453   6.862   6.480  0.1568  0.0426  0.0256
 1770POPC   C3B21503   2.403   6.846   5.984  0.1613  0.2781  0.1618
 1770POPC   C4B21504   2.010   6.839   5.718  0.0653  0.1924  0.1928
 1771POPC   NC321505   8.939   6.640   7.929 -0.0709 -0.1321  0.0090
 1771POPC   PO421506   9.181   6.407   7.666 -0.0996 -0.3427  0.0280
 1771POPC   GL121507   9.201   6.430   7.279 -0.2239  0.0480 -0.2343
 1771POPC   GL221508   9.028   6.571   7.179  0.0263 -0.0360 -0.0873
 1771POPC   C1A21509   9.454   6.478   6.859  0.3066  0.2475  0.2560
 1771POPC   D2A21510   9.523   6.434   6.434  0.1704  0.1405  0.1959
 1771POPC   C3A21511   9.404   6.829   6.201 -0.2967 -0.2312 -0.1171
 1771POPC   C4A21512   9.295   6.904   5.738 -0.0877 -0.0849  0.1648
 1771POPC   C1B21513   8.822   6.782   6.845  0.0819  0.0738  0.3223
 1771POPC   C2B21514   8.938   6.967   6.448 -0.0702  0.3841  0.2419
 1771POPC   C3B21515   8.838   6.961   6.007 -0.0281 -0.1663 -0.1914
 1771POPC   C4B21516   8.662   6.887   5.568  0.0177 -0.1200  0.0270
 1772POPC   NC321517  13.633  14.625   7.456 -0.0328 -0.2168 -0.2296
 1772POPC   PO421518  14.003  14.542   7.537 -0.1421 -0.1810  0.0306
 1772POPC   GL121519  14.001  14.355   7.170  0.0620  0.0115 -0.0419
 1772POPC   GL221520  13.801  14.146   7.296 -0.2210 -0.0150  0.0557
 1772POPC   C1A21521  13.968  14.101   6.794  0.2954  0.1122 -0.0444
 1772POPC   D2A21522  13.876  14.188   6.395 -0.0629  0.3974 -0.0352
 1772POPC   C3A21523  13.843  14.272   5.942  0.2057 -0.4239  0.2516
 1772POPC   C4A21524  13.859  14.244   5.497 -0.0835  0.0088 -0.1870
 1772POPC   C1B21525  13.914  13.724   7.132 -0.4875  0.0231  0.0510
 1772POPC   C2B21526  14.047  13.628   6.696  0.1500 -0.4667 -0.1063
 1772POPC   C3B21527  14.038  13.684   6.212 -0.0415 -0.4519  0.1222
 1772POPC   C4B21528  14.179  13.921   5.868  0.1898 -0.0655 -0.1142
 1773POPC   NC321529   6.206  25.375   7.423 -0.0460 -0.1870 -0.5871
 1773POPC   PO421530   6.300  25.638   7.709  0.1161 -0.0932  0.0059
 1773POPC   GL121531   6.077  25.880   7.311 -0.2411  0.0428 -0.0467
 1773POPC   GL221532   6.147  25.741   7.060  0.2093 -0.0456 -0.1823
 1773POPC   C1A21533   6.017  26.325   7.248 -0.4319  0.1653  0.5200
 1773POPC   D2A21534   5.858  26.758   7.107  0.1077 -0.2115  0.1824
 1773POPC   C3A21535   5.605  26.562   6.716  0.1458  0.2483  0.2734
 1773POPC   C4A21536   5.538  26.535   6.250  0.2465 -0.0653 -0.0502
 1773POPC   C1B21537   6.210  25.386   6.789 -0.0807  0.0548 -0.2642
 1773POPC   C2B21538   6.083  25.145   6.413  0.4200 -0.1027 -0.1447
 1773POPC   C3B21539   5.869  25.135   6.035 -0.0004 -0.2844  0.2223
 1773POPC   C4B21540   5.632  25.523   5.839  0.1348 -0.1278 -0.0701
 1774POPC   NC321541   8.473   7.261   7.736  0.1803  0.1062  0.1934
 1774POPC   PO421542   8.543   6.934   7.937 -0.2276  0.1795 -0.3539
 1774POPC   GL121543   8.680   6.723   7.561 -0.1698  0.3290 -0.0375
 1774POPC   GL221544   8.903   6.940   7.510 -0.5423 -0.0052 -0.2458
 1774POPC   C1A21545   8.367   6.613   7.218 -0.0962  0.0781 -0.3707
 1774POPC   D2A21546   8.249   6.578   6.768  0.1154 -0.3171 -0.1835
 1774POPC   C3A21547   8.611   6.499   6.432  0.2191 -0.2976  0.0159
 1774POPC   C4A21548   8.745   6.087   6.255 -0.1530 -0.0738  0.1330
 1774POPC   C1B21549   8.703   7.176   7.221  0.0589  0.0149  0.0709
 1774POPC   C2B21550   8.716   7.326   6.733  0.1299  0.1060  0.2413
 1774POPC   C3B21551   8.717   7.441   6.280 -0.3551  0.0511  0.2472
 1774POPC   C4B21552   8.423   7.484   5.992  0.1831 -0.2267  0.1024
 1775POPC   NC321553   1.609   0.493   8.228  0.1472 -0.0438  0.1747
 1775POPC   PO421554   1.476   0.780   8.029 -0.0172 -0.2042  0.0233
 1775POPC   GL121555   1.299   0.961   7.695  0.0838  0.1453  0.3112
 1775POPC   GL221556   1.125   0.712   7.640 -0.0714 -0.1145  0.1443
 1775POPC   C1A21557   1.447   0.973   7.255 -0.1634 -0.2387 -0.0272
 1775POPC   D2A21558   1.539   0.944   6.807  0.1847  0.1803  0.0946
 1775POPC   C3A21559   1.700   0.539   6.616  0.4956  0.0815 -0.1539
 1775POPC   C4A21560   1.559   0.224   6.329  0.1261 -0.1969 -0.0764
 1775POPC   C1B21561   1.026   0.626   7.256  0.0016  0.2660 -0.0378
 1775POPC   C2B21562   1.144   0.656   6.797  0.0792 -0.1027 -0.0863
 1775POPC   C3B21563   0.868   0.588   6.466 -0.0256  0.1207  0.0332
 1775POPC   C4B21564   0.910   0.394   6.043 -0.0061 -0.2347 -0.0674
 1776POPC   NC321565   7.152   3.538   8.118 -0.0192  0.0494 -0.3064
 1776POPC   PO421566   7.504   3.663   8.134 -0.0327  0.1736 -0.1774
 1776POPC   GL121567   7.336   4.007   7.972  0.1649  0.0801  0.0567
 1776POPC   GL221568   7.491   4.047   7.746 -0.0782 -0.0322 -0.2795
 1776POPC   C1A21569   6.916   3.928   7.709  0.0714  0.1584 -0.0803
 1776POPC   D2A21570   6.522   3.652   7.643  0.3193 -0.0013 -0.2073
 1776POPC   C3A21571   6.094   3.442   7.524  0.2338  0.2860  0.0011
 1776POPC   C4A21572   5.712   3.185   7.434  0.1053  0.0172 -0.2294
 1776POPC   C1B21573   7.289   4.072   7.367  0.2800  0.2665  0.2152
 1776POPC   C2B21574   7.012   4.193   7.001 -0.0008  0.0108 -0.2289
 1776POPC   C3B21575   6.992   4.347   6.660  0.2167 -0.0946 -0.2676
 1776POPC   C4B21576   7.169   4.453   6.245 -0.0325 -0.0767  0.1705
 1777POPC   NC321577   2.537  19.091   8.011 -0.1681  0.1076 -0.1143
 1777POPC   PO421578   2.619  19.450   8.199  0.0213  0.1244 -0.0293
 1777POPC   GL121579   2.464  19.629   7.870  0.0138  0.1552  0.2241
 1777POPC   GL221580   2.610  19.662   7.635  0.0979  0.0246  0.1275
 1777POPC   C1A21581   2.196  19.944   7.741  0.1687  0.0076  0.3562
 1777POPC   D2A21582   1.948  20.334   7.569 -0.0544 -0.2064  0.0329
 1777POPC   C3A21583   1.806  20.194   7.200 -0.0744  0.0285 -0.0133
 1777POPC   C4A21584   1.608  20.227   6.789  0.0399  0.0829  0.3249
 1777POPC   C1B21585   2.327  19.576   7.282  0.1339 -0.2138  0.0878
 1777POPC   C2B21586   1.915  19.584   7.005 -0.0511  0.2354 -0.2546
 1777POPC   C3B21587   1.631  19.482   6.659  0.2348  0.1572 -0.0507
 1777POPC   C4B21588   1.201  19.296   6.520 -0.1479  0.0191  0.0840
 1778POPC   NC321589   8.196  15.328   7.543 -0.1234  0.1555  0.3556
 1778POPC   PO421590   8.553  15.255   7.638 -0.4138  0.1416  0.1446
 1778POPC   GL121591   8.656  15.237   7.225 -0.0326 -0.3495  0.1853
 1778POPC   GL221592   8.680  14.983   7.097  0.1499  0.0971  0.0758
 1778POPC   C1A21593   8.697  15.356   6.754 -0.1277  0.0363  0.4603
 1778POPC   D2A21594   8.774  15.690   6.393 -0.1661  0.1117 -0.0326
 1778POPC   C3A21595   8.958  15.787   6.003 -0.0232  0.0152 -0.3598
 1778POPC   C4A21596   9.148  15.735   5.599  0.1075  0.2039  0.0072
 1778POPC   C1B21597   8.478  14.833   6.696 -0.2248  0.0940  0.1910
 1778POPC   C2B21598   8.608  14.739   6.265 -0.1085  0.0754  0.2848
 1778POPC   C3B21599   8.798  14.708   5.836 -0.1868  0.3746 -0.0940
 1778POPC   C4B21600   8.734  14.454   5.410 -0.2725  0.2127  0.0038
 1779POPC   NC321601   1.122  22.503   7.362 -0.0045 -0.2113 -0.1982
 1779POPC   PO421602   1.130  22.230   7.625  0.1844 -0.1014 -0.1460
 1779POPC   GL121603   0.971  21.839   7.524  0.2214 -0.0332 -0.2943
 1779POPC   GL221604   1.024  21.795   7.247  0.0727  0.1792  0.3560
 1779POPC   C1A21605   1.250  21.415   7.524  0.4365 -0.1274  0.5486
 1779POPC   D2A21606   1.379  21.022   7.651  0.3835  0.1295  0.2956
 1779POPC   C3A21607   1.618  20.761   7.385 -0.0538 -0.3708 -0.3896
 1779POPC   C4A21608   1.644  20.686   6.903  0.1161  0.1105  0.0525
 1779POPC   C1B21609   0.902  21.847   6.826 -0.3292  0.0991 -0.1127
 1779POPC   C2B21610   1.084  21.669   6.486 -0.1412 -0.1387 -0.1230
 1779POPC   C3B21611   0.794  21.482   6.183  0.2388  0.1454  0.1614
 1779POPC   C4B21612   0.540  21.467   5.819 -0.0930 -0.2340  0.2181
 1780POPC   NC321613   4.989  15.365   7.486  0.1349 -0.1195 -0.0036
 1780POPC   PO421614   4.588  15.427   7.635  0.0085 -0.2149 -0.0185
 1780POPC   GL121615   4.678  15.598   7.223  0.0498 -0.0221 -0.1463
 1780POPC   GL221616   4.673  15.389   7.019  0.1981  0.3692  0.2263
 1780POPC   C1A21617   5.129  15.602   7.047 -0.2806  0.2744  0.0998
 1780POPC   D2A21618   5.226  15.956   6.751 -0.3764  0.0363 -0.0516
 1780POPC   C3A21619   5.028  15.904   6.312 -0.1332  0.1144  0.2240
 1780POPC   C4A21620   4.732  16.004   5.928 -0.2152 -0.1838  0.0145
 1780POPC   C1B21621   4.387  15.061   6.801  0.2190  0.0788 -0.0571
 1780POPC   C2B21622   4.291  14.810   6.428  0.1246  0.0249  0.0816
 1780POPC   C3B21623   4.097  14.936   6.039 -0.1025 -0.1248 -0.1622
 1780POPC   C4B21624   4.036  14.863   5.557  0.1104 -0.4738 -0.0989
 1781POPC   NC321625  12.034  12.716   7.572 -0.2420 -0.0526 -0.2323
 1781POPC   PO421626  12.005  12.374   7.796  0.0856 -0.1830 -0.0665
 1781POPC   GL121627  12.098  12.214   7.433  0.1418 -0.1300 -0.0978
 1781POPC   GL221628  12.014  12.376   7.175  0.0267 -0.0892 -0.0534
 1781POPC   C1A21629  12.313  11.951   7.068  0.1430 -0.2509  0.0193
 1781POPC   D2A21630  12.301  11.944   6.603 -0.0284 -0.0846  0.1719
 1781POPC   C3A21631  12.235  11.640   6.308  0.1618  0.2513 -0.0057
 1781POPC   C4A21632  12.378  11.171   6.316  0.2228  0.2837 -0.1493
 1781POPC   C1B21633  11.996  12.300   6.770  0.2017  0.0930 -0.0970
 1781POPC   C2B21634  11.955  12.201   6.301 -0.0014  0.0753  0.0249
 1781POPC   C3B21635  12.113  11.912   5.955  0.0852  0.0726  0.0423
 1781POPC   C4B21636  12.250  11.876   5.507 -0.1570 -0.0609  0.1056
 1782POPC   NC321637   7.284  22.743   7.651 -0.0811 -0.0470 -0.0735
 1782POPC   PO421638   7.355  22.529   7.420 -0.0135 -0.0594 -0.2634
 1782POPC   GL121639   7.090  22.810   7.180 -0.3035  0.1786 -0.2426
 1782POPC   GL221640   6.883  22.611   7.037  0.3233 -0.0576 -0.0980
 1782POPC   C1A21641   7.159  23.056   6.861  0.2021  0.0406 -0.0015
 1782POPC   D2A21642   7.174  22.996   6.395  0.2049  0.1209 -0.0223
 1782POPC   C3A21643   7.333  23.247   6.016  0.0653 -0.0377  0.0272
 1782POPC   C4A21644   7.220  23.226   5.547  0.1384 -0.0423  0.1606
 1782POPC   C1B21645   7.115  22.518   6.662  0.1836  0.2749 -0.2414
 1782POPC   C2B21646   6.981  22.582   6.215 -0.0346  0.0861 -0.0248
 1782POPC   C3B21647   6.894  22.978   5.960  0.0259 -0.2616 -0.0587
 1782POPC   C4B21648   6.844  23.404   6.164 -0.2208 -0.4406 -0.2486
 1783POPC   NC321649  14.904  28.743   7.824  0.0350 -0.1787 -0.2477
 1783POPC   PO421650  15.099  28.742   7.526 -0.2671  0.0224  0.2213
 1783POPC   GL121651  15.081  28.616   7.250  0.1020  0.0671 -0.1272
 1783POPC   GL221652  15.383  28.515   7.148 -0.2067  0.0844  0.0595
 1783POPC   C1A21653  15.029  28.719   6.794  0.4482  0.1755  0.0651
 1783POPC   D2A21654  15.199  29.004   6.490  0.4179  0.1010  0.0623
 1783POPC   C3A21655  15.438  28.947   6.138 -0.1914  0.1333  0.0715
 1783POPC   C4A21656  15.385  29.083   5.690  0.2035  0.1501  0.0620
 1783POPC   C1B21657  15.501  28.557   6.651  0.2834  0.0332 -0.1278
 1783POPC   C2B21658  15.277  28.516   6.257 -0.1354  0.2371  0.3927
 1783POPC   C3B21659  15.165  28.630   5.793 -0.1742  0.0484 -0.0432
 1783POPC   C4B21660  15.426  28.713   5.384  0.1150  0.0876  0.1910
 1784POPC   NC321661   8.170   3.514   7.476 -0.0546 -0.1544  0.1052
 1784POPC   PO421662   7.913   3.777   7.507  0.0839  0.2847  0.4044
 1784POPC   GL121663   7.659   3.713   7.324  0.2733  0.0252 -0.0717
 1784POPC   GL221664   7.680   3.513   7.161 -0.3228 -0.0917 -0.2090
 1784POPC   C1A21665   7.540   3.877   6.917 -0.0060  0.1106  0.0171
 1784POPC   D2A21666   7.436   4.163   6.573 -0.2392  0.2042 -0.0509
 1784POPC   C3A21667   7.600   3.992   6.181 -0.0204 -0.3125 -0.0590
 1784POPC   C4A21668   8.014   4.003   6.037 -0.2203 -0.1253  0.2963
 1784POPC   C1B21669   7.865   3.267   6.797 -0.2796  0.1468  0.1888
 1784POPC   C2B21670   7.992   3.069   6.395 -0.3010 -0.0610 -0.1513
 1784POPC   C3B21671   7.814   2.667   6.158 -0.0981  0.1433 -0.1021
 1784POPC   C4B21672   7.792   2.275   6.397 -0.0080  0.0533 -0.0949
 1785POPC   NC321673  12.052  26.922   8.030  0.1943  0.3133  0.3047
 1785POPC   PO421674  12.082  26.804   7.652  0.3541  0.0018 -0.1478
 1785POPC   GL121675  12.118  26.655   7.352 -0.3077 -0.0709 -0.1065
 1785POPC   GL221676  12.111  26.843   7.092  0.0273  0.1465  0.0721
 1785POPC   C1A21677  12.055  26.403   6.995 -0.2004 -0.0950  0.2158
 1785POPC   D2A21678  11.982  26.057   6.669 -0.0812  0.0526 -0.1405
 1785POPC   C3A21679  11.595  25.966   6.451 -0.1367 -0.2749  0.1514
 1785POPC   C4A21680  11.378  25.607   6.305 -0.1015  0.1545 -0.1943
 1785POPC   C1B21681  11.811  26.860   6.738  0.3733  0.0706 -0.0674
 1785POPC   C2B21682  11.862  26.565   6.344 -0.0869  0.0460  0.2285
 1785POPC   C3B21683  11.953  26.572   5.896  0.1525 -0.3748  0.3637
 1785POPC   C4B21684  11.954  26.420   5.427  0.1003 -0.2596 -0.2498
 1786POPC   NC321685   4.001  16.379   7.876  0.1372 -0.3233 -0.0978
 1786POPC   PO421686   4.165  16.742   7.725  0.0615 -0.2379  0.1809
 1786POPC   GL121687   4.214  16.730   7.230  0.1331  0.3620  0.1081
 1786POPC   GL221688   3.995  16.485   7.188  0.0360  0.1463  0.1325
 1786POPC   C1A21689   3.986  16.839   6.837  0.0959  0.0579 -0.0393
 1786POPC   D2A21690   3.696  17.208   6.709 -0.3756 -0.4011 -0.0258
 1786POPC   C3A21691   3.626  17.394   6.313  0.0645 -0.1681  0.3996
 1786POPC   C4A21692   3.676  17.624   5.846 -0.1044 -0.1458 -0.0083
 1786POPC   C1B21693   3.725  16.417   6.823 -0.1881 -0.0333 -0.1273
 1786POPC   C2B21694   3.375  16.280   6.542  0.0692  0.1341 -0.0857
 1786POPC   C3B21695   3.163  16.222   6.191  0.1774 -0.0367 -0.0949
 1786POPC   C4B21696   3.017  16.128   5.783  0.1243 -0.3734 -0.1440
 1787POPC   NC321697   6.621  10.377   8.181 -0.3765 -0.2833 -0.1668
 1787POPC   PO421698   6.249  10.248   8.087  0.0188  0.0585  0.2108
 1787POPC   GL121699   6.077  10.270   7.780  0.2521 -0.0639 -0.1672
 1787POPC   GL221700   5.807  10.163   7.851  0.1125  0.0721 -0.0065
 1787POPC   C1A21701   6.024  10.202   7.368 -0.2932  0.0643  0.1934
 1787POPC   D2A21702   5.695   9.905   7.211  0.1284 -0.3356  0.3126
 1787POPC   C3A21703   5.217   9.935   7.206  0.0408 -0.1169  0.2235
 1787POPC   C4A21704   4.938  10.272   7.383 -0.4579 -0.2296  0.1905
 1787POPC   C1B21705   5.564   9.731   7.729  0.1603 -0.2988  0.1411
 1787POPC   C2B21706   5.121   9.597   7.612  0.2162  0.0664  0.0165
 1787POPC   C3B21707   4.840   9.510   7.307 -0.2367 -0.2027  0.0462
 1787POPC   C4B21708   4.774   9.596   6.872  0.1218 -0.0083 -0.0184
 1788POPC   NC321709  15.210  13.801   7.834  0.1241 -0.2540 -0.1760
 1788POPC   PO421710  15.453  14.127   7.886 -0.3654  0.1096 -0.0862
 1788POPC   GL121711  15.415  14.399   7.574 -0.1468 -0.4167 -0.6144
 1788POPC   GL221712  15.361  14.711   7.641  0.1850 -0.1038  0.0148
 1788POPC   C1A21713  15.423  14.381   7.144 -0.2068 -0.1074  0.0296
 1788POPC   D2A21714  15.602  14.670   6.845 -0.0743 -0.0381 -0.1588
 1788POPC   C3A21715  16.044  14.752   6.946 -0.1384 -0.0786 -0.0459
 1788POPC   C4A21716  16.402  15.079   6.968  0.0574  0.1024  0.1598
 1788POPC   C1B21717  15.198  14.810   7.199 -0.1434  0.1477  0.1604
 1788POPC   C2B21718  15.127  14.507   6.803  0.0790 -0.1477  0.2008
 1788POPC   C3B21719  15.247  14.560   6.366  0.0769  0.0581 -0.0173
 1788POPC   C4B21720  15.579  14.862   6.248 -0.1143 -0.1668  0.0238
 1789POPC   NC321721   8.414  16.925   8.473 -0.0195  0.0049 -0.2748
 1789POPC   PO421722   8.501  16.986   8.053  0.0662 -0.3278 -0.2746
 1789POPC   GL121723   8.341  16.950   7.688 -0.2184 -0.0574  0.1072
 1789POPC   GL221724   8.159  17.198   7.749  0.0336 -0.1024 -0.0295
 1789POPC   C1A21725   8.238  16.864   7.236 -0.0498  0.0664  0.4003
 1789POPC   D2A21726   8.174  17.173   6.902 -0.2956  0.1679  0.1294
 1789POPC   C3A21727   8.157  17.250   6.421 -0.0524  0.0076 -0.1955
 1789POPC   C4A21728   8.266  17.153   5.929 -0.1781  0.0624 -0.0221
 1789POPC   C1B21729   8.196  17.423   7.401 -0.5363 -0.0212  0.1044
 1789POPC   C2B21730   8.626  17.551   7.245 -0.1669 -0.0328 -0.0308
 1789POPC   C3B21731   9.032  17.406   7.054 -0.2932  0.3370 -0.0152
 1789POPC   C4B21732   9.212  17.028   6.836 -0.1816  0.0424  0.0580
 1790POPC   NC321733   9.087   3.148   7.347  0.0758  0.0993  0.0033
 1790POPC   PO421734   9.236   2.781   7.432 -0.1311 -0.1118  0.2071
 1790POPC   GL121735   8.962   2.711   7.235 -0.0397 -0.3076  0.4013
 1790POPC   GL221736   8.707   2.862   7.402  0.1957  0.0272 -0.1820
 1790POPC   C1A21737   9.086   2.783   6.792  0.0225 -0.1620  0.2117
 1790POPC   D2A21738   9.074   2.542   6.464  0.1688  0.0488 -0.2949
 1790POPC   C3A21739   9.240   2.695   6.028 -0.2045 -0.1976 -0.1580
 1790POPC   C4A21740   9.540   2.707   5.688 -0.0815  0.0401 -0.0972
 1790POPC   C1B21741   8.579   2.965   6.986  0.4124  0.0102 -0.5229
 1790POPC   C2B21742   8.582   2.798   6.568  0.1612 -0.2778  0.1004
 1790POPC   C3B21743   9.012   3.059   6.355  0.3317 -0.3393  0.1915
 1790POPC   C4B21744   8.988   3.357   6.027 -0.0665  0.3057  0.2848
 1791POPC   NC321745   4.886   5.616   8.399  0.2070  0.0834 -0.2231
 1791POPC   PO421746   4.907   5.315   8.131  0.0496 -0.0942 -0.1250
 1791POPC   GL121747   5.051   5.099   7.819 -0.2550 -0.1319 -0.2434
 1791POPC   GL221748   5.198   5.197   7.592 -0.0176  0.0734 -0.0490
 1791POPC   C1A21749   5.076   4.615   7.833  0.0501 -0.1428 -0.1967
 1791POPC   D2A21750   4.909   4.195   8.001  0.1854  0.2067 -0.0314
 1791POPC   C3A21751   5.344   4.085   8.081  0.1317 -0.0330 -0.1291
 1791POPC   C4A21752   5.741   4.311   8.295  0.4506  0.0811 -0.0637
 1791POPC   C1B21753   5.044   5.015   7.211  0.1582  0.0297  0.0310
 1791POPC   C2B21754   4.874   4.729   6.849  0.1682 -0.2157  0.1087
 1791POPC   C3B21755   4.712   4.642   6.405  0.0009 -0.0335  0.3435
 1791POPC   C4B21756   4.474   4.879   6.002 -0.1917 -0.1721 -0.0261
 1792POPC   NC321757   4.801  11.035   7.699  0.0083  0.0747  0.1101
 1792POPC   PO421758   4.437  11.099   7.843 -0.1869 -0.1393 -0.0658
 1792POPC   GL121759   4.280  11.108   7.399 -0.0124  0.0390  0.1519
 1792POPC   GL221760   4.465  11.328   7.400 -0.1635  0.0293  0.1260
 1792POPC   C1A21761   3.932  11.295   7.177 -0.0682 -0.1714 -0.0660
 1792POPC   D2A21762   3.934  11.453   6.765 -0.3714  0.1785 -0.1126
 1792POPC   C3A21763   3.878  11.592   6.328  0.3612 -0.0921  0.2058
 1792POPC   C4A21764   3.851  11.600   5.863 -0.0627 -0.1618  0.0590
 1792POPC   C1B21765   4.451  11.563   6.993  0.0881  0.2252  0.0364
 1792POPC   C2B21766   4.270  11.804   6.645 -0.1333  0.1026 -0.0757
 1792POPC   C3B21767   4.296  11.871   6.168 -0.1650 -0.0728 -0.3708
 1792POPC   C4B21768   4.267  12.109   5.855  0.0510  0.2020 -0.0668
 1793POPC   NC321769   7.764  31.261   7.853 -0.1746  0.3911 -0.1913
 1793POPC   PO421770   7.791  30.881   7.719  0.0421  0.0643  0.2012
 1793POPC   GL121771   7.779  30.932   7.282 -0.0049  0.2100 -0.4142
 1793POPC   GL221772   8.063  31.066   7.296 -0.0797  0.0923 -0.0004
 1793POPC   C1A21773   7.602  30.679   6.918 -0.1102  0.0119  0.1154
 1793POPC   D2A21774   7.551  30.490   6.505 -0.0295 -0.2283 -0.3728
 1793POPC   C3A21775   7.572  30.645   6.090 -0.1642  0.0213 -0.2847
 1793POPC   C4A21776   7.438  30.642   5.633  0.0290 -0.1830  0.0219
 1793POPC   C1B21777   7.988  31.056   6.840 -0.0800 -0.1387 -0.2085
 1793POPC   C2B21778   7.923  31.438   6.534 -0.0425  0.0461  0.0169
 1793POPC   C3B21779   7.731  31.441   6.140  0.0183  0.3129  0.1593
 1793POPC   C4B21780   7.539  31.439   5.693 -0.1710 -0.1787 -0.2039
 1794POPC   NC321781  12.148   5.695   7.717 -0.1137  0.1976  0.1741
 1794POPC   PO421782  12.292   5.791   8.081 -0.4352 -0.1045  0.1109
 1794POPC   GL121783  12.518   5.444   7.934  0.4513 -0.2088  0.0886
 1794POPC   GL221784  12.332   5.233   7.819  0.0379 -0.1149  0.1980
 1794POPC   C1A21785  12.737   5.072   8.148  0.0393  0.0265  0.4133
 1794POPC   D2A21786  13.109   4.909   7.940 -0.1343  0.4538  0.0876
 1794POPC   C3A21787  13.408   5.111   7.641  0.2425 -0.2978 -0.0042
 1794POPC   C4A21788  13.677   5.257   7.319  0.3214 -0.1745  0.2451
 1794POPC   C1B21789  12.179   5.275   7.368 -0.0942  0.1327  0.1427
 1794POPC   C2B21790  12.405   5.363   6.969 -0.1394  0.2292  0.0590
 1794POPC   C3B21791  12.812   5.255   6.810 -0.0713 -0.1305  0.3498
 1794POPC   C4B21792  13.095   5.057   6.570 -0.1027 -0.0386 -0.0472
 1795POPC   NC321793   8.032  17.930   8.255  0.0999 -0.1453  0.0845
 1795POPC   PO421794   7.702  18.029   8.095 -0.1749  0.0031  0.0040
 1795POPC   GL121795   7.928  18.184   7.834  0.0010  0.1226  0.0186
 1795POPC   GL221796   7.767  18.400   7.698  0.2051  0.0670  0.0901
 1795POPC   C1A21797   8.094  18.128   7.420  0.1505 -0.0959  0.1989
 1795POPC   D2A21798   8.155  18.137   6.904  0.0242 -0.3940 -0.0594
 1795POPC   C3A21799   8.289  18.393   6.536 -0.1152 -0.1299 -0.2104
 1795POPC   C4A21800   8.494  18.386   6.146 -0.1085  0.3565 -0.1102
 1795POPC   C1B21801   7.633  18.229   7.271  0.0878 -0.0339 -0.1162
 1795POPC   C2B21802   7.486  18.368   6.813  0.1605 -0.1184 -0.0591
 1795POPC   C3B21803   7.758  18.568   6.491  0.0404  0.0959  0.2691
 1795POPC   C4B21804   7.756  18.981   6.336  0.3097 -0.1140 -0.1160
 1796POPC   NC321805  14.695   1.104   7.459  0.0883 -0.1560 -0.0913
 1796POPC   PO421806  14.998   0.980   7.659  0.1605  0.0462  0.1970
 1796POPC   GL121807  15.287   1.029   7.300  0.1879  0.0308 -0.1179
 1796POPC   GL221808  15.572   0.976   7.242  0.5288  0.1427 -0.0809
 1796POPC   C1A21809  15.330   1.064   6.843 -0.0788 -0.1031  0.0992
 1796POPC   D2A21810  15.074   0.862   6.570  0.2724 -0.1535 -0.0418
 1796POPC   C3A21811  15.118   0.863   6.109 -0.0823 -0.0908  0.1573
 1796POPC   C4A21812  15.160   0.811   5.658  0.0332  0.0619 -0.3249
 1796POPC   C1B21813  15.812   1.294   6.961  0.0827  0.0946  0.1357
 1796POPC   C2B21814  15.869   1.556   6.570 -0.0325 -0.3654  0.3169
 1796POPC   C3B21815  15.788   1.567   6.074  0.0462 -0.2080 -0.3208
 1796POPC   C4B21816  15.797   1.898   5.740 -0.2105 -0.2722  0.2227
 1797POPC   NC321817   8.844  19.897   7.838 -0.2294  0.0422  0.0322
 1797POPC   PO421818   8.702  20.288   7.869 -0.1088  0.3790  0.0924
 1797POPC   GL121819   8.616  20.100   7.453  0.2167  0.0488  0.5196
 1797POPC   GL221820   8.444  19.849   7.564  0.1686  0.0880 -0.2201
 1797POPC   C1A21821   8.924  20.073   7.072  0.0922  0.0685  0.1421
 1797POPC   D2A21822   9.108  19.778   6.764  0.4882 -0.0001  0.1089
 1797POPC   C3A21823   9.570  19.808   6.761  0.0657  0.0180  0.1835
 1797POPC   C4A21824   9.910  20.107   6.920  0.0142 -0.3038 -0.0072
 1797POPC   C1B21825   8.400  19.737   7.123  0.0564  0.1058  0.1397
 1797POPC   C2B21826   8.666  19.571   6.736  0.0595  0.0452  0.0271
 1797POPC   C3B21827   9.003  19.292   6.553 -0.0360 -0.2387  0.2932
 1797POPC   C4B21828   9.184  19.044   6.168  0.0006  0.2996 -0.1796
 1798POPC   NC321829  11.478  30.051   7.571  0.1928  0.0044 -0.0958
 1798POPC   PO421830  11.713  29.753   7.668  0.1233  0.0948  0.1475
 1798POPC   GL121831  11.664  29.604   7.270  0.0650  0.1201 -0.0748
 1798POPC   GL221832  11.498  29.809   7.117 -0.1717 -0.2466 -0.0118
 1798POPC   C1A21833  12.029  29.708   6.984 -0.1019 -0.4117 -0.1152
 1798POPC   D2A21834  12.078  29.862   6.557  0.2453  0.3683 -0.0411
 1798POPC   C3A21835  11.925  30.282   6.423  0.1705 -0.0496 -0.0209
 1798POPC   C4A21836  11.982  30.633   6.171 -0.3006 -0.2661  0.2148
 1798POPC   C1B21837  11.490  29.794   6.720 -0.0221  0.3975  0.2965
 1798POPC   C2B21838  11.464  30.001   6.283 -0.1068  0.0623 -0.0138
 1798POPC   C3B21839  11.591  30.375   6.048  0.1710 -0.2899  0.0959
 1798POPC   C4B21840  11.489  30.776   5.887  0.1243  0.2196 -0.0543
 1799POPC   NC321841  14.760  12.656   8.179 -0.0815 -0.1037 -0.3154
 1799POPC   PO421842  14.883  12.900   7.862  0.0930 -0.0141 -0.2340
 1799POPC   GL121843  14.709  12.894   7.507 -0.3127  0.0504  0.1206
 1799POPC   GL221844  14.562  13.034   7.292  0.0452  0.0206  0.1260
 1799POPC   C1A21845  14.808  12.620   7.176  0.1796  0.2085 -0.1614
 1799POPC   D2A21846  14.859  12.155   7.062 -0.2001 -0.0259  0.0808
 1799POPC   C3A21847  14.796  12.164   6.555  0.1203 -0.1039  0.0295
 1799POPC   C4A21848  15.072  11.980   6.185  0.0851 -0.1651 -0.1157
 1799POPC   C1B21849  14.354  13.263   6.915  0.2894 -0.1980  0.0212
 1799POPC   C2B21850  14.484  13.463   6.516  0.4478 -0.2293  0.0571
 1799POPC   C3B21851  14.626  13.733   6.139  0.1517  0.1275  0.1359
 1799POPC   C4B21852  14.765  14.097   5.849  0.3317  0.0768  0.0399
 1800POPC   NC321853  10.286  27.440   8.128 -0.0423  0.1526  0.1229
 1800POPC   PO421854  10.660  27.317   8.216  0.1131 -0.0067 -0.0625
 1800POPC   GL121855  10.711  27.527   7.720 -0.0511  0.4649  0.1875
 1800POPC   GL221856  10.779  27.385   7.530  0.1525  0.2599  0.1451
 1800POPC   C1A21857  10.748  27.835   7.351  0.0207  0.0075  0.2996
 1800POPC   D2A21858  10.581  27.966   6.941 -0.1593 -0.0096  0.1073
 1800POPC   C3A21859  10.806  28.248   6.657  0.0777  0.0931  0.0836
 1800POPC   C4A21860  10.833  28.449   6.214  0.0409  0.0847  0.1718
 1800POPC   C1B21861  10.621  27.456   7.094  0.3304 -0.1022  0.1541
 1800POPC   C2B21862  10.347  27.242   6.748  0.1645  0.0013 -0.0566
 1800POPC   C3B21863  10.051  26.989   6.497 -0.2903 -0.2243  0.0281
 1800POPC   C4B21864   9.626  26.979   6.300  0.0455  0.0532 -0.1556
 1801POPC   NC321865   6.618   6.090   7.723  0.0553  0.0708 -0.0246
 1801POPC   PO421866   6.849   6.425   7.597 -0.3460  0.2684 -0.2307
 1801POPC   GL121867   6.580   6.220   7.233 -0.0186  0.3925  0.0256
 1801POPC   GL221868   6.577   6.076   6.912  0.3438 -0.1020  0.0227
 1801POPC   C1A21869   6.461   6.568   6.975  0.0964 -0.0395  0.1544
 1801POPC   D2A21870   6.293   6.723   6.557  0.0442 -0.1050 -0.0360
 1801POPC   C3A21871   6.525   7.093   6.334  0.0895 -0.1177  0.0639
 1801POPC   C4A21872   6.370   7.374   6.027 -0.1679  0.0285  0.0454
 1801POPC   C1B21873   6.504   6.250   6.513  0.0346 -0.3355 -0.0042
 1801POPC   C2B21874   6.512   6.577   6.150  0.1075  0.0753 -0.0175
 1801POPC   C3B21875   6.753   6.919   5.920  0.1849 -0.1519 -0.0672
 1801POPC   C4B21876   7.130   6.888   5.685 -0.1015 -0.3320 -0.1234
 1802POPC   NC321877   3.887  11.859   7.804 -0.0920  0.1989  0.0968
 1802POPC   PO421878   3.576  11.642   7.957 -0.1828 -0.0820  0.2403
 1802POPC   GL121879   3.470  11.894   7.612  0.4149  0.2167 -0.0757
 1802POPC   GL221880   3.554  11.629   7.421 -0.3277 -0.1674  0.3338
 1802POPC   C1A21881   3.583  12.143   7.346  0.2360 -0.1126  0.0608
 1802POPC   D2A21882   3.872  12.325   7.072 -0.1446 -0.1995  0.2044
 1802POPC   C3A21883   4.076  12.554   6.764  0.3088  0.0694 -0.0400
 1802POPC   C4A21884   4.521  12.653   6.606  0.0640  0.0927 -0.0631
 1802POPC   C1B21885   3.446  11.453   6.990  0.1845  0.0229 -0.0388
 1802POPC   C2B21886   3.496  11.316   6.567  0.1410 -0.2173 -0.0126
 1802POPC   C3B21887   3.444  11.146   6.083 -0.3595  0.0779  0.1936
 1802POPC   C4B21888   3.490  11.211   5.636  0.1914 -0.0386  0.0253
 1803POPC   NC321889   6.831   9.538   7.715 -0.4601  0.0558  0.1616
 1803POPC   PO421890   6.694   9.131   7.660 -0.0082 -0.2103 -0.1536
 1803POPC   GL121891   6.769   9.173   7.327  0.2105  0.2151 -0.2417
 1803POPC   GL221892   6.873   9.410   7.182 -0.0735  0.1497  0.0776
 1803POPC   C1A21893   6.834   9.043   6.906 -0.2536 -0.2803 -0.3208
 1803POPC   D2A21894   6.909   8.738   6.618 -0.2221  0.1436 -0.1777
 1803POPC   C3A21895   6.816   8.673   6.142  0.0113 -0.0601  0.0688
 1803POPC   C4A21896   6.673   8.366   5.902 -0.3380 -0.2023 -0.0888
 1803POPC   C1B21897   7.000   9.464   6.676  0.1865  0.0010  0.0286
 1803POPC   C2B21898   7.160   9.594   6.308  0.0656 -0.1614  0.2456
 1803POPC   C3B21899   6.887   9.634   5.918  0.0630 -0.0997  0.0247
 1803POPC   C4B21900   6.780  10.040   5.751  0.2934 -0.3419 -0.2146
 1804POPC   NC321901   0.728   6.133   7.877 -0.0982  0.0831 -0.2398
 1804POPC   PO421902   0.964   6.032   7.625  0.0288  0.0098  0.1073
 1804POPC   GL121903   0.817   6.049   7.207  0.1696 -0.0320  0.0070
 1804POPC   GL221904   0.869   6.242   6.966 -0.1376  0.1117  0.1221
 1804POPC   C1A21905   0.390   6.148   7.008  0.1154 -0.0794 -0.2019
 1804POPC   D2A21906   0.002   6.294   6.894 -0.0855 -0.0908 -0.2763
 1804POPC   C3A21907  -0.025   6.430   6.432  0.3508 -0.0532 -0.2813
 1804POPC   C4A21908  -0.282   6.687   6.144  0.0208  0.1996  0.1063
 1804POPC   C1B21909   0.748   6.297   6.534 -0.0483 -0.2601 -0.0130
 1804POPC   C2B21910   0.600   6.414   6.195  0.2762 -0.1164  0.2280
 1804POPC   C3B21911   0.308   6.453   5.822 -0.4492  0.1972 -0.0063
 1804POPC   C4B21912   0.020   6.597   5.511 -0.0573  0.0043 -0.0833
 1805POPC   NC321913  13.607  17.783   7.611 -0.1698  0.0672  0.1642
 1805POPC   PO421914  13.698  17.699   7.216  0.0613  0.0311 -0.3738
 1805POPC   GL121915  13.387  17.647   7.155 -0.3917  0.4063 -0.0878
 1805POPC   GL221916  13.363  17.327   7.052 -0.0175 -0.0469  0.3284
 1805POPC   C1A21917  13.195  17.625   6.702 -0.2323 -0.1354  0.0705
 1805POPC   D2A21918  13.138  17.660   6.223  0.1808 -0.0513  0.1601
 1805POPC   C3A21919  12.856  17.846   5.853  0.1751 -0.1314  0.1248
 1805POPC   C4A21920  12.782  17.921   5.388 -0.0464  0.0350 -0.0934
 1805POPC   C1B21921  13.691  17.135   6.742  0.3476 -0.0792 -0.0271
 1805POPC   C2B21922  13.941  16.823   6.503 -0.1035  0.1046 -0.0713
 1805POPC   C3B21923  14.088  16.448   6.318  0.0456 -0.1877  0.0974
 1805POPC   C4B21924  14.128  16.037   6.149 -0.0850 -0.1220  0.0296
 1806POPC   NC321925   2.721  15.341   7.571  0.0305 -0.0121 -0.1508
 1806POPC   PO421926   2.440  15.110   7.386  0.1885  0.0140 -0.1257
 1806POPC   GL121927   2.595  15.305   7.058 -0.0071  0.1721 -0.2359
 1806POPC   GL221928   2.762  15.503   7.101 -0.3414 -0.0917 -0.2317
 1806POPC   C1A21929   2.381  15.532   6.693  0.1560  0.0006 -0.1573
 1806POPC   D2A21930   2.070  15.821   6.577  0.1516 -0.1076 -0.2185
 1806POPC   C3A21931   2.119  15.784   6.138 -0.2734 -0.1461 -0.0334
 1806POPC   C4A21932   1.917  15.683   5.757  0.1778  0.2759  0.0428
 1806POPC   C1B21933   2.929  15.450   6.721 -0.0464  0.1310 -0.2335
 1806POPC   C2B21934   2.920  15.098   6.422 -0.3181  0.0525  0.0575
 1806POPC   C3B21935   3.202  14.742   6.339 -0.0507 -0.1902 -0.0114
 1806POPC   C4B21936   3.467  14.381   6.275  0.1751  0.0440  0.0359
 1807POPC   NC321937  12.829  19.617   7.880 -0.2329 -0.1366 -0.0977
 1807POPC   PO421938  13.077  19.780   7.620  0.3993 -0.1899  0.1389
 1807POPC   GL121939  13.151  19.985   7.261  0.0353 -0.2334 -0.0266
 1807POPC   GL221940  12.908  19.770   7.107 -0.1446  0.3473  0.0585
 1807POPC   C1A21941  13.354  19.795   6.873  0.0996  0.2264 -0.1071
 1807POPC   D2A21942  13.796  19.894   6.744  0.4115  0.0523  0.3495
 1807POPC   C3A21943  14.037  20.082   6.411  0.0219  0.1080 -0.2583
 1807POPC   C4A21944  14.085  20.144   5.932  0.2282  0.0292 -0.0704
 1807POPC   C1B21945  12.863  19.706   6.638 -0.0064  0.0046  0.3191
 1807POPC   C2B21946  12.845  19.911   6.249  0.0620 -0.0969 -0.0239
 1807POPC   C3B21947  12.770  19.739   5.781  0.1200  0.1435 -0.1019
 1807POPC   C4B21948  12.714  19.638   5.323 -0.0761  0.2043 -0.0259
 1808POPC   NC321949  10.629  20.025   7.789  0.0640 -0.0104 -0.0161
 1808POPC   PO421950  10.506  19.764   7.522 -0.1383 -0.0310  0.0033
 1808POPC   GL121951  10.638  19.782   7.156  0.0171  0.3189 -0.2254
 1808POPC   GL221952  10.690  19.510   7.072 -0.0610 -0.3431 -0.0491
 1808POPC   C1A21953  10.603  19.819   6.688 -0.0627  0.2311  0.2097
 1808POPC   D2A21954  10.796  19.585   6.386  0.1439  0.1170  0.2253
 1808POPC   C3A21955  10.633  19.460   5.990  0.0978  0.2179 -0.2743
 1808POPC   C4A21956  10.125  19.291   5.938  0.3123 -0.0241 -0.0691
 1808POPC   C1B21957  10.470  19.334   6.728 -0.1273 -0.2202 -0.2972
 1808POPC   C2B21958  10.178  19.311   6.389 -0.1081  0.1883  0.3782
 1808POPC   C3B21959   9.913  18.930   6.267 -0.1022 -0.4995  0.1117
 1808POPC   C4B21960   9.587  18.807   5.993 -0.0567 -0.1568  0.1633
 1809POPC   NC321961  11.644  10.875   7.853 -0.2902  0.2354 -0.3090
 1809POPC   PO421962  11.606  10.547   7.637 -0.0964 -0.1620 -0.1551
 1809POPC   GL121963  11.635  10.704   7.262 -0.0678 -0.0146 -0.4386
 1809POPC   GL221964  11.871  10.906   7.322  0.0582 -0.0147  0.0551
 1809POPC   C1A21965  11.535  10.757   6.826  0.0349 -0.1069  0.3118
 1809POPC   D2A21966  11.677  10.786   6.370  0.0796 -0.1610  0.3244
 1809POPC   C3A21967  12.141  10.746   6.432 -0.1721 -0.0201 -0.2337
 1809POPC   C4A21968  12.417  10.744   6.117  0.2957  0.2395 -0.0806
 1809POPC   C1B21969  11.968  10.959   6.865  0.0947 -0.0219 -0.1353
 1809POPC   C2B21970  11.836  11.259   6.536  0.1297  0.1557  0.0309
 1809POPC   C3B21971  11.836  11.324   6.054 -0.0686 -0.2595  0.0631
 1809POPC   C4B21972  12.220  11.447   5.808 -0.3243  0.3309 -0.0242
 1810POPC   NC321973  14.345  29.069   7.560  0.1433  0.0242 -0.0017
 1810POPC   PO421974  14.635  28.846   7.384  0.4644  0.1340  0.0728
 1810POPC   GL121975  14.612  28.958   6.999  0.2890 -0.1636  0.0857
 1810POPC   GL221976  14.422  29.169   7.049  0.1735 -0.0204  0.0470
 1810POPC   C1A21977  14.673  29.005   6.550 -0.2750  0.1832 -0.0739
 1810POPC   D2A21978  14.905  28.851   6.146 -0.0285  0.2816  0.0133
 1810POPC   C3A21979  14.810  28.996   5.729  0.0734  0.4037  0.0304
 1810POPC   C4A21980  14.908  29.008   5.258 -0.2003  0.4659 -0.2141
 1810POPC   C1B21981  14.339  29.350   6.638  0.0092  0.0943 -0.3242
 1810POPC   C2B21982  14.528  29.403   6.183 -0.0892  0.2630  0.0833
 1810POPC   C3B21983  14.644  29.432   5.666 -0.0909  0.2011 -0.0845
 1810POPC   C4B21984  14.890  29.620   5.320 -0.1064  0.2780  0.2205
 1811POPC   NC321985  15.027  15.346   8.205  0.2442  0.0366  0.0492
 1811POPC   PO421986  15.135  15.084   7.965 -0.0398 -0.1381  0.1110
 1811POPC   GL121987  15.128  15.274   7.527  0.2602 -0.0019 -0.3716
 1811POPC   GL221988  15.373  15.424   7.683  0.1182  0.0213 -0.2897
 1811POPC   C1A21989  15.500  15.239   7.227 -0.0182  0.0298  0.0178
 1811POPC   D2A21990  15.936  15.231   7.011 -0.0713 -0.2704  0.1267
 1811POPC   C3A21991  16.130  15.566   6.785 -0.1025 -0.2836  0.0877
 1811POPC   C4A21992  16.056  16.055   6.567 -0.2155  0.0264  0.1581
 1811POPC   C1B21993  15.173  15.610   7.290 -0.3427  0.1019  0.0003
 1811POPC   C2B21994  15.227  15.993   6.994  0.0884 -0.1593  0.0297
 1811POPC   C3B21995  15.322  15.986   6.542 -0.2418 -0.0601 -0.0472
 1811POPC   C4B21996  15.464  16.020   6.072 -0.0782  0.1993 -0.4302
 1812POPC   NC321997   2.143  27.789   7.947 -0.1741 -0.0757  0.0955
 1812POPC   PO421998   1.918  27.598   7.686  0.1428  0.0450 -0.1720
 1812POPC   GL121999   2.153  27.543   7.367 -0.3823  0.0438  0.0174
 1812POPC   GL222000   2.369  27.713   7.447  0.0964  0.0482  0.0289
 1812POPC   C1A22001   2.016  27.551   6.933 -0.3654 -0.1593  0.0872
 1812POPC   D2A22002   2.173  27.821   6.600 -0.1465  0.0564 -0.0090
 1812POPC   C3A22003   2.298  27.767   6.125 -0.1593 -0.0886 -0.0753
 1812POPC   C4A22004   2.475  27.622   5.762 -0.2491 -0.1029 -0.2118
 1812POPC   C1B22005   2.248  28.003   7.102  0.1714 -0.1360  0.2825
 1812POPC   C2B22006   2.203  28.344   6.764 -0.1324 -0.0092 -0.0909
 1812POPC   C3B22007   2.381  28.450   6.362 -0.0309 -0.1495 -0.0255
 1812POPC   C4B22008   2.635  28.668   6.065  0.3975  0.4298  0.3082
 1813POPC   NC322009   3.319   9.363   7.842  0.3231  0.3042 -0.0604
 1813POPC   PO422010   3.599   9.570   7.931  0.0057 -0.2988 -0.0965
 1813POPC   GL122011   3.654   9.535   7.530  0.4644  0.2716 -0.0560
 1813POPC   GL222012   3.541   9.788   7.483 -0.0344 -0.2569 -0.0781
 1813POPC   C1A22013   3.367   9.293   7.200  0.0466  0.0881 -0.0067
 1813POPC   D2A22014   3.120   9.095   6.873 -0.0131 -0.1705  0.0228
 1813POPC   C3A22015   3.036   8.637   6.905  0.5142  0.2161  0.0326
 1813POPC   C4A22016   2.879   8.381   7.322  0.0727  0.0407  0.1639
 1813POPC   C1B22017   3.428   9.804   7.013  0.3087  0.1247 -0.2126
 1813POPC   C2B22018   3.208   9.884   6.606  0.2222  0.1609  0.0821
 1813POPC   C3B22019   3.055  10.028   6.188  0.1262 -0.1193  0.1709
 1813POPC   C4B22020   2.933   9.915   5.750  0.0718  0.0032 -0.1056
 1814POPC   NC322021   4.654  19.214   7.419  0.0025  0.0922  0.0850
 1814POPC   PO422022   4.852  19.240   7.792 -0.0284  0.0457  0.2077
 1814POPC   GL122023   5.080  19.384   7.585  0.1282  0.3226 -0.2871
 1814POPC   GL222024   5.304  19.203   7.569  0.0691  0.2916  0.0285
 1814POPC   C1A22025   5.420  19.690   7.679 -0.0602 -0.0247  0.2296
 1814POPC   D2A22026   5.433  19.931   8.108 -0.1132 -0.0498  0.0961
 1814POPC   C3A22027   5.343  20.323   7.821 -0.0903 -0.0502  0.1608
 1814POPC   C4A22028   5.088  20.704   7.918  0.0016 -0.0930  0.2922
 1814POPC   C1B22029   5.463  19.558   7.199  0.1229 -0.0477 -0.1769
 1814POPC   C2B22030   5.302  19.754   6.819  0.1415  0.0199 -0.1692
 1814POPC   C3B22031   5.456  19.833   6.399  0.5024 -0.0113 -0.1707
 1814POPC   C4B22032   5.510  19.941   5.977 -0.1261  0.0134  0.1946
 1815POPC   NC322033   1.412   8.617   7.971 -0.0892  0.0989 -0.0153
 1815POPC   PO422034   1.722   8.525   7.759  0.0236  0.0650  0.1226
 1815POPC   GL122035   1.702   8.650   7.403  0.0008  0.2934  0.2219
 1815POPC   GL222036   1.911   8.417   7.308  0.0568 -0.1740  0.2822
 1815POPC   C1A22037   1.658   8.640   6.939  0.0943 -0.0318 -0.3728
 1815POPC   D2A22038   1.778   8.361   6.593 -0.0250 -0.3243 -0.1023
 1815POPC   C3A22039   1.638   8.484   6.147  0.2187  0.0052 -0.2514
 1815POPC   C4A22040   1.611   8.525   5.697 -0.1769 -0.2354 -0.1957
 1815POPC   C1B22041   2.199   8.515   6.985 -0.1296 -0.0376 -0.1737
 1815POPC   C2B22042   2.551   8.374   6.710 -0.1147 -0.6334 -0.0877
 1815POPC   C3B22043   2.921   8.551   6.417 -0.4075 -0.1009  0.1408
 1815POPC   C4B22044   3.033   9.011   6.440  0.1701  0.1438  0.0138
 1816POPC   NC322045   0.569   6.706   7.332 -0.0056  0.0471 -0.3013
 1816POPC   PO422046   0.901   6.462   7.458  0.0051  0.1009 -0.0902
 1816POPC   GL122047   1.049   6.779   7.263  0.2186  0.0318 -0.2660
 1816POPC   GL222048   1.173   6.649   7.084  0.1541  0.3236  0.1284
 1816POPC   C1A22049   0.898   6.883   6.790  0.2948  0.2027  0.2871
 1816POPC   D2A22050   0.834   6.752   6.393 -0.1897  0.0828 -0.0776
 1816POPC   C3A22051   0.982   6.858   5.974 -0.0552 -0.0678 -0.0919
 1816POPC   C4A22052   1.168   6.830   5.556 -0.0617  0.1241  0.3202
 1816POPC   C1B22053   1.232   6.350   6.699 -0.1025 -0.0328  0.2193
 1816POPC   C2B22054   1.129   6.353   6.256 -0.1593 -0.0679 -0.0968
 1816POPC   C3B22055   0.895   6.389   5.825 -0.2717 -0.0338  0.1271
 1816POPC   C4B22056   0.965   6.290   5.366 -0.1351  0.1959  0.2445
 1817POPC   NC322057   1.477   4.884   7.995 -0.0086 -0.1084  0.1317
 1817POPC   PO422058   1.382   5.136   7.707  0.3500  0.2183 -0.0424
 1817POPC   GL122059   1.554   5.117   7.382  0.0004  0.2460 -0.2910
 1817POPC   GL222060   1.360   5.231   7.198  0.0684  0.0698 -0.0007
 1817POPC   C1A22061   1.569   4.829   7.068  0.3070 -0.0676 -0.2364
 1817POPC   D2A22062   1.536   4.846   6.594  0.0040  0.0547 -0.0901
 1817POPC   C3A22063   1.775   5.004   6.262 -0.4223  0.0466  0.0169
 1817POPC   C4A22064   1.731   5.198   5.826  0.0450 -0.0811 -0.2885
 1817POPC   C1B22065   1.121   4.969   6.957  0.0261  0.2687  0.2349
 1817POPC   C2B22066   1.071   4.813   6.500  0.1837 -0.4243 -0.0933
 1817POPC   C3B22067   1.304   4.607   6.151 -0.2462 -0.1398  0.3419
 1817POPC   C4B22068   1.668   4.704   5.912 -0.2933 -0.1931 -0.1315
 1818POPC   NC322069   7.191  18.106   7.944  0.0447 -0.0002 -0.1676
 1818POPC   PO422070   6.812  18.176   7.814  0.0353 -0.0656 -0.3302
 1818POPC   GL122071   6.732  18.488   7.461  0.0449 -0.1519  0.0959
 1818POPC   GL222072   6.932  18.658   7.584 -0.1623 -0.2042  0.1602
 1818POPC   C1A22073   6.501  18.353   7.045  0.0016 -0.0213 -0.0925
 1818POPC   D2A22074   6.358  18.000   6.787  0.1780  0.3408  0.4567
 1818POPC   C3A22075   6.741  17.792   6.600 -0.0193  0.2959 -0.1040
 1818POPC   C4A22076   6.846  17.434   6.246 -0.1211 -0.1138 -0.2168
 1818POPC   C1B22077   6.944  18.859   7.197  0.1440 -0.2800 -0.0504
 1818POPC   C2B22078   7.030  18.803   6.760 -0.2766 -0.1200 -0.2656
 1818POPC   C3B22079   7.252  18.586   6.378  0.2674  0.1071  0.1475
 1818POPC   C4B22080   7.407  18.206   6.170  0.0619 -0.2114 -0.3135
 1819POPC   NC322081  13.029   0.517   8.339  0.1651  0.0648  0.1452
 1819POPC   PO422082  13.360   0.427   8.071 -0.1371 -0.3609  0.0145
 1819POPC   GL122083  13.423   0.623   7.753  0.1779 -0.0072 -0.0587
 1819POPC   GL222084  13.133   0.637   7.670 -0.1858  0.0331 -0.0018
 1819POPC   C1A22085  13.575   0.827   7.381  0.3618 -0.0072  0.0106
 1819POPC   D2A22086  13.308   1.128   7.082 -0.2191  0.2582  0.1776
 1819POPC   C3A22087  13.359   1.203   6.592  0.1397 -0.1698 -0.0974
 1819POPC   C4A22088  13.565   1.303   6.160  0.2028 -0.0002 -0.3904
 1819POPC   C1B22089  13.115   0.733   7.183 -0.1150 -0.0549  0.0395
 1819POPC   C2B22090  13.301   0.753   6.769 -0.2098  0.0011  0.0855
 1819POPC   C3B22091  13.332   0.791   6.308 -0.0533  0.1261 -0.0293
 1819POPC   C4B22092  13.302   0.696   5.850 -0.1210  0.1194 -0.2367
 1820POPC   NC322093   7.421  29.908   8.006 -0.1495  0.2258  0.0199
 1820POPC   PO422094   7.642  30.180   7.777 -0.1090  0.1799  0.2070
 1820POPC   GL122095   7.799  30.245   7.417 -0.0889  0.4052  0.1707
 1820POPC   GL222096   7.707  30.479   7.377  0.0002 -0.1895 -0.1138
 1820POPC   C1A22097   7.949  30.050   7.048 -0.3093 -0.1028 -0.0419
 1820POPC   D2A22098   7.792  30.058   6.617 -0.2530  0.0492 -0.0301
 1820POPC   C3A22099   7.982  29.898   6.262 -0.2789  0.3146  0.0480
 1820POPC   C4A22100   8.305  29.727   6.049  0.3436  0.0171  0.0514
 1820POPC   C1B22101   8.060  30.615   7.100 -0.0311 -0.1106 -0.0432
 1820POPC   C2B22102   7.998  30.483   6.680  0.0362 -0.2379  0.2411
 1820POPC   C3B22103   8.061  30.374   6.223  0.0302 -0.1134  0.2384
 1820POPC   C4B22104   8.345  30.257   5.833 -0.1096  0.0230  0.2361
 1821POPC   NC322105  15.296   1.397   7.796  0.0767 -0.1464  0.0262
 1821POPC   PO422106  15.656   1.388   7.621 -0.1870 -0.2448 -0.0667
 1821POPC   GL122107  15.558   1.520   7.293 -0.2064  0.6479 -0.0373
 1821POPC   GL222108  15.655   1.801   7.275  0.0430 -0.1865  0.1119
 1821POPC   C1A22109  15.393   1.560   6.908  0.0267  0.0811  0.3429
 1821POPC   D2A22110  15.141   1.835   6.592 -0.0282 -0.0178  0.0115
 1821POPC   C3A22111  15.332   2.049   6.248  0.0034  0.1905 -0.1112
 1821POPC   C4A22112  15.351   2.197   5.809  0.0891  0.1748 -0.1168
 1821POPC   C1B22113  16.028   1.799   7.011  0.2841 -0.3742 -0.1802
 1821POPC   C2B22114  16.214   1.954   6.629  0.3191  0.0429 -0.3073
 1821POPC   C3B22115  16.129   2.300   6.407 -0.0493  0.0072 -0.2847
 1821POPC   C4B22116  15.892   2.446   6.060 -0.1855 -0.1162  0.2546
 1822POPC   NC322117  14.636   1.558   7.540 -0.3159 -0.0671  0.0245
 1822POPC   PO422118  14.959   1.752   7.715 -0.1035  0.1402 -0.0623
 1822POPC   GL122119  15.106   1.751   7.334 -0.0606 -0.2391  0.0888
 1822POPC   GL222120  15.075   1.441   7.265 -0.3370  0.1386 -0.1575
 1822POPC   C1A22121  14.825   1.943   7.034 -0.1732  0.0910  0.1518
 1822POPC   D2A22122  14.676   2.089   6.637  0.3502 -0.0152 -0.0759
 1822POPC   C3A22123  14.846   2.137   6.238 -0.0170  0.1734 -0.0664
 1822POPC   C4A22124  14.940   2.515   5.993 -0.0873  0.0432  0.2027
 1822POPC   C1B22125  14.928   1.349   6.839 -0.0815  0.1747  0.1414
 1822POPC   C2B22126  15.095   1.371   6.412  0.0141 -0.0896 -0.2500
 1822POPC   C3B22127  15.067   1.402   5.950  0.1059  0.2041 -0.0713
 1822POPC   C4B22128  15.018   1.249   5.510 -0.0224  0.0374  0.0180
 1823POPC   NC322129   8.055  23.393   8.095 -0.0609 -0.0174  0.0656
 1823POPC   PO422130   8.408  23.368   8.116 -0.1987  0.0627 -0.0285
 1823POPC   GL122131   8.659  23.262   7.856  0.1399 -0.0086  0.0917
 1823POPC   GL222132   8.926  23.333   7.791 -0.1870 -0.1017 -0.5703
 1823POPC   C1A22133   8.588  23.059   7.372 -0.3425  0.0312 -0.1852
 1823POPC   D2A22134   8.451  22.870   6.979 -0.1741 -0.2007  0.2191
 1823POPC   C3A22135   8.511  22.911   6.526 -0.3456  0.1719  0.2092
 1823POPC   C4A22136   8.721  22.766   6.188  0.0144  0.1753  0.2667
 1823POPC   C1B22137   8.760  23.516   7.429  0.0948 -0.2097 -0.1603
 1823POPC   C2B22138   8.441  23.418   7.080 -0.1098  0.1001 -0.1797
 1823POPC   C3B22139   8.435  23.423   6.635  0.0953 -0.0800  0.0645
 1823POPC   C4B22140   8.305  23.300   6.203 -0.0829 -0.0018  0.1269
 1824POPC   NC322141  14.883  22.734   8.021 -0.0458  0.3660 -0.0577
 1824POPC   PO422142  15.219  22.658   7.820  0.0026 -0.3481 -0.0435
 1824POPC   GL122143  15.085  22.595   7.483 -0.2996 -0.0884  0.1366
 1824POPC   GL222144  14.883  22.776   7.511  0.0301  0.2081  0.0235
 1824POPC   C1A22145  14.889  22.294   7.243 -0.1896 -0.1049  0.0088
 1824POPC   D2A22146  14.573  22.046   7.017  0.0448  0.3318 -0.5658
 1824POPC   C3A22147  14.631  21.942   6.593  0.5663 -0.5345  0.2916
 1824POPC   C4A22148  14.690  21.870   6.149  0.1845  0.1505  0.2278
 1824POPC   C1B22149  14.990  22.803   7.070 -0.2664  0.2016 -0.1886
 1824POPC   C2B22150  15.010  22.859   6.625 -0.1041  0.0407 -0.1871
 1824POPC   C3B22151  15.206  22.954   6.219  0.3405 -0.0606  0.4513
 1824POPC   C4B22152  15.341  22.910   5.805 -0.2068 -0.2573 -0.0618
 1825POPC   NC322153   5.249  16.615   7.343 -0.1338  0.3290 -0.1093
 1825POPC   PO422154   4.873  16.714   7.469 -0.1997  0.1308  0.1599
 1825POPC   GL122155   4.807  16.764   7.091  0.3239  0.0647 -0.1699
 1825POPC   GL222156   4.928  16.532   6.970  0.0255  0.0132 -0.0918
 1825POPC   C1A22157   4.714  16.940   6.655 -0.6069  0.1525  0.1135
 1825POPC   D2A22158   4.662  16.823   6.205 -0.0106  0.1822 -0.1086
 1825POPC   C3A22159   4.928  16.859   5.842 -0.0730  0.1139  0.2166
 1825POPC   C4A22160   4.902  16.983   5.391  0.1572 -0.0313  0.2895
 1825POPC   C1B22161   4.829  16.397   6.547  0.2853  0.3472 -0.1021
 1825POPC   C2B22162   4.949  16.398   6.079  0.0571 -0.2186  0.3857
 1825POPC   C3B22163   5.155  16.360   5.702 -0.1070 -0.1164  0.2587
 1825POPC   C4B22164   5.293  16.365   5.254 -0.1299  0.0670  0.0385
 1826POPC   NC322165   0.520   4.490   8.763 -0.2218  0.2633 -0.1522
 1826POPC   PO422166   0.535   4.578   8.430  0.0068 -0.0283  0.1357
 1826POPC   GL122167   0.153   4.504   8.115 -0.3985 -0.0190 -0.4321
 1826POPC   GL222168   0.085   4.807   8.075  0.2319  0.1155 -0.0576
 1826POPC   C1A22169  -0.115   4.396   7.753 -0.0536 -0.1518  0.2615
 1826POPC   D2A22170  -0.364   4.474   7.361 -0.2668 -0.2083 -0.5028
 1826POPC   C3A22171  -0.420   4.121   7.130 -0.1362 -0.1914 -0.0154
 1826POPC   C4A22172  -0.478   3.849   6.820 -0.0462  0.1154  0.0248
 1826POPC   C1B22173  -0.259   4.631   8.316  0.0335  0.1096 -0.0909
 1826POPC   C2B22174  -0.649   4.839   8.378  0.0463 -0.1358 -0.3435
 1826POPC   C3B22175  -0.873   4.992   8.773  0.0923  0.3065 -0.1024
 1826POPC   C4B22176  -1.319   5.071   8.840  0.0913 -0.0722  0.3799
 1827POPC   NC322177  13.041  24.829   7.864  0.2228  0.0158 -0.2205
 1827POPC   PO422178  13.098  24.559   7.616  0.3472  0.1205  0.0256
 1827POPC   GL122179  13.065  24.620   7.236 -0.0313 -0.0986 -0.5668
 1827POPC   GL222180  13.132  24.409   7.098  0.2015 -0.1022  0.0048
 1827POPC   C1A22181  13.018  24.841   6.871 -0.2410 -0.0174  0.1371
 1827POPC   D2A22182  12.750  25.045   6.506 -0.1518 -0.0625  0.2734
 1827POPC   C3A22183  13.046  25.349   6.330 -0.0472  0.0722 -0.2113
 1827POPC   C4A22184  13.198  25.271   5.907  0.0225 -0.0540  0.1647
 1827POPC   C1B22185  13.111  24.275   6.678 -0.4779 -0.0682 -0.0390
 1827POPC   C2B22186  13.076  24.437   6.228  0.3541 -0.1172 -0.2871
 1827POPC   C3B22187  13.036  24.857   6.104  0.1396  0.0256  0.1998
 1827POPC   C4B22188  12.677  25.113   5.898 -0.0008 -0.1419  0.0865
 1828POPC   NC322189   3.906  29.437   7.845 -0.2138 -0.0738 -0.3078
 1828POPC   PO422190   4.227  29.323   8.032 -0.1295 -0.1223 -0.1351
 1828POPC   GL122191   4.275  29.198   7.678  0.0541  0.3346  0.1116
 1828POPC   GL222192   4.057  28.944   7.664 -0.2249 -0.0899  0.0772
 1828POPC   C1A22193   4.209  29.183   7.184 -0.0564 -0.0452 -0.3105
 1828POPC   D2A22194   4.228  29.142   6.709  0.3475 -0.0947  0.0405
 1828POPC   C3A22195   3.984  29.194   6.327 -0.0469  0.1451  0.1237
 1828POPC   C4A22196   3.888  28.828   6.097 -0.2669  0.1346 -0.1033
 1828POPC   C1B22197   4.175  28.642   7.358  0.0299  0.2688  0.2032
 1828POPC   C2B22198   4.158  28.616   6.901 -0.0080 -0.2267  0.1173
 1828POPC   C3B22199   4.187  28.576   6.479  0.1169 -0.0312 -0.3719
 1828POPC   C4B22200   4.144  28.416   6.106  0.0446 -0.1089 -0.2021
 1829POPC   NC322201   5.137  15.068   8.209  0.0592  0.1699 -0.0418
 1829POPC   PO422202   5.093  14.667   8.126 -0.2166  0.3136 -0.0769
 1829POPC   GL122203   5.259  14.452   7.799 -0.0279 -0.0781 -0.2611
 1829POPC   GL222204   5.465  14.649   7.721  0.0869 -0.0743 -0.0455
 1829POPC   C1A22205   4.994  14.280   7.464 -0.2805  0.3670  0.4254
 1829POPC   D2A22206   4.860  14.148   7.043  0.0695 -0.2388  0.3560
 1829POPC   C3A22207   4.990  14.122   6.561 -0.0874 -0.2779 -0.0963
 1829POPC   C4A22208   5.001  13.900   6.143 -0.2018  0.0034 -0.0853
 1829POPC   C1B22209   5.708  14.539   7.303  0.0477  0.1187 -0.1679
 1829POPC   C2B22210   5.683  14.693   6.846  0.3242 -0.1760 -0.1154
 1829POPC   C3B22211   5.482  14.700   6.431  0.0300 -0.1688 -0.4033
 1829POPC   C4B22212   5.344  15.015   6.081 -0.1493  0.0422 -0.1877
 1830POPC   NC322213   1.799  17.686   8.421 -0.3653  0.0570 -0.0943
 1830POPC   PO422214   1.976  18.050   8.526  0.2324  0.0610 -0.1017
 1830POPC   GL122215   1.960  18.044   8.164 -0.2386 -0.2645 -0.1057
 1830POPC   GL222216   2.125  17.847   8.003  0.2126  0.2230 -0.2367
 1830POPC   C1A22217   1.553  18.184   8.012 -0.1136 -0.0913 -0.2169
 1830POPC   D2A22218   1.211  18.384   8.184 -0.0596  0.0633  0.1062
 1830POPC   C3A22219   0.846  18.119   8.133  0.2363  0.3833 -0.0889
 1830POPC   C4A22220   0.544  17.799   8.302  0.2584 -0.1509 -0.2847
 1830POPC   C1B22221   1.721  17.833   7.726  0.0789  0.0693  0.1330
 1830POPC   C2B22222   1.523  18.053   7.377  0.1480  0.0060  0.1586
 1830POPC   C3B22223   1.210  18.144   7.025  0.2015  0.0448 -0.2840
 1830POPC   C4B22224   0.932  18.384   6.779  0.1131 -0.1453 -0.1197
 1831POPC   NC322225   2.550   7.169   7.667  0.1456  0.1092  0.0657
 1831POPC   PO422226   2.682   6.985   8.003 -0.0547 -0.0789  0.1260
 1831POPC   GL122227   3.056   7.141   7.961 -0.4307 -0.1038  0.0461
 1831POPC   GL222228   3.092   7.076   7.647  0.1828 -0.1298 -0.1160
 1831POPC   C1A22229   3.504   7.250   7.906  0.1008  0.3517  0.0409
 1831POPC   D2A22230   3.816   7.108   7.582  0.2219 -0.0807 -0.1181
 1831POPC   C3A22231   3.881   7.345   7.198  0.0690 -0.3841  0.3227
 1831POPC   C4A22232   3.733   7.587   6.777  0.1107  0.0041 -0.1016
 1831POPC   C1B22233   2.965   7.101   7.209 -0.3249 -0.3310 -0.1917
 1831POPC   C2B22234   2.731   7.280   6.817 -0.1627 -0.1257  0.2304
 1831POPC   C3B22235   2.638   7.553   6.438 -0.2635  0.0200 -0.0075
 1831POPC   C4B22236   2.388   7.706   6.088  0.0102  0.0510 -0.1182
 1832POPC   NC322237  11.064   2.794   7.858 -0.2099 -0.1709 -0.2084
 1832POPC   PO422238  10.931   2.425   7.950 -0.2096  0.1912  0.2806
 1832POPC   GL122239  10.954   2.395   7.532 -0.0028  0.1180  0.2454
 1832POPC   GL222240  11.234   2.398   7.405  0.1404 -0.0719 -0.1857
 1832POPC   C1A22241  10.795   2.147   7.167  0.1742  0.0168 -0.3688
 1832POPC   D2A22242  10.508   1.892   6.875  0.1793  0.0724  0.1508
 1832POPC   C3A22243  10.616   1.761   6.439 -0.0815 -0.1404  0.1394
 1832POPC   C4A22244  10.807   1.550   6.045 -0.0347 -0.1003 -0.3513
 1832POPC   C1B22245  11.245   2.334   6.928 -0.2311 -0.1511  0.2763
 1832POPC   C2B22246  11.413   1.973   6.633 -0.1569  0.2349 -0.1499
 1832POPC   C3B22247  11.648   1.769   6.295 -0.1174  0.0537  0.1263
 1832POPC   C4B22248  11.773   1.361   6.236 -0.0095 -0.2656 -0.0979
 1833POPC   NC322249  11.568   8.421   8.077 -0.0099 -0.1373 -0.1985
 1833POPC   PO422250  11.783   8.414   8.399 -0.1943 -0.0964 -0.3115
 1833POPC   GL122251  11.890   8.750   8.086 -0.3324  0.0183 -0.2794
 1833POPC   GL222252  12.012   8.572   7.878  0.3709 -0.0819  0.0517
 1833POPC   C1A22253  11.701   8.881   7.682 -0.1080  0.2796 -0.1295
 1833POPC   D2A22254  11.770   9.205   7.348 -0.3900  0.0697 -0.1929
 1833POPC   C3A22255  11.754   9.040   6.886  0.2253  0.0288 -0.1232
 1833POPC   C4A22256  11.573   8.834   6.503  0.0875 -0.0460 -0.1091
 1833POPC   C1B22257  12.138   8.746   7.433  0.4932 -0.2163  0.2133
 1833POPC   C2B22258  12.221   9.079   7.133  0.0022  0.0613  0.5150
 1833POPC   C3B22259  12.636   9.230   6.849 -0.2183  0.2447 -0.1070
 1833POPC   C4B22260  12.940   9.521   6.846  0.2912  0.0998  0.0756
 1834POPC   NC322261   6.384  22.555   7.107 -0.1220 -0.4408  0.2573
 1834POPC   PO422262   6.209  22.712   7.431 -0.1526  0.0302  0.1028
 1834POPC   GL122263   6.134  22.950   7.097 -0.2189 -0.2133  0.3686
 1834POPC   GL222264   5.888  22.770   7.018 -0.2136  0.1553  0.1717
 1834POPC   C1A22265   6.267  22.797   6.664 -0.0875  0.0644  0.3521
 1834POPC   D2A22266   6.590  22.472   6.552 -0.0561  0.0444  0.0072
 1834POPC   C3A22267   6.521  22.239   6.151  0.0268  0.1198 -0.0028
 1834POPC   C4A22268   6.403  22.423   5.777 -0.4396  0.2013 -0.0923
 1834POPC   C1B22269   5.684  22.775   6.646  0.2366 -0.0378 -0.0900
 1834POPC   C2B22270   5.545  22.610   6.167 -0.2015  0.3040  0.1627
 1834POPC   C3B22271   5.319  22.480   5.803  0.0749 -0.1030  0.1052
 1834POPC   C4B22272   4.955  22.287   5.614  0.1735 -0.1132 -0.0737
 1835POPC   NC322273  11.784  27.680   7.514  0.0289  0.3154  0.0238
 1835POPC   PO422274  11.934  27.390   7.798 -0.2721  0.1463 -0.1743
 1835POPC   GL122275  11.962  27.231   7.460  0.3005  0.1952 -0.3261
 1835POPC   GL222276  11.676  27.156   7.386  0.2639 -0.1642  0.0298
 1835POPC   C1A22277  12.257  27.308   7.097  0.2236  0.4595  0.2681
 1835POPC   D2A22278  12.621  27.413   6.893 -0.1355  0.0541  0.0373
 1835POPC   C3A22279  12.724  27.332   6.485 -0.0386  0.0038  0.1313
 1835POPC   C4A22280  12.485  27.347   6.109 -0.0523 -0.0886  0.3393
 1835POPC   C1B22281  11.697  27.345   6.965  0.2158  0.1492  0.2535
 1835POPC   C2B22282  11.699  27.593   6.556 -0.3720  0.3567 -0.2639
 1835POPC   C3B22283  11.452  27.643   6.149 -0.0734  0.2491  0.0314
 1835POPC   C4B22284  11.479  27.489   5.716 -0.0644 -0.2958 -0.0670
 1836POPC   NC322285  11.259  13.292   7.637  0.3529  0.0022  0.1096
 1836POPC   PO422286  10.908  13.355   7.811  0.1856  0.1346  0.0713
 1836POPC   GL122287  10.677  13.263   7.482 -0.0156 -0.0863  0.0285
 1836POPC   GL222288  10.894  13.370   7.304 -0.1705  0.1470  0.1989
 1836POPC   C1A22289  10.637  13.069   7.049  0.0107  0.0895  0.1466
 1836POPC   D2A22290  10.717  12.828   6.656 -0.0989 -0.1836 -0.1921
 1836POPC   C3A22291  10.847  13.066   6.272  0.2183  0.3705  0.1380
 1836POPC   C4A22292  10.748  13.116   5.821 -0.3647 -0.1124 -0.2589
 1836POPC   C1B22293  10.934  13.784   7.053 -0.1063 -0.2976 -0.0695
 1836POPC   C2B22294  10.958  13.912   6.574 -0.2168  0.1288 -0.0584
 1836POPC   C3B22295  11.039  13.953   6.128  0.0011  0.4091 -0.2132
 1836POPC   C4B22296  10.832  13.903   5.713 -0.2280  0.1846 -0.0169
 1837POPC   NC322297  14.805  20.225   7.627 -0.0620 -0.4141  0.0035
 1837POPC   PO422298  14.594  19.890   7.701 -0.1347  0.2904  0.1310
 1837POPC   GL122299  14.979  19.825   7.507  0.3269 -0.1082 -0.1181
 1837POPC   GL222300  14.835  19.680   7.276 -0.0140 -0.1182 -0.0753
 1837POPC   C1A22301  15.369  19.801   7.315 -0.2154 -0.0237  0.1959
 1837POPC   D2A22302  15.718  19.654   7.134  0.0491 -0.1413 -0.0033
 1837POPC   C3A22303  15.595  19.404   6.738 -0.0552  0.2266 -0.1615
 1837POPC   C4A22304  15.598  19.142   6.411  0.4228 -0.0378 -0.0221
 1837POPC   C1B22305  14.816  19.924   6.932  0.0082 -0.0648 -0.0977
 1837POPC   C2B22306  14.815  19.964   6.495  0.1547 -0.0077 -0.1308
 1837POPC   C3B22307  14.567  20.087   6.141 -0.1879 -0.0803 -0.2190
 1837POPC   C4B22308  14.493  19.959   5.692  0.0105  0.1219 -0.0309
 1838POPC   NC322309   0.045   7.370   8.431  0.1264  0.0471  0.1382
 1838POPC   PO422310  -0.245   7.522   8.173  0.0342 -0.3513  0.0749
 1838POPC   GL122311  -0.322   7.459   7.792  0.2103  0.0796 -0.2852
 1838POPC   GL222312  -0.627   7.435   7.844  0.1765 -0.3677  0.1608
 1838POPC   C1A22313  -0.232   7.280   7.340 -0.1274 -0.2077  0.0384
 1838POPC   D2A22314  -0.287   7.109   6.842  0.1269  0.2209  0.0537
 1838POPC   C3A22315  -0.378   7.047   6.403 -0.2350  0.0175  0.1948
 1838POPC   C4A22316  -0.313   7.213   5.998 -0.4065  0.3700 -0.0834
 1838POPC   C1B22317  -0.659   7.468   7.401  0.1099 -0.2761  0.0978
 1838POPC   C2B22318  -0.722   7.234   7.029 -0.1824 -0.0213 -0.0299
 1838POPC   C3B22319  -0.818   7.163   6.582  0.0638 -0.1257  0.2070
 1838POPC   C4B22320  -1.187   7.236   6.233 -0.2624 -0.0463  0.2375
 1839POPC   NC322321  11.034  28.745   8.012  0.1100 -0.0591 -0.0494
 1839POPC   PO422322  11.421  28.874   7.916  0.3066  0.0765 -0.2121
 1839POPC   GL122323  11.127  28.831   7.541 -0.3951  0.0996  0.3560
 1839POPC   GL222324  11.180  28.691   7.286  0.0466  0.0438  0.0435
 1839POPC   C1A22325  10.854  29.158   7.428 -0.1222 -0.1504  0.2874
 1839POPC   D2A22326  10.483  29.396   7.324 -0.1503  0.3792 -0.0613
 1839POPC   C3A22327  10.018  29.284   7.232 -0.0842  0.0002  0.0033
 1839POPC   C4A22328   9.771  29.286   6.884  0.0130  0.1393 -0.0735
 1839POPC   C1B22329  11.019  28.799   6.917 -0.2260  0.2849  0.2098
 1839POPC   C2B22330  10.818  28.916   6.544  0.0306  0.0041 -0.4156
 1839POPC   C3B22331  10.641  29.163   6.205  0.0224 -0.0342  0.0009
 1839POPC   C4B22332  10.593  29.257   5.741 -0.3697  0.1191 -0.0178
 1840POPC   NC322333   4.032  21.200   7.640  0.2097  0.1109 -0.1398
 1840POPC   PO422334   3.949  21.529   7.763  0.1924 -0.0217  0.0458
 1840POPC   GL122335   4.075  21.566   7.392  0.1519  0.0683 -0.3167
 1840POPC   GL222336   3.904  21.410   7.208  0.2178 -0.4316  0.0720
 1840POPC   C1A22337   4.329  21.795   7.071 -0.3287 -0.0639  0.1339
 1840POPC   D2A22338   4.575  21.718   6.666 -0.2213  0.1597  0.0404
 1840POPC   C3A22339   4.897  21.356   6.518  0.3445  0.1848  0.0287
 1840POPC   C4A22340   5.170  21.029   6.238  0.1520 -0.1484 -0.2143
 1840POPC   C1B22341   3.459  21.242   7.069  0.0350 -0.1781  0.0780
 1840POPC   C2B22342   3.223  21.191   6.700 -0.1245  0.1989  0.0907
 1840POPC   C3B22343   3.264  20.823   6.365  0.0442 -0.0589  0.1003
 1840POPC   C4B22344   3.112  20.603   5.968  0.1863 -0.3701  0.2048
 1841POPC   NC322345   2.806  13.030   7.979 -0.2930  0.0070  0.2464
 1841POPC   PO422346   2.579  13.291   7.818  0.1004 -0.0967 -0.2179
 1841POPC   GL122347   2.467  13.045   7.529 -0.2476  0.1276 -0.3214
 1841POPC   GL222348   2.328  13.237   7.359 -0.0516 -0.0888  0.1611
 1841POPC   C1A22349   2.695  12.735   7.283  0.0655  0.0407 -0.5741
 1841POPC   D2A22350   2.436  12.505   7.061 -0.2108 -0.4405 -0.1278
 1841POPC   C3A22351   2.569  12.492   6.567  0.0284  0.0233  0.1850
 1841POPC   C4A22352   2.639  12.258   6.155 -0.2981  0.2777 -0.0291
 1841POPC   C1B22353   2.373  13.027   6.963 -0.1286  0.0036  0.0706
 1841POPC   C2B22354   2.342  12.897   6.527  0.1586 -0.3505 -0.1864
 1841POPC   C3B22355   2.428  12.695   6.123 -0.3196  0.1446  0.1094
 1841POPC   C4B22356   2.675  12.945   5.736 -0.1269 -0.0424 -0.1121
 1842POPC   NC322357   2.057   6.044   7.290  0.3607 -0.1528  0.0655
 1842POPC   PO422358   1.718   5.832   7.299 -0.4981 -0.1483 -0.1539
 1842POPC   GL122359   1.593   5.685   6.928  0.0635 -0.0810  0.1902
 1842POPC   GL222360   1.284   5.780   6.862 -0.1554 -0.3874  0.2215
 1842POPC   C1A22361   1.609   5.674   6.434 -0.1013  0.1080 -0.1878
 1842POPC   D2A22362   1.411   5.541   6.029 -0.2963  0.1459 -0.3445
 1842POPC   C3A22363   1.340   5.057   6.032 -0.1622  0.0321  0.1601
 1842POPC   C4A22364   0.949   4.863   5.950 -0.1154 -0.0710 -0.1077
 1842POPC   C1B22365   1.151   5.810   6.468  0.0505  0.1106 -0.2516
 1842POPC   C2B22366   0.827   5.989   6.166 -0.0052  0.1938  0.1084
 1842POPC   C3B22367   0.612   5.998   5.714 -0.2762 -0.3619  0.1987
 1842POPC   C4B22368   0.212   5.755   5.587  0.0200  0.1078 -0.0693
 1843POPC   NC322369  14.277  18.556   7.212  0.2147 -0.3862 -0.1129
 1843POPC   PO422370  13.902  18.582   7.347  0.0579  0.0274 -0.1617
 1843POPC   GL122371  13.858  18.496   6.984 -0.0731  0.0140  0.2203
 1843POPC   GL222372  13.971  18.290   6.913  0.0572  0.0923 -0.3779
 1843POPC   C1A22373  14.182  18.690   6.698  0.0656  0.0358  0.1049
 1843POPC   D2A22374  14.584  18.970   6.581 -0.4028  0.0673 -0.1661
 1843POPC   C3A22375  14.681  19.145   6.150 -0.2198 -0.0783  0.3647
 1843POPC   C4A22376  14.916  19.007   5.786 -0.1646 -0.0348  0.1223
 1843POPC   C1B22377  13.712  18.017   6.669  0.2132  0.0350  0.3048
 1843POPC   C2B22378  13.693  17.591   6.410  0.0943  0.1237  0.0354
 1843POPC   C3B22379  13.498  17.225   6.279 -0.0414 -0.1340 -0.0369
 1843POPC   C4B22380  13.298  17.116   5.883 -0.1610  0.0241  0.2323
 1844POPC   NC322381  14.484  25.370   8.166 -0.2820 -0.2286 -0.0638
 1844POPC   PO422382  14.357  25.185   7.855  0.1247  0.1529  0.0794
 1844POPC   GL122383  14.428  25.155   7.550 -0.1720 -0.1572  0.5548
 1844POPC   GL222384  14.750  25.304   7.546  0.0087 -0.1837  0.1882
 1844POPC   C1A22385  14.465  25.186   7.099 -0.2458 -0.1411  0.0373
 1844POPC   D2A22386  14.635  25.315   6.703 -0.0968  0.1880 -0.2775
 1844POPC   C3A22387  14.590  25.545   6.311  0.0243  0.2939 -0.1551
 1844POPC   C4A22388  14.561  25.951   6.139 -0.3989 -0.1491 -0.3344
 1844POPC   C1B22389  14.945  24.953   7.387  0.3542  0.0562  0.0405
 1844POPC   C2B22390  14.971  24.527   7.216 -0.0427 -0.0054 -0.0503
 1844POPC   C3B22391  15.382  24.398   7.139  0.1969  0.0280 -0.0015
 1844POPC   C4B22392  15.762  24.675   7.126 -0.1131 -0.1479 -0.0714
 1845POPC   NC322393   6.100  31.569   7.357  0.3401 -0.2020 -0.2641
 1845POPC   PO422394   5.935  31.206   7.418  0.1635  0.0441  0.1303
 1845POPC   GL122395   5.972  31.204   7.031  0.1246 -0.3075  0.0501
 1845POPC   GL222396   6.131  31.056   6.865  0.2170  0.1925  0.2609
 1845POPC   C1A22397   6.054  31.517   6.711 -0.0379 -0.1132 -0.1525
 1845POPC   D2A22398   6.008  31.499   6.279  0.3024  0.0057 -0.0607
 1845POPC   C3A22399   5.644  31.281   6.060 -0.1454 -0.2516  0.2088
 1845POPC   C4A22400   5.299  31.242   5.765  0.0574 -0.1079  0.2124
 1845POPC   C1B22401   6.089  31.043   6.442  0.1056 -0.1620  0.2061
 1845POPC   C2B22402   6.099  31.090   5.999  0.2149 -0.4147  0.1820
 1845POPC   C3B22403   6.000  31.401   5.699  0.1087 -0.0301  0.2350
 1845POPC   C4B22404   5.967  31.814   5.455 -0.0401 -0.2487  0.0779
 1846POPC   NC322405   4.212   4.839   8.388 -0.1577  0.0610  0.0191
 1846POPC   PO422406   4.389   5.170   8.225 -0.1597  0.1130  0.2394
 1846POPC   GL122407   4.435   5.162   7.856 -0.0294  0.0630 -0.0204
 1846POPC   GL222408   4.210   5.065   7.715  0.1467 -0.1695  0.1701
 1846POPC   C1A22409   4.661   4.887   7.570  0.2331  0.0069  0.1089
 1846POPC   D2A22410   4.934   4.579   7.363  0.1259 -0.2087  0.3065
 1846POPC   C3A22411   5.119   4.140   7.523 -0.3847  0.0454  0.2370
 1846POPC   C4A22412   5.162   3.716   7.705 -0.0186 -0.2770  0.1365
 1846POPC   C1B22413   4.244   4.671   7.442 -0.4337  0.1729  0.1135
 1846POPC   C2B22414   4.526   4.440   7.142 -0.1368 -0.0366 -0.0833
 1846POPC   C3B22415   4.747   4.274   6.796  0.0627  0.3862  0.5627
 1846POPC   C4B22416   4.893   3.855   6.651  0.0838 -0.0793 -0.0151
 1847POPC   NC322417   6.374   3.328   8.023  0.1058  0.2081 -0.0393
 1847POPC   PO422418   6.728   3.323   8.140 -0.2417  0.1734 -0.0441
 1847POPC   GL122419   6.792   3.157   7.797  0.0213 -0.1100  0.3606
 1847POPC   GL222420   6.923   3.353   7.694  0.1311 -0.2388  0.1948
 1847POPC   C1A22421   6.490   3.107   7.362 -0.0932  0.1992 -0.3019
 1847POPC   D2A22422   6.484   2.901   6.961 -0.1520  0.1886 -0.0706
 1847POPC   C3A22423   6.231   3.093   6.665  0.1580 -0.0073  0.1725
 1847POPC   C4A22424   5.925   3.406   6.520  0.2695 -0.0094  0.1595
 1847POPC   C1B22425   7.104   3.544   7.324  0.0666  0.0586 -0.1425
 1847POPC   C2B22426   7.092   3.721   6.846 -0.2304  0.1264 -0.2284
 1847POPC   C3B22427   7.057   3.918   6.409 -0.1129 -0.1190  0.2422
 1847POPC   C4B22428   7.166   3.607   6.045 -0.1286  0.2498 -0.1196
 1848POPC   NC322429  11.814   5.063   7.697  0.3869  0.1084  0.0396
 1848POPC   PO422430  11.894   4.875   7.979 -0.0803  0.0178 -0.1326
 1848POPC   GL122431  12.220   4.749   7.755  0.2525 -0.0692 -0.1146
 1848POPC   GL222432  12.179   4.811   7.440 -0.1367 -0.1738 -0.4059
 1848POPC   C1A22433  12.687   4.862   7.646  0.1497  0.3591 -0.0165
 1848POPC   D2A22434  13.073   4.864   7.401 -0.1576 -0.0790  0.1269
 1848POPC   C3A22435  13.178   5.348   7.293  0.1379 -0.2140 -0.0529
 1848POPC   C4A22436  13.436   5.690   7.441 -0.1177 -0.2258 -0.0980
 1848POPC   C1B22437  12.156   4.860   6.989  0.0455 -0.0416 -0.0716
 1848POPC   C2B22438  12.221   4.619   6.617 -0.1762 -0.0578 -0.1665
 1848POPC   C3B22439  12.371   4.691   6.222 -0.1721 -0.1843 -0.3312
 1848POPC   C4B22440  12.394   5.033   5.931 -0.2256  0.0788 -0.3344
 1849POPC   NC322441   8.194   2.147   7.388 -0.0671 -0.0324  0.0170
 1849POPC   PO422442   7.874   2.340   7.412  0.0831 -0.0406  0.2490
 1849POPC   GL122443   7.863   2.343   6.956  0.2101  0.4125  0.0344
 1849POPC   GL222444   8.104   2.208   6.892  0.2875  0.1473  0.0844
 1849POPC   C1A22445   8.113   2.587   6.607  0.0086 -0.0963  0.0392
 1849POPC   D2A22446   8.309   2.588   6.209 -0.1029 -0.1328  0.0263
 1849POPC   C3A22447   8.129   2.157   6.068 -0.0213  0.4624  0.0534
 1849POPC   C4A22448   7.929   1.763   6.225 -0.0332 -0.0675 -0.0284
 1849POPC   C1B22449   8.365   2.188   6.545  0.1887  0.1014  0.1860
 1849POPC   C2B22450   8.719   2.233   6.227  0.0576  0.0185  0.1411
 1849POPC   C3B22451   8.936   2.388   5.786  0.0324 -0.3997  0.1010
 1849POPC   C4B22452   9.023   2.823   5.593  0.0367  0.1288 -0.0178
 1850POPC   NC322453  11.121   4.629   7.652 -0.1725 -0.0090 -0.1348
 1850POPC   PO422454  11.377   4.881   7.811  0.1530  0.1393 -0.2160
 1850POPC   GL122455  11.412   5.029   7.550  0.1073  0.0170 -0.0991
 1850POPC   GL222456  11.243   4.980   7.322  0.2982  0.0707 -0.0066
 1850POPC   C1A22457  11.730   5.009   7.204 -0.2698  0.0975 -0.0397
 1850POPC   D2A22458  11.941   5.267   6.921 -0.0256  0.0668  0.0380
 1850POPC   C3A22459  11.919   5.044   6.542  0.3151  0.1214  0.1438
 1850POPC   C4A22460  12.022   5.231   6.161  0.0889  0.0336  0.2113
 1850POPC   C1B22461  11.407   4.688   7.046  0.0814  0.0860  0.0872
 1850POPC   C2B22462  11.751   4.594   6.705 -0.1272  0.2897 -0.1674
 1850POPC   C3B22463  11.876   4.623   6.277  0.4424 -0.2244 -0.0506
 1850POPC   C4B22464  11.974   4.608   5.852  0.0205 -0.1069 -0.4024
 1851POPC   NC322465   7.763  22.449   7.907 -0.1207  0.0423 -0.1686
 1851POPC   PO422466   7.881  22.729   7.645 -0.1992 -0.0487  0.2191
 1851POPC   GL122467   7.747  22.499   7.250  0.1767  0.0803  0.1715
 1851POPC   GL222468   7.960  22.680   7.091 -0.1558 -0.0079 -0.0797
 1851POPC   C1A22469   7.643  22.451   6.823  0.0222 -0.1626  0.0814
 1851POPC   D2A22470   7.450  22.204   6.433 -0.1929  0.1384 -0.0640
 1851POPC   C3A22471   7.228  22.162   6.011 -0.1765  0.1424 -0.1150
 1851POPC   C4A22472   6.814  22.048   5.777  0.1297 -0.3087 -0.1373
 1851POPC   C1B22473   8.114  22.678   6.689 -0.0971  0.2351  0.1085
 1851POPC   C2B22474   8.100  22.819   6.282  0.1017 -0.0526  0.4077
 1851POPC   C3B22475   7.887  22.973   5.926 -0.1918  0.0625 -0.0716
 1851POPC   C4B22476   7.715  23.335   5.670  0.1424  0.0791 -0.2108
 1852POPC   NC322477   5.330  18.666   7.611  0.0579  0.3423 -0.0040
 1852POPC   PO422478   4.974  18.819   7.493 -0.3316 -0.0828  0.1851
 1852POPC   GL122479   5.012  19.099   7.169  0.2399  0.1661 -0.1585
 1852POPC   GL222480   5.263  18.988   7.105  0.0703  0.2320  0.0535
 1852POPC   C1A22481   4.756  19.131   6.731 -0.0297  0.1876 -0.0008
 1852POPC   D2A22482   4.686  19.190   6.343  0.0957  0.1669  0.0559
 1852POPC   C3A22483   4.440  19.008   6.026 -0.2723 -0.0157  0.0644
 1852POPC   C4A22484   4.006  18.956   5.848  0.1036 -0.0464 -0.1614
 1852POPC   C1B22485   5.238  19.183   6.676 -0.3203  0.3283 -0.2730
 1852POPC   C2B22486   4.960  19.565   6.483 -0.3398 -0.0888  0.3504
 1852POPC   C3B22487   4.665  19.735   6.229 -0.0451  0.1594  0.2758
 1852POPC   C4B22488   4.394  19.980   5.991  0.1956 -0.2252 -0.1166
 1853POPC   NC322489   5.455  25.323   7.568 -0.2213  0.2096  0.0975
 1853POPC   PO422490   5.811  25.227   7.698  0.0402 -0.2651  0.0588
 1853POPC   GL122491   5.876  25.098   7.343  0.0706  0.0068 -0.1107
 1853POPC   GL222492   5.774  25.359   7.184  0.3059  0.1235 -0.2508
 1853POPC   C1A22493   5.871  24.985   6.907 -0.0081  0.0108  0.0406
 1853POPC   D2A22494   5.925  24.682   6.544 -0.1101  0.0272  0.0124
 1853POPC   C3A22495   5.866  24.348   6.233 -0.0682 -0.3076  0.1691
 1853POPC   C4A22496   5.879  24.032   5.875  0.1927 -0.1457  0.0387
 1853POPC   C1B22497   5.724  25.485   6.800  0.1333  0.0729 -0.2251
 1853POPC   C2B22498   5.546  25.380   6.425 -0.1689 -0.4481  0.1469
 1853POPC   C3B22499   5.351  25.174   6.080 -0.2470  0.1096  0.0176
 1853POPC   C4B22500   5.247  24.836   5.811 -0.1845 -0.1197 -0.0860
 1854POPC   NC322501   1.797  25.495   7.219 -0.1072 -0.1258  0.1787
 1854POPC   PO422502   1.934  25.851   7.257 -0.0943 -0.2971 -0.0697
 1854POPC   GL122503   1.566  25.863   7.018  0.3302 -0.1320 -0.2292
 1854POPC   GL222504   1.635  25.812   6.729  0.0773  0.3905  0.1266
 1854POPC   C1A22505   1.490  26.302   6.915  0.1275  0.2188  0.0508
 1854POPC   D2A22506   1.309  26.642   6.674  0.0290 -0.0785  0.1712
 1854POPC   C3A22507   1.278  26.759   6.248  0.4552 -0.1890 -0.1008
 1854POPC   C4A22508   1.041  27.145   6.047  0.0388  0.0785 -0.2433
 1854POPC   C1B22509   1.349  25.743   6.381  0.5639 -0.1356 -0.0295
 1854POPC   C2B22510   1.062  25.641   6.032  0.0760 -0.0381 -0.2409
 1854POPC   C3B22511   0.885  25.705   5.614  0.1395  0.0758  0.0260
 1854POPC   C4B22512   0.951  25.804   5.160  0.1734  0.0855  0.0250
 1855POPC   NC322513  11.766  22.682   7.283 -0.3558  0.1572 -0.1486
 1855POPC   PO422514  11.903  23.024   7.401  0.2010 -0.3804 -0.3142
 1855POPC   GL122515  11.737  23.120   7.112 -0.6612 -0.1967  0.1813
 1855POPC   GL222516  11.520  23.072   7.008 -0.0267  0.2668  0.0206
 1855POPC   C1A22517  11.835  22.984   6.639 -0.0146 -0.1259  0.0211
 1855POPC   D2A22518  11.590  23.051   6.275 -0.1919  0.0703  0.4192
 1855POPC   C3A22519  11.760  22.874   5.868 -0.2939 -0.0187  0.4326
 1855POPC   C4A22520  11.597  23.089   5.422 -0.1540  0.3019 -0.3366
 1855POPC   C1B22521  11.321  23.244   6.640 -0.2269 -0.0306 -0.0280
 1855POPC   C2B22522  11.091  23.113   6.294 -0.0392  0.0267 -0.0112
 1855POPC   C3B22523  11.181  23.142   5.850  0.2137 -0.2113 -0.0093
 1855POPC   C4B22524  11.075  23.002   5.471  0.2035  0.0081 -0.0529
 1856POPC   NC322525   2.173  11.036   7.953 -0.1018  0.1895  0.0001
 1856POPC   PO422526   2.147  10.731   7.758 -0.0357  0.1980  0.2983
 1856POPC   GL122527   2.079  10.633   7.438 -0.0618  0.0209 -0.2314
 1856POPC   GL222528   2.134  10.792   7.225  0.1571  0.1099  0.0144
 1856POPC   C1A22529   2.009  10.371   7.012  0.0591 -0.2363  0.0178
 1856POPC   D2A22530   1.963  10.319   6.603 -0.0389  0.0244 -0.0933
 1856POPC   C3A22531   1.776  10.684   6.418  0.0738  0.0283  0.3605
 1856POPC   C4A22532   1.413  10.881   6.134 -0.0881 -0.1353  0.1556
 1856POPC   C1B22533   2.349  10.678   6.860  0.1798  0.2927  0.0973
 1856POPC   C2B22534   2.473  10.368   6.590 -0.3352 -0.3633  0.3283
 1856POPC   C3B22535   2.574  10.253   6.126  0.2800 -0.0495 -0.2458
 1856POPC   C4B22536   2.427   9.996   5.796  0.1337 -0.0833  0.0358
 1857POPC   NC322537   4.588   5.595   7.815  0.0962  0.0015 -0.1858
 1857POPC   PO422538   4.325   5.834   7.672 -0.1018 -0.0466 -0.0668
 1857POPC   GL122539   4.186   5.877   7.350 -0.0506 -0.0086  0.2132
 1857POPC   GL222540   4.316   5.605   7.184 -0.2153 -0.0536  0.2799
 1857POPC   C1A22541   3.851   5.823   7.075  0.2702 -0.0589  0.0621
 1857POPC   D2A22542   3.815   5.610   6.658  0.1079 -0.0352  0.3278
 1857POPC   C3A22543   4.005   5.747   6.266 -0.2264  0.3826 -0.0808
 1857POPC   C4A22544   4.032   5.518   5.864 -0.0747 -0.4197 -0.0620
 1857POPC   C1B22545   4.387   5.685   6.689  0.1078  0.2166 -0.4794
 1857POPC   C2B22546   4.599   5.737   6.277 -0.3974 -0.0051  0.1580
 1857POPC   C3B22547   4.699   6.070   5.958 -0.1113 -0.2894  0.1194
 1857POPC   C4B22548   4.701   6.472   5.786  0.3163  0.1166  0.1909
 1858POPC   NC322549  11.420   2.220   7.840 -0.1559 -0.1468 -0.0497
 1858POPC   PO422550  11.520   2.590   7.801  0.0477  0.0033  0.1409
 1858POPC   GL122551  11.703   2.489   7.426 -0.2499  0.1665  0.0826
 1858POPC   GL222552  11.760   2.168   7.459  0.1271 -0.0306  0.0055
 1858POPC   C1A22553  11.937   2.322   7.047  0.1756 -0.2356 -0.4597
 1858POPC   D2A22554  11.901   2.133   6.637  0.2475 -0.2132  0.1709
 1858POPC   C3A22555  11.976   2.261   6.156 -0.0680  0.0169 -0.1051
 1858POPC   C4A22556  11.828   2.582   5.836 -0.1650  0.0899  0.2479
 1858POPC   C1B22557  11.544   1.929   7.102  0.1212  0.1281 -0.2302
 1858POPC   C2B22558  11.555   1.535   6.847  0.0630 -0.0446 -0.1628
 1858POPC   C3B22559  11.544   1.104   6.648  0.1249 -0.0137 -0.0990
 1858POPC   C4B22560  11.581   0.804   6.322  0.0029 -0.0913 -0.3770
 1859POPC   NC322561   9.724  19.155   7.606 -0.0439  0.0217 -0.1200
 1859POPC   PO422562  10.016  18.920   7.634 -0.2401  0.1241  0.0726
 1859POPC   GL122563   9.996  18.935   7.199 -0.2836  0.2184  0.2032
 1859POPC   GL222564   9.664  19.025   7.084 -0.1179  0.1998  0.0267
 1859POPC   C1A22565  10.079  18.840   6.771  0.1316 -0.0819 -0.2908
 1859POPC   D2A22566  10.401  18.879   6.422  0.1029 -0.1169  0.0562
 1859POPC   C3A22567  10.276  18.730   5.990 -0.0623  0.0743 -0.2212
 1859POPC   C4A22568  10.185  18.812   5.523 -0.0546 -0.0872  0.0093
 1859POPC   C1B22569   9.573  18.887   6.713 -0.0399 -0.2879  0.1631
 1859POPC   C2B22570   9.476  18.533   6.400  0.0817 -0.4373  0.3137
 1859POPC   C3B22571   9.341  18.106   6.216 -0.2229 -0.0338 -0.1169
 1859POPC   C4B22572   9.053  17.739   6.081 -0.2838 -0.1707  0.1537
 1860POPC   NC322573  13.525  22.921   8.094 -0.0787 -0.0361 -0.0025
 1860POPC   PO422574  13.670  22.841   7.712  0.0482  0.0740  0.0962
 1860POPC   GL122575  13.619  22.674   7.323 -0.2147 -0.1192 -0.2798
 1860POPC   GL222576  13.896  22.660   7.137 -0.0338 -0.2196 -0.0440
 1860POPC   C1A22577  13.593  22.267   7.068  0.0864 -0.0213 -0.5397
 1860POPC   D2A22578  13.636  21.910   6.760  0.0663 -0.0114 -0.2335
 1860POPC   C3A22579  13.678  21.988   6.286  0.0281  0.1050 -0.0584
 1860POPC   C4A22580  13.578  21.833   5.873 -0.0935 -0.1167  0.0055
 1860POPC   C1B22581  13.964  22.670   6.623  0.1212  0.1671  0.1371
 1860POPC   C2B22582  13.721  22.486   6.338 -0.2225 -0.1190 -0.0468
 1860POPC   C3B22583  13.545  22.366   5.901  0.1164 -0.1904 -0.1803
 1860POPC   C4B22584  13.417  22.277   5.433 -0.0755  0.2686  0.0263
 1861POPC   NC322585  14.052   0.788   8.561 -0.1844 -0.2952  0.0194
 1861POPC   PO422586  14.204   0.676   8.189  0.1774 -0.1956 -0.0518
 1861POPC   GL122587  14.135   0.624   7.675 -0.0183 -0.1980  0.2962
 1861POPC   GL222588  14.020   0.876   7.565  0.1432 -0.1111  0.1241
 1861POPC   C1A22589  13.964   0.468   7.234 -0.2352  0.0353  0.0403
 1861POPC   D2A22590  13.720   0.507   6.853  0.1018  0.1657  0.1342
 1861POPC   C3A22591  13.419   0.224   6.655 -0.0973  0.1036  0.1062
 1861POPC   C4A22592  13.062   0.129   6.875 -0.1312  0.2260 -0.0291
 1861POPC   C1B22593  14.239   0.986   7.127  0.2299  0.3507  0.0354
 1861POPC   C2B22594  14.476   1.076   6.743 -0.0078 -0.0174  0.0517
 1861POPC   C3B22595  14.510   1.157   6.255 -0.0128  0.0229 -0.2266
 1861POPC   C4B22596  14.725   1.016   5.836 -0.3178  0.1208  0.0588
 1862POPC   NC322597   0.914   1.204   7.852  0.0564  0.2095  0.1248
 1862POPC   PO422598   1.131   1.379   7.609 -0.0364 -0.2875  0.1066
 1862POPC   GL122599   0.885   1.177   7.396 -0.0109  0.0379  0.1024
 1862POPC   GL222600   0.986   1.217   7.115  0.1962  0.0570  0.1205
 1862POPC   C1A22601   0.596   0.876   7.106 -0.2425  0.1003  0.0794
 1862POPC   D2A22602   0.506   0.546   6.809  0.1693 -0.2342 -0.0782
 1862POPC   C3A22603   0.304   0.585   6.405  0.1140 -0.0760 -0.0991
 1862POPC   C4A22604   0.503   0.762   6.010 -0.1068 -0.1529  0.0315
 1862POPC   C1B22605   1.107   1.239   6.664  0.1674 -0.0759 -0.0335
 1862POPC   C2B22606   1.215   1.006   6.280 -0.1800  0.3388  0.4430
 1862POPC   C3B22607   1.413   0.764   5.875  0.1423  0.1455 -0.2189
 1862POPC   C4B22608   1.130   0.645   5.551  0.0936  0.3389  0.0519
 1863POPC   NC322609   8.745   6.265   7.434 -0.0411  0.1827  0.2407
 1863POPC   PO422610   9.028   5.995   7.391 -0.1778 -0.1179 -0.1712
 1863POPC   GL122611   9.055   6.138   7.022 -0.0812 -0.2366 -0.0740
 1863POPC   GL222612   9.331   6.036   7.016 -0.2708  0.0518 -0.0145
 1863POPC   C1A22613   8.889   5.871   6.717 -0.2343  0.0993  0.0362
 1863POPC   D2A22614   8.909   5.358   6.711  0.0861 -0.2572 -0.0747
 1863POPC   C3A22615   9.027   5.050   6.383 -0.0464  0.0248  0.0906
 1863POPC   C4A22616   9.030   5.098   5.917  0.0985 -0.0303 -0.0300
 1863POPC   C1B22617   9.407   5.959   6.643  0.0595 -0.0022 -0.1196
 1863POPC   C2B22618   9.323   5.973   6.207  0.1362 -0.0525 -0.2823
 1863POPC   C3B22619   9.033   6.001   5.886  0.0000 -0.1194 -0.0301
 1863POPC   C4B22620   8.979   6.170   5.499  0.2482 -0.1796  0.1148
 1864POPC   NC322621   6.699  30.977   7.480 -0.0233  0.0207 -0.0172
 1864POPC   PO422622   6.457  31.163   7.253  0.0620 -0.0603  0.2343
 1864POPC   GL122623   6.594  30.977   7.004  0.2415 -0.0753 -0.3446
 1864POPC   GL222624   6.613  31.162   6.778  0.1664 -0.2329 -0.0781
 1864POPC   C1A22625   6.517  30.744   6.581  0.3141  0.0028 -0.2648
 1864POPC   D2A22626   6.379  30.311   6.410  0.0674 -0.2832 -0.0873
 1864POPC   C3A22627   6.405  30.251   5.937 -0.1485  0.0254  0.1412
 1864POPC   C4A22628   6.753  30.121   5.700 -0.0597  0.0496 -0.0472
 1864POPC   C1B22629   6.487  31.295   6.345  0.2126 -0.2120  0.1328
 1864POPC   C2B22630   6.406  31.532   5.945 -0.4325  0.0626 -0.1320
 1864POPC   C3B22631   6.590  31.622   5.515 -0.0254  0.0483 -0.0427
 1864POPC   C4B22632   6.791  31.991   5.308 -0.3479  0.1263 -0.0430
 1865POPC   NC322633  15.334  29.937   7.623 -0.0178 -0.2319 -0.4983
 1865POPC   PO422634  15.461  30.313   7.722 -0.0575  0.1168 -0.0770
 1865POPC   GL122635  15.729  30.343   7.458  0.0382 -0.2612 -0.0210
 1865POPC   GL222636  15.718  30.099   7.346  0.2188  0.0044 -0.0279
 1865POPC   C1A22637  15.491  30.553   7.143  0.1656 -0.2217 -0.0885
 1865POPC   D2A22638  15.182  30.892   6.942  0.1116  0.0057  0.0158
 1865POPC   C3A22639  15.105  30.806   6.508  0.1890  0.1181  0.4036
 1865POPC   C4A22640  15.361  30.637   6.130 -0.2285 -0.0655 -0.2414
 1865POPC   C1B22641  16.055  30.202   7.100  0.2383 -0.0782 -0.6733
 1865POPC   C2B22642  16.253  30.351   6.733 -0.2077  0.1707 -0.3074
 1865POPC   C3B22643  16.350  30.507   6.265 -0.1058  0.2726 -0.2545
 1865POPC   C4B22644  16.290  30.165   5.951  0.1268  0.1784  0.1111
 1866POPC   NC322645   9.375  21.721   7.565 -0.0495 -0.1201  0.1003
 1866POPC   PO422646   9.051  21.831   7.789 -0.0914 -0.0045  0.1128
 1866POPC   GL122647   8.934  21.654   7.440 -0.0844 -0.0663 -0.0780
 1866POPC   GL222648   8.614  21.613   7.433 -0.2828  0.0136  0.1062
 1866POPC   C1A22649   9.209  21.544   7.055  0.0792 -0.0980  0.1722
 1866POPC   D2A22650   9.264  21.435   6.631 -0.1796 -0.2440 -0.0844
 1866POPC   C3A22651   9.128  21.725   6.282  0.0999 -0.1283  0.0032
 1866POPC   C4A22652   8.963  21.886   5.890  0.3810 -0.2319 -0.1893
 1866POPC   C1B22653   8.717  21.465   7.035  0.1516  0.0173  0.0308
 1866POPC   C2B22654   8.689  21.592   6.551  0.0928 -0.1343 -0.0724
 1866POPC   C3B22655   8.653  21.572   6.110 -0.2172  0.0107 -0.1473
 1866POPC   C4B22656   8.586  21.702   5.688  0.2193 -0.1008 -0.1271
 1867POPC   NC322657   1.001   3.499   8.134  0.2596 -0.1244 -0.4266
 1867POPC   PO422658   0.945   3.118   8.038 -0.0781  0.1726  0.1282
 1867POPC   GL122659   0.875   3.328   7.716  0.0342  0.0512  0.2118
 1867POPC   GL222660   0.888   3.643   7.687 -0.2098  0.0541  0.0583
 1867POPC   C1A22661   0.471   3.318   7.540  0.1573  0.3289 -0.0053
 1867POPC   D2A22662   0.084   3.312   7.259  0.3305 -0.1256 -0.1101
 1867POPC   C3A22663   0.005   3.365   6.799 -0.0119 -0.0382 -0.3004
 1867POPC   C4A22664   0.101   3.335   6.334 -0.0066 -0.2182 -0.2131
 1867POPC   C1B22665   0.936   3.540   7.224  0.1408 -0.1808 -0.0161
 1867POPC   C2B22666   0.841   3.432   6.816  0.0771  0.2397  0.1082
 1867POPC   C3B22667   1.080   3.202   6.466 -0.2240  0.2223 -0.1552
 1867POPC   C4B22668   1.201   3.206   6.032  0.2364 -0.1473  0.0001
 1868POPC   NC322669   5.660  16.102   7.946  0.2038  0.1067 -0.0874
 1868POPC   PO422670   5.284  15.980   7.880 -0.1168  0.1995 -0.3118
 1868POPC   GL122671   5.202  16.154   7.456 -0.1782  0.5107  0.0977
 1868POPC   GL222672   5.491  16.195   7.496  0.1436  0.1985  0.0415
 1868POPC   C1A22673   4.890  16.115   7.158 -0.0297 -0.0392  0.1269
 1868POPC   D2A22674   4.627  15.901   6.826 -0.1682  0.0149 -0.0969
 1868POPC   C3A22675   4.544  15.973   6.411 -0.2094  0.0503 -0.6746
 1868POPC   C4A22676   4.318  16.231   6.153  0.0696 -0.0559 -0.0756
 1868POPC   C1B22677   5.489  16.295   6.998  0.2297 -0.0436  0.0245
 1868POPC   C2B22678   5.435  16.410   6.551  0.0831 -0.0639  0.0545
 1868POPC   C3B22679   5.504  16.258   6.137  0.3604  0.0110  0.1304
 1868POPC   C4B22680   5.299  15.941   5.874 -0.1413  0.0062 -0.2248
 1869POPC   NC322681  13.538   6.931   7.423 -0.2089 -0.3398 -0.1218
 1869POPC   PO422682  13.686   6.832   7.784 -0.0504 -0.0599  0.1537
 1869POPC   GL122683  13.805   6.583   7.536  0.1547  0.1672  0.2909
 1869POPC   GL222684  13.914   6.348   7.690 -0.1345  0.0540 -0.1134
 1869POPC   C1A22685  13.704   6.216   7.260 -0.5751 -0.1139 -0.0150
 1869POPC   D2A22686  13.503   5.877   7.028  0.0335 -0.0115  0.4108
 1869POPC   C3A22687  13.457   5.976   6.582 -0.0523  0.0200  0.0872
 1869POPC   C4A22688  13.467   6.236   6.200 -0.0481 -0.0038 -0.0817
 1869POPC   C1B22689  14.121   5.994   7.502 -0.0823  0.0245 -0.1021
 1869POPC   C2B22690  13.947   5.804   7.094  0.2508  0.4024 -0.0038
 1869POPC   C3B22691  13.781   5.438   6.848 -0.0443  0.0345  0.0713
 1869POPC   C4B22692  13.675   5.111   6.532  0.1689  0.0162 -0.0921
 1870POPC   NC322693   7.270  19.105   7.757  0.0503 -0.3536  0.0281
 1870POPC   PO422694   7.378  19.433   7.972  0.1688  0.0743 -0.1573
 1870POPC   GL122695   7.251  19.612   7.641 -0.0187  0.0728  0.2525
 1870POPC   GL222696   7.461  19.767   7.532 -0.0702 -0.0861 -0.1872
 1870POPC   C1A22697   7.245  19.303   7.262 -0.1334  0.3388 -0.1203
 1870POPC   D2A22698   7.034  19.268   6.901 -0.0937  0.1013 -0.0089
 1870POPC   C3A22699   7.043  19.538   6.598  0.0477  0.1971  0.4562
 1870POPC   C4A22700   7.070  19.979   6.644 -0.0576  0.0095 -0.0689
 1870POPC   C1B22701   7.496  20.098   7.209  0.2702 -0.3365 -0.0219
 1870POPC   C2B22702   7.596  20.121   6.804 -0.0480 -0.0882  0.0354
 1870POPC   C3B22703   7.495  20.148   6.341  0.1913  0.1829 -0.0732
 1870POPC   C4B22704   7.174  19.945   6.133  0.1246  0.1885 -0.0448
 1871POPC   NC322705  15.289  20.033   8.319  0.1181 -0.0221  0.1654
 1871POPC   PO422706  15.016  20.053   8.039 -0.0043 -0.2068  0.0833
 1871POPC   GL122707  15.238  19.995   7.769 -0.0364 -0.2374  0.2073
 1871POPC   GL222708  15.376  19.743   7.858 -0.0193  0.2781 -0.4549
 1871POPC   C1A22709  15.590  20.244   7.536  0.0172 -0.4285  0.4140
 1871POPC   D2A22710  16.012  20.086   7.400 -0.0289 -0.1349  0.0219
 1871POPC   C3A22711  16.399  19.959   7.526 -0.2568 -0.1171  0.2510
 1871POPC   C4A22712  16.662  19.667   7.783  0.1173  0.3024  0.2281
 1871POPC   C1B22713  15.748  19.720   7.661 -0.3767 -0.2176  0.3282
 1871POPC   C2B22714  16.120  19.526   7.458 -0.0703 -0.1213  0.0446
 1871POPC   C3B22715  16.464  19.477   7.227  0.2187 -0.2593  0.1369
 1871POPC   C4B22716  16.771  19.431   6.887  0.1480  0.2874  0.0387
 1872POPC   NC322717  12.394  12.057   7.927  0.2420 -0.1645 -0.0196
 1872POPC   PO422718  12.360  11.672   7.934 -0.0765 -0.1190  0.1017
 1872POPC   GL122719  12.392  11.759   7.500  0.2883 -0.2273 -0.1620
 1872POPC   GL222720  12.597  11.942   7.446 -0.0902 -0.2879 -0.2153
 1872POPC   C1A22721  12.575  11.566   7.123  0.0146  0.1366  0.4972
 1872POPC   D2A22722  12.740  11.726   6.713  0.0695 -0.0257 -0.1401
 1872POPC   C3A22723  12.895  11.413   6.394 -0.3233 -0.0699 -0.1181
 1872POPC   C4A22724  12.784  11.203   6.032 -0.3445 -0.1263  0.0646
 1872POPC   C1B22725  12.998  11.802   7.259 -0.0619 -0.1692  0.0090
 1872POPC   C2B22726  13.209  11.530   6.968 -0.1090  0.0403  0.0801
 1872POPC   C3B22727  13.434  11.456   6.555  0.1428 -0.1997  0.1817
 1872POPC   C4B22728  13.324  11.224   6.117 -0.3152 -0.1656 -0.0530
 1873POPC   NC322729   0.700  11.414   7.698  0.0033 -0.0126 -0.0671
 1873POPC   PO422730   0.670  11.029   7.673  0.2445 -0.0584 -0.3451
 1873POPC   GL122731   0.546  10.893   7.256 -0.2591 -0.1691 -0.2339
 1873POPC   GL222732   0.777  10.733   7.096 -0.1507 -0.0152  0.0293
 1873POPC   C1A22733   0.413  11.022   6.819 -0.0697  0.1262 -0.2376
 1873POPC   D2A22734   0.198  10.863   6.440 -0.0260 -0.1492 -0.3412
 1873POPC   C3A22735   0.540  11.039   6.201  0.0354  0.0995  0.2057
 1873POPC   C4A22736   0.630  11.308   5.739  0.3249 -0.1641 -0.2558
 1873POPC   C1B22737   0.694  10.566   6.678 -0.2450  0.5252  0.1490
 1873POPC   C2B22738   0.952  10.672   6.272 -0.0644 -0.0320 -0.1963
 1873POPC   C3B22739   0.860  10.763   5.804  0.0580 -0.1087  0.0446
 1873POPC   C4B22740   0.895  10.962   5.388  0.1863  0.0655 -0.0271
 1874POPC   NC322741  11.126   0.341   8.426  0.1080 -0.2167  0.2335
 1874POPC   PO422742  11.219   0.529   8.121 -0.3108 -0.3845 -0.0154
 1874POPC   GL122743  11.024   0.406   7.771 -0.0886 -0.0543  0.0436
 1874POPC   GL222744  10.904   0.131   7.638  0.2383  0.0257 -0.2950
 1874POPC   C1A22745  11.251   0.420   7.371  0.1287  0.0346 -0.0416
 1874POPC   D2A22746  11.615   0.356   7.158  0.1309 -0.4461  0.0343
 1874POPC   C3A22747  11.695   0.430   6.717 -0.2077  0.0947 -0.1564
 1874POPC   C4A22748  11.892   0.324   6.329 -0.0695  0.1160  0.0285
 1874POPC   C1B22749  10.910   0.080   7.189 -0.3825 -0.1396  0.1016
 1874POPC   C2B22750  10.840  -0.039   6.722  0.2729  0.0559 -0.0456
 1874POPC   C3B22751  11.123   0.021   6.301 -0.2497 -0.1419  0.1035
 1874POPC   C4B22752  11.226  -0.025   5.864 -0.2976 -0.1558  0.0942
 1875POPC   NC322753   2.825  25.062   7.467  0.1832  0.0591  0.2002
 1875POPC   PO422754   2.706  24.928   7.135 -0.0031 -0.1774  0.0586
 1875POPC   GL122755   2.868  24.923   6.717 -0.3042 -0.0391  0.1018
 1875POPC   GL222756   2.677  25.093   6.514 -0.0350  0.3280  0.0538
 1875POPC   C1A22757   2.859  24.529   6.428  0.4058  0.0839 -0.0263
 1875POPC   D2A22758   2.904  24.478   5.968  0.2819 -0.1247  0.1633
 1875POPC   C3A22759   3.268  24.292   5.890 -0.0947  0.4846  0.0091
 1875POPC   C4A22760   3.426  23.870   5.661 -0.1643 -0.1624 -0.0089
 1875POPC   C1B22761   2.734  24.896   6.077  0.1266 -0.2258  0.1177
 1875POPC   C2B22762   3.049  24.929   5.763 -0.0305 -0.0256  0.1122
 1875POPC   C3B22763   3.472  24.746   5.641 -0.1705 -0.0953  0.0671
 1875POPC   C4B22764   3.846  24.576   5.360  0.2123 -0.3961 -0.1702
 1876POPC   NC322765  10.643   6.306   8.001  0.4212  0.1348  0.1124
 1876POPC   PO422766  10.587   6.607   7.723 -0.1457  0.0014 -0.1757
 1876POPC   GL122767  10.729   6.416   7.371 -0.0740  0.2610  0.0428
 1876POPC   GL222768  10.808   6.068   7.446 -0.0665  0.1512 -0.1309
 1876POPC   C1A22769  10.757   6.583   6.933  0.3187  0.0532  0.2609
 1876POPC   D2A22770  10.450   6.623   6.599 -0.6798 -0.1698  0.0233
 1876POPC   C3A22771  10.540   6.878   6.236 -0.1207 -0.2017  0.2643
 1876POPC   C4A22772  10.941   6.884   6.021  0.1082 -0.0094  0.1464
 1876POPC   C1B22773  10.713   6.084   7.027 -0.1738 -0.1284 -0.2399
 1876POPC   C2B22774  11.025   6.193   6.694  0.1847  0.0686 -0.2872
 1876POPC   C3B22775  11.155   5.875   6.374 -0.0763 -0.0321 -0.0849
 1876POPC   C4B22776  10.998   5.545   6.049 -0.1961  0.0150  0.0328
 1877POPC   NC322777   5.986  16.820   7.729  0.0591 -0.3356 -0.1439
 1877POPC   PO422778   6.127  17.171   7.652 -0.0642  0.0673  0.3852
 1877POPC   GL122779   5.915  17.148   7.260 -0.5398 -0.2546  0.3853
 1877POPC   GL222780   5.807  17.384   7.089  0.0653 -0.0536 -0.1082
 1877POPC   C1A22781   6.159  17.049   6.843  0.1396  0.2180 -0.1715
 1877POPC   D2A22782   6.317  16.773   6.464 -0.2747  0.0548  0.0644
 1877POPC   C3A22783   6.467  17.014   6.079  0.2000  0.0768  0.0012
 1877POPC   C4A22784   6.625  17.315   5.787  0.0456  0.0687 -0.1888
 1877POPC   C1B22785   5.616  17.288   6.680  0.0296  0.1048 -0.3198
 1877POPC   C2B22786   5.708  16.906   6.413  0.2517  0.1886  0.1029
 1877POPC   C3B22787   5.997  16.863   6.054  0.0256 -0.0760 -0.2266
 1877POPC   C4B22788   6.146  17.107   5.687  0.0614  0.0499  0.0573
 1878POPC   NC322789   7.613   7.267   7.897  0.3086 -0.1527  0.0971
 1878POPC   PO422790   7.544   7.173   7.542 -0.0453  0.0994  0.0035
 1878POPC   GL122791   7.995   7.287   7.512  0.2668  0.3180  0.3581
 1878POPC   GL222792   7.863   7.566   7.504 -0.3673 -0.0951  0.0830
 1878POPC   C1A22793   8.294   7.422   7.245 -0.1906 -0.2874 -0.1768
 1878POPC   D2A22794   8.666   7.696   7.069 -0.0617  0.1847 -0.0007
 1878POPC   C3A22795   8.636   7.812   6.600 -0.1170  0.2216  0.2037
 1878POPC   C4A22796   8.649   7.990   6.152 -0.0707  0.1495 -0.1073
 1878POPC   C1B22797   7.847   7.402   7.067  0.1264 -0.1872  0.1910
 1878POPC   C2B22798   7.737   7.321   6.656  0.2008 -0.2646  0.2087
 1878POPC   C3B22799   7.840   7.087   6.302 -0.1256  0.1764 -0.4004
 1878POPC   C4B22800   8.025   6.677   6.310  0.0803  0.0315  0.1257
 1879POPC   NC322801   4.818   8.102   8.284  0.0922  0.1632 -0.0512
 1879POPC   PO422802   4.674   8.242   7.962  0.3137 -0.4024 -0.0244
 1879POPC   GL122803   4.627   8.316   7.569 -0.0091 -0.1381 -0.4901
 1879POPC   GL222804   4.377   8.335   7.476  0.2695 -0.1855  0.1006
 1879POPC   C1A22805   4.981   8.199   7.322 -0.1328 -0.1736 -0.0345
 1879POPC   D2A22806   5.126   8.193   6.895 -0.1665 -0.0094  0.2610
 1879POPC   C3A22807   4.828   8.178   6.535 -0.2203  0.2260 -0.0749
 1879POPC   C4A22808   4.667   8.117   6.099 -0.1612  0.0814  0.0870
 1879POPC   C1B22809   4.638   8.401   7.095  0.0727  0.2220  0.0454
 1879POPC   C2B22810   4.529   8.608   6.689 -0.1796  0.2161 -0.0118
 1879POPC   C3B22811   4.322   8.677   6.309 -0.3048  0.2243 -0.1383
 1879POPC   C4B22812   4.261   8.976   5.863  0.0448 -0.0674  0.2597
 1880POPC   NC322813  11.790  26.335   7.500 -0.2979 -0.2286 -0.0445
 1880POPC   PO422814  11.960  26.027   7.739 -0.1021 -0.0632  0.2904
 1880POPC   GL122815  12.226  25.834   7.450 -0.0526 -0.5589 -0.4209
 1880POPC   GL222816  12.205  26.027   7.284  0.0025 -0.2568 -0.0858
 1880POPC   C1A22817  12.468  25.621   7.100 -0.0688  0.0963  0.1418
 1880POPC   D2A22818  12.809  25.577   6.781  0.3230  0.1438 -0.0085
 1880POPC   C3A22819  12.920  25.822   6.388  0.2155  0.1874 -0.0308
 1880POPC   C4A22820  13.117  26.020   6.141  0.0188 -0.3056  0.1292
 1880POPC   C1B22821  12.430  26.055   6.887 -0.2180 -0.5628 -0.0039
 1880POPC   C2B22822  12.443  25.971   6.407  0.0217  0.0030 -0.0717
 1880POPC   C3B22823  12.210  25.816   6.052  0.1081  0.2703 -0.0014
 1880POPC   C4B22824  12.057  26.050   5.714  0.4174 -0.2705 -0.5104
 1881POPC   NC322825   6.251  26.207   7.667  0.0027 -0.0088  0.0818
 1881POPC   PO422826   6.598  26.055   7.725 -0.2462 -0.1472 -0.4396
 1881POPC   GL122827   6.529  25.904   7.337  0.2340  0.0476  0.0700
 1881POPC   GL222828   6.718  25.666   7.309 -0.2853 -0.0075  0.1124
 1881POPC   C1A22829   6.541  25.784   6.852 -0.0354 -0.0374  0.1029
 1881POPC   D2A22830   6.544  25.573   6.408  0.1422  0.1228 -0.2711
 1881POPC   C3A22831   6.822  25.533   6.036 -0.0814  0.0306  0.1507
 1881POPC   C4A22832   7.020  25.660   5.645  0.1150  0.0881  0.2237
 1881POPC   C1B22833   6.689  25.304   6.972  0.2699  0.1571  0.0015
 1881POPC   C2B22834   6.972  25.137   6.693 -0.2915 -0.1213  0.0397
 1881POPC   C3B22835   7.177  25.202   6.229  0.0885 -0.1821  0.1911
 1881POPC   C4B22836   7.448  25.394   5.914 -0.0577 -0.1164 -0.3784
 1882POPC   NC322837   1.805  21.585   7.835 -0.0707  0.3623 -0.0387
 1882POPC   PO422838   1.777  21.192   7.890  0.1110  0.0941 -0.0503
 1882POPC   GL122839   1.795  21.161   7.499  0.1413  0.1975 -0.0339
 1882POPC   GL222840   2.105  21.061   7.457 -0.0379 -0.3977 -0.0557
 1882POPC   C1A22841   1.455  21.127   7.128 -0.1316 -0.1333 -0.1503
 1882POPC   D2A22842   1.160  20.898   6.837  0.1436 -0.2050  0.0742
 1882POPC   C3A22843   1.299  20.635   6.507 -0.0664  0.0323 -0.0736
 1882POPC   C4A22844   1.630  20.390   6.313 -0.0847  0.0881  0.0644
 1882POPC   C1B22845   1.959  21.205   7.035 -0.2157  0.1857 -0.2905
 1882POPC   C2B22846   1.675  21.187   6.683  0.0643  0.1525 -0.3091
 1882POPC   C3B22847   1.266  21.176   6.463  0.2908  0.1243 -0.1293
 1882POPC   C4B22848   0.904  20.894   6.244  0.0186 -0.0028 -0.0007
 1883POPC   NC322849  12.347  15.533   7.713 -0.2427 -0.1391  0.0399
 1883POPC   PO422850  12.200  15.292   7.943  0.0355  0.1848 -0.2618
 1883POPC   GL122851  11.996  15.297   7.542 -0.4191  0.1710 -0.1287
 1883POPC   GL222852  11.963  15.571   7.421 -0.2754 -0.2597  0.1188
 1883POPC   C1A22853  11.901  15.042   7.172 -0.1216 -0.1458 -0.2407
 1883POPC   D2A22854  11.897  14.665   6.841 -0.1959 -0.2496 -0.0090
 1883POPC   C3A22855  11.925  14.698   6.336  0.1335 -0.0527 -0.0174
 1883POPC   C4A22856  11.827  14.535   5.898  0.2235 -0.1345  0.1624
 1883POPC   C1B22857  11.768  15.640   7.002 -0.0815  0.1937 -0.2523
 1883POPC   C2B22858  11.749  15.762   6.525 -0.0736 -0.1756 -0.1270
 1883POPC   C3B22859  11.905  15.573   6.133 -0.3522 -0.0707  0.3981
 1883POPC   C4B22860  11.907  15.370   5.702  0.0689  0.0713 -0.1330
 1884POPC   NC322861   9.200  12.641   7.428  0.0160 -0.3268  0.2422
 1884POPC   PO422862   9.591  12.732   7.491  0.0219  0.2894  0.0027
 1884POPC   GL122863   9.750  12.471   7.158  0.1158  0.5360 -0.4184
 1884POPC   GL222864   9.747  12.595   6.948 -0.1123 -0.1064  0.0959
 1884POPC   C1A22865   9.688  12.133   6.818 -0.4513  0.3064 -0.1721
 1884POPC   D2A22866   9.540  12.207   6.363  0.2282 -0.0494 -0.3185
 1884POPC   C3A22867   9.398  12.503   6.022  0.1782  0.0982  0.0361
 1884POPC   C4A22868   9.057  12.763   5.843  0.0351 -0.3541 -0.0455
 1884POPC   C1B22869   9.792  12.639   6.511 -0.3137  0.0019  0.0282
 1884POPC   C2B22870   9.873  12.759   6.066  0.0181 -0.0819  0.0578
 1884POPC   C3B22871   9.764  12.712   5.637 -0.0627  0.1569 -0.1222
 1884POPC   C4B22872   9.412  12.710   5.371  0.0112  0.1243  0.0081
 1885POPC   NC322873  14.392  20.983   8.001 -0.1909  0.0915  0.1391
 1885POPC   PO422874  14.203  20.774   7.669 -0.0935 -0.0874  0.2193
 1885POPC   GL122875  14.139  20.889   7.291 -0.0202  0.0025 -0.0355
 1885POPC   GL222876  13.936  20.792   7.077 -0.6441 -0.1939  0.2074
 1885POPC   C1A22877  14.452  21.120   7.048  0.0371 -0.0039  0.0760
 1885POPC   D2A22878  14.732  20.863   6.796  0.0427 -0.3589 -0.0573
 1885POPC   C3A22879  15.056  20.871   6.439  0.0226 -0.3019  0.0780
 1885POPC   C4A22880  15.276  20.617   6.099  0.0794  0.2546 -0.0737
 1885POPC   C1B22881  14.254  20.737   6.663  0.1259 -0.2328  0.1221
 1885POPC   C2B22882  14.475  20.909   6.304  0.0897 -0.0787 -0.0409
 1885POPC   C3B22883  14.669  20.999   5.902  0.1000 -0.1671 -0.0593
 1885POPC   C4B22884  15.102  20.783   5.632 -0.0658 -0.1641  0.2675
 1886POPC   NC322885   0.075  21.588   7.426 -0.2632 -0.1845  0.1000
 1886POPC   PO422886   0.095  21.924   7.607 -0.2217  0.0208  0.0424
 1886POPC   GL122887   0.348  22.054   7.364  0.0835 -0.1906  0.2233
 1886POPC   GL222888   0.325  22.013   7.054  0.1414  0.0170 -0.2743
 1886POPC   C1A22889   0.737  22.217   7.095 -0.2692 -0.0475  0.0801
 1886POPC   D2A22890   1.171  22.259   6.917 -0.0473 -0.0665 -0.6897
 1886POPC   C3A22891   1.265  22.166   6.532 -0.1704 -0.0114  0.1441
 1886POPC   C4A22892   1.700  22.162   6.384  0.0957  0.0072 -0.2628
 1886POPC   C1B22893   0.451  22.076   6.635  0.1056 -0.0300 -0.5208
 1886POPC   C2B22894   0.716  21.971   6.301 -0.1532  0.0247  0.1174
 1886POPC   C3B22895   1.099  21.841   5.991  0.2054  0.2001 -0.1269
 1886POPC   C4B22896   1.387  21.823   5.643  0.0949  0.1053 -0.3335
 1887POPC   NC322897   3.556  12.555   8.256  0.0972  0.0675  0.1162
 1887POPC   PO422898   3.838  12.403   8.085  0.4018 -0.1125  0.1382
 1887POPC   GL122899   3.663  12.496   7.718 -0.4088  0.0613  0.2038
 1887POPC   GL222900   3.899  12.569   7.630  0.0547 -0.1816  0.0141
 1887POPC   C1A22901   3.526  12.616   7.280  0.2074  0.0278  0.2350
 1887POPC   D2A22902   3.472  12.624   6.843 -0.2577 -0.0078  0.2624
 1887POPC   C3A22903   3.607  12.569   6.394  0.1290 -0.0347 -0.0777
 1887POPC   C4A22904   3.783  12.768   6.042  0.1668 -0.1625  0.1263
 1887POPC   C1B22905   4.206  12.712   7.289 -0.2906 -0.0261  0.2446
 1887POPC   C2B22906   4.346  13.002   6.981  0.2740 -0.1598  0.0905
 1887POPC   C3B22907   4.496  13.345   6.696 -0.1145 -0.0534  0.0133
 1887POPC   C4B22908   4.582  13.576   6.296  0.0869  0.2684 -0.1467
 1888POPC   NC322909   4.471  19.240   8.167  0.1466 -0.2942  0.3228
 1888POPC   PO422910   4.374  19.165   7.793  0.2492 -0.1743 -0.1386
 1888POPC   GL122911   4.166  19.146   7.354 -0.1849  0.4516 -0.0004
 1888POPC   GL222912   4.013  19.385   7.354  0.3619  0.1132 -0.0241
 1888POPC   C1A22913   4.292  19.179   6.905  0.1330 -0.1960 -0.1281
 1888POPC   D2A22914   4.371  19.550   6.636 -0.1305 -0.1990  0.0071
 1888POPC   C3A22915   4.523  19.992   6.619 -0.1142  0.0802  0.0470
 1888POPC   C4A22916   4.577  20.412   6.793  0.1573 -0.1641 -0.0830
 1888POPC   C1B22917   3.932  19.555   6.965 -0.2595  0.2344 -0.0197
 1888POPC   C2B22918   3.994  19.811   6.567  0.1360  0.0355 -0.3400
 1888POPC   C3B22919   3.941  20.133   6.222  0.0361 -0.1620  0.2444
 1888POPC   C4B22920   4.019  20.185   5.770 -0.0019 -0.0903  0.1952
 1889POPC   NC322921  10.962  11.985   7.788  0.1497 -0.2657 -0.0776
 1889POPC   PO422922  10.851  12.394   7.877 -0.0623 -0.0125  0.0181
 1889POPC   GL122923  11.070  12.463   7.501 -0.0700  0.3062 -0.1716
 1889POPC   GL222924  11.228  12.735   7.506  0.1315 -0.1111 -0.2453
 1889POPC   C1A22925  11.242  12.046   7.282  0.2761  0.1640  0.0018
 1889POPC   D2A22926  11.216  11.764   6.932  0.1104 -0.1306 -0.2857
 1889POPC   C3A22927  11.183  11.831   6.497  0.0888  0.0520  0.1504
 1889POPC   C4A22928  11.002  11.985   6.097 -0.0827 -0.0074 -0.0219
 1889POPC   C1B22929  11.165  12.982   7.144  0.0155  0.1136 -0.1105
 1889POPC   C2B22930  11.120  13.158   6.746 -0.0460  0.0244 -0.3622
 1889POPC   C3B22931  11.292  13.409   6.424 -0.0212  0.3884 -0.0467
 1889POPC   C4B22932  11.452  13.645   6.050 -0.0933  0.4371 -0.2673
 1890POPC   NC322933   0.936   7.423   7.601 -0.1830  0.0839 -0.0659
 1890POPC   PO422934   0.830   7.053   7.516 -0.1355 -0.4158  0.0660
 1890POPC   GL122935   0.853   7.203   7.152  0.0806 -0.3342 -0.1514
 1890POPC   GL222936   1.108   7.277   7.151 -0.5053 -0.1346  0.4766
 1890POPC   C1A22937   0.542   7.224   6.797  0.2605 -0.1201 -0.0682
 1890POPC   D2A22938   0.567   7.444   6.433  0.1019 -0.2015 -0.3281
 1890POPC   C3A22939   0.904   7.300   6.201 -0.3757  0.1623 -0.0243
 1890POPC   C4A22940   1.280   7.080   6.260 -0.2439 -0.0606 -0.1851
 1890POPC   C1B22941   1.097   7.353   6.736  0.0466  0.2266  0.1821
 1890POPC   C2B22942   1.239   7.660   6.418  0.1314  0.3051 -0.1486
 1890POPC   C3B22943   1.394   7.553   5.956 -0.1106 -0.0938  0.2563
 1890POPC   C4B22944   1.025   7.311   5.697 -0.0783  0.0195  0.0405
 1891POPC   NC322945   7.970   2.807   7.528  0.0159  0.3162  0.1352
 1891POPC   PO422946   8.259   3.020   7.659  0.0288 -0.0023 -0.2779
 1891POPC   GL122947   8.205   3.097   7.248  0.3428 -0.1427  0.0038
 1891POPC   GL222948   8.101   2.929   7.048 -0.2167  0.0753 -0.1403
 1891POPC   C1A22949   8.316   3.470   6.977  0.0686  0.2030  0.0705
 1891POPC   D2A22950   8.052   3.813   6.885 -0.0090  0.0555 -0.1426
 1891POPC   C3A22951   7.974   3.646   6.473 -0.2482 -0.3019 -0.2561
 1891POPC   C4A22952   8.349   3.610   6.120  0.0095 -0.0108  0.3799
 1891POPC   C1B22953   7.716   2.779   6.890 -0.0308  0.0959  0.2408
 1891POPC   C2B22954   7.490   2.879   6.474  0.0252  0.0107  0.2277
 1891POPC   C3B22955   7.219   2.994   6.114  0.0253  0.1619 -0.0084
 1891POPC   C4B22956   6.894   2.808   5.817 -0.1606  0.0265 -0.3233
 1892POPC   NC322957   1.260  23.502   8.131 -0.2203  0.1758  0.0575
 1892POPC   PO422958   1.051  23.646   7.823  0.2140 -0.1119 -0.2674
 1892POPC   GL122959   0.900  23.663   7.512  0.4855  0.0503  0.1056
 1892POPC   GL222960   1.155  23.491   7.406 -0.1029  0.2158  0.1615
 1892POPC   C1A22961   0.875  23.861   7.070 -0.0209  0.0931  0.0635
 1892POPC   D2A22962   0.890  24.334   6.871 -0.2486  0.1099 -0.1458
 1892POPC   C3A22963   0.908  24.328   6.403  0.0438 -0.0254  0.1889
 1892POPC   C4A22964   0.907  24.264   5.952  0.1214 -0.0923  0.0427
 1892POPC   C1B22965   0.931  23.366   6.958  0.3072  0.0815 -0.0817
 1892POPC   C2B22966   0.807  23.145   6.588 -0.1016 -0.0766 -0.1839
 1892POPC   C3B22967   0.739  22.919   6.201 -0.1067 -0.1092  0.2321
 1892POPC   C4B22968   1.047  22.819   5.873 -0.3417 -0.0376 -0.2671
 1893POPC   NC322969  12.951  17.610   7.385  0.0273 -0.1154  0.1657
 1893POPC   PO422970  12.630  17.708   7.621 -0.1977 -0.0404 -0.1484
 1893POPC   GL122971  12.472  17.654   7.276 -0.0051  0.0658 -0.0312
 1893POPC   GL222972  12.162  17.519   7.362 -0.0105 -0.0346  0.2086
 1893POPC   C1A22973  12.716  17.753   6.849 -0.2063 -0.3351  0.3269
 1893POPC   D2A22974  12.748  17.979   6.415  0.0013 -0.0304  0.1615
 1893POPC   C3A22975  12.975  18.262   6.064 -0.2318 -0.2245  0.0636
 1893POPC   C4A22976  13.317  18.128   5.770 -0.0713  0.1906 -0.2820
 1893POPC   C1B22977  12.293  17.431   6.925  0.1812  0.1173  0.0620
 1893POPC   C2B22978  12.479  17.528   6.522  0.1869 -0.2722 -0.1170
 1893POPC   C3B22979  12.312  17.428   6.135 -0.2948 -0.0612  0.4285
 1893POPC   C4B22980  12.195  17.274   5.771  0.2822  0.0039  0.0626
 1894POPC   NC322981   0.433  21.644   8.289  0.0189  0.1326  0.0461
 1894POPC   PO422982   0.415  21.257   8.363  0.1307 -0.5166 -0.0766
 1894POPC   GL122983   0.698  21.149   8.026  0.0258  0.2706 -0.2580
 1894POPC   GL222984   0.804  21.257   7.786  0.0841  0.1260  0.1442
 1894POPC   C1A22985   0.560  20.787   7.739  0.2688 -0.0406  0.1680
 1894POPC   D2A22986   0.318  20.589   7.382 -0.1927  0.2023  0.1232
 1894POPC   C3A22987   0.098  20.667   6.981 -0.1535 -0.1745 -0.1435
 1894POPC   C4A22988   0.270  20.792   6.575  0.2039 -0.2560  0.0868
 1894POPC   C1B22989   0.873  21.110   7.367  0.3130  0.0444 -0.1674
 1894POPC   C2B22990   0.767  20.693   7.146  0.1207 -0.0996  0.2333
 1894POPC   C3B22991   0.610  20.304   6.973  0.2940 -0.1166  0.2561
 1894POPC   C4B22992   0.279  19.920   6.954 -0.1420 -0.2619 -0.1451
 1895POPC   NC322993  15.344  10.871   7.856  0.1883 -0.0296 -0.0799
 1895POPC   PO422994  15.566  10.558   7.810  0.0407  0.2138  0.0795
 1895POPC   GL122995  15.498  10.608   7.511  0.2041  0.0396  0.3324
 1895POPC   GL222996  15.671  10.825   7.374 -0.1977  0.0757 -0.1708
 1895POPC   C1A22997  15.392  10.272   7.141 -0.0817 -0.0585 -0.1364
 1895POPC   D2A22998  15.394  10.172   6.674  0.0919  0.1193  0.2625
 1895POPC   C3A22999  15.100  10.206   6.226 -0.0020  0.0024  0.0286
 1895POPC   C4A23000  15.163  10.470   5.836  0.1106  0.1375 -0.0595
 1895POPC   C1B23001  15.846  11.130   7.050 -0.0936 -0.2948 -0.0784
 1895POPC   C2B23002  15.880  11.334   6.655 -0.0233  0.1154  0.2997
 1895POPC   C3B23003  15.681  11.296   6.226 -0.0408  0.0943 -0.0923
 1895POPC   C4B23004  15.587  11.242   5.768  0.0085  0.2109 -0.0303
 1896POPC   NC323005   0.950  29.686   8.279 -0.1314 -0.1528  0.3375
 1896POPC   PO423006   1.326  29.529   8.329  0.2751 -0.0551 -0.0654
 1896POPC   GL123007   1.392  29.798   8.044 -0.0333 -0.0647  0.0270
 1896POPC   GL223008   1.178  29.961   7.952 -0.0358 -0.0700 -0.5013
 1896POPC   C1A23009   1.749  30.024   7.871 -0.4054  0.0799 -0.0964
 1896POPC   D2A23010   1.888  30.464   7.917 -0.2298 -0.0762 -0.0745
 1896POPC   C3A23011   1.973  30.785   8.244 -0.0711 -0.1205 -0.0752
 1896POPC   C4A23012   2.289  30.926   8.486  0.0650  0.5094 -0.3080
 1896POPC   C1B23013   1.402  29.744   7.606 -0.0224 -0.1231  0.3995
 1896POPC   C2B23014   1.827  29.605   7.493 -0.2104 -0.5764 -0.0119
 1896POPC   C3B23015   2.133  29.655   7.127  0.2837  0.2790 -0.1177
 1896POPC   C4B23016   2.467  29.407   6.885  0.1457  0.1005  0.0360
 1897POPC   NC323017   1.990  27.077   7.570 -0.1793 -0.0046  0.1675
 1897POPC   PO423018   2.226  26.766   7.513 -0.0739  0.5329  0.2088
 1897POPC   GL123019   2.367  26.679   7.198  0.3966  0.0940  0.0289
 1897POPC   GL223020   2.491  26.427   7.137  0.0779  0.2564  0.0384
 1897POPC   C1A23021   2.677  26.832   6.908 -0.2170 -0.1739  0.1142
 1897POPC   D2A23022   2.806  26.891   6.459 -0.1004 -0.3276  0.1547
 1897POPC   C3A23023   2.630  26.882   6.032  0.0982  0.1575  0.1641
 1897POPC   C4A23024   2.416  27.135   5.725 -0.1613  0.0375 -0.1107
 1897POPC   C1B23025   2.512  26.388   6.723 -0.2603  0.0994 -0.0263
 1897POPC   C2B23026   2.610  26.389   6.256  0.0268 -0.0521 -0.0480
 1897POPC   C3B23027   2.807  26.266   5.844  0.1941  0.3605  0.2359
 1897POPC   C4B23028   2.700  26.344   5.384  0.0765  0.5238  0.0374
 1898POPC   NC323029  11.160  27.172   8.207  0.0942 -0.0583  0.1483
 1898POPC   PO423030  11.218  26.820   8.140  0.0110  0.1982 -0.0321
 1898POPC   GL123031  11.006  26.843   7.934 -0.2524  0.4394  0.2670
 1898POPC   GL223032  11.149  26.984   7.701  0.0754 -0.4751 -0.2519
 1898POPC   C1A23033  10.579  26.876   7.668 -0.0917  0.3982 -0.1060
 1898POPC   D2A23034  10.552  26.959   7.246 -0.2666  0.0738 -0.0671
 1898POPC   C3A23035  10.183  27.231   7.187 -0.1995  0.2474  0.0467
 1898POPC   C4A23036   9.791  27.373   7.309  0.1485 -0.2687  0.0499
 1898POPC   C1B23037  11.051  27.013   7.264 -0.0314  0.2676  0.0750
 1898POPC   C2B23038  10.822  27.056   6.886 -0.2775  0.1431 -0.0597
 1898POPC   C3B23039  11.001  26.925   6.492 -0.1998  0.0866  0.5554
 1898POPC   C4B23040  11.041  27.126   6.036  0.1837  0.1548 -0.3807
 1899POPC   NC323041   1.195  16.182   8.906 -0.1435  0.0873  0.0435
 1899POPC   PO423042   1.254  16.419   8.591 -0.0709 -0.1136 -0.1116
 1899POPC   GL123043   1.278  16.702   8.328 -0.0559  0.5124 -0.0396
 1899POPC   GL223044   1.636  16.781   8.368 -0.0327  0.1526  0.0043
 1899POPC   C1A23045   1.025  17.083   8.242 -0.1616  0.3378 -0.3952
 1899POPC   D2A23046   0.726  17.399   8.230  0.1750  0.3213 -0.2167
 1899POPC   C3A23047   0.999  17.664   8.411 -0.0358 -0.2459 -0.1271
 1899POPC   C4A23048   1.320  17.940   8.496 -0.1110  0.1065 -0.3077
 1899POPC   C1B23049   1.479  17.024   7.999 -0.3453 -0.0182  0.1641
 1899POPC   C2B23050   1.247  17.254   7.681 -0.4260 -0.0009 -0.2998
 1899POPC   C3B23051   1.190  17.577   7.475 -0.3714 -0.0729 -0.3368
 1899POPC   C4B23052   1.004  18.017   7.538 -0.0531 -0.0186  0.0382
 1900POPC   NC323053   1.912   3.319   7.619  0.2313 -0.2197  0.1110
 1900POPC   PO423054   2.070   2.965   7.617  0.0715  0.0893  0.2463
 1900POPC   GL123055   2.243   3.275   7.333  0.2402 -0.2784  0.1307
 1900POPC   GL223056   2.478   3.289   7.430 -0.0756 -0.1582  0.2101
 1900POPC   C1A23057   2.423   3.676   7.098 -0.1372 -0.1063  0.0948
 1900POPC   D2A23058   2.681   3.956   6.820  0.0669  0.3012  0.1852
 1900POPC   C3A23059   2.781   3.961   6.363 -0.0338 -0.2802 -0.1923
 1900POPC   C4A23060   2.558   4.150   6.019  0.2012 -0.2032  0.1016
 1900POPC   C1B23061   2.605   3.155   6.983  0.1813 -0.0168 -0.0649
 1900POPC   C2B23062   2.651   3.356   6.559  0.1656  0.0276 -0.4949
 1900POPC   C3B23063   2.544   3.121   6.150 -0.0101 -0.2064  0.0194
 1900POPC   C4B23064   2.229   3.382   5.824 -0.2937 -0.0114  0.2593
 1901POPC   NC323065   8.991   4.075   7.351 -0.1456 -0.1759  0.2352
 1901POPC   PO423066   8.718   4.333   7.504  0.3032 -0.1768 -0.0918
 1901POPC   GL123067   8.787   4.447   7.172  0.0269 -0.0299 -0.3251
 1901POPC   GL223068   9.031   4.618   7.162  0.0852  0.4599  0.3771
 1901POPC   C1A23069   8.969   4.253   6.762 -0.1299 -0.3933  0.1012
 1901POPC   D2A23070   9.380   4.081   6.565  0.0291 -0.1460 -0.0956
 1901POPC   C3A23071   9.222   4.119   6.147  0.1763 -0.1454 -0.0208
 1901POPC   C4A23072   8.965   4.201   5.708 -0.2846 -0.0513  0.0637
 1901POPC   C1B23073   8.886   4.746   6.748 -0.0241  0.0047 -0.1756
 1901POPC   C2B23074   8.643   4.760   6.402  0.3758 -0.1879  0.2553
 1901POPC   C3B23075   8.520   5.048   6.020  0.0464  0.0324 -0.1237
 1901POPC   C4B23076   8.437   5.429   5.776  0.0217  0.1467  0.2845
 1902POPC   NC323077   3.882   1.009   7.696 -0.0900 -0.3752 -0.1083
 1902POPC   PO423078   3.882   1.374   7.880  0.2618  0.1875 -0.0513
 1902POPC   GL123079   3.930   1.493   7.525 -0.2033 -0.1350  0.0475
 1902POPC   GL223080   4.189   1.687   7.577  0.2434 -0.1925  0.2514
 1902POPC   C1A23081   4.054   1.142   7.225  0.1106  0.3488 -0.1340
 1902POPC   D2A23082   3.964   0.754   7.192 -0.0109 -0.4458  0.0790
 1902POPC   C3A23083   3.771   0.596   6.864 -0.1887  0.0264 -0.1413
 1902POPC   C4A23084   3.375   0.690   6.659 -0.4508  0.1243 -0.2314
 1902POPC   C1B23085   4.154   1.657   7.111 -0.1041 -0.0114  0.1267
 1902POPC   C2B23086   4.056   1.491   6.743 -0.0825 -0.0005 -0.0667
 1902POPC   C3B23087   3.870   1.501   6.289  0.4354 -0.1978 -0.2178
 1902POPC   C4B23088   3.950   1.209   5.926  0.0517 -0.3950 -0.0842
 1903POPC   NC323089   3.011   6.190   7.772 -0.2707 -0.1345  0.2079
 1903POPC   PO423090   3.197   5.888   7.579 -0.2710 -0.0460  0.0813
 1903POPC   GL123091   3.076   6.037   7.229 -0.1040 -0.0026  0.2864
 1903POPC   GL223092   2.930   6.253   7.214  0.2251  0.1144 -0.0264
 1903POPC   C1A23093   3.390   5.907   6.858 -0.0789  0.0048 -0.0952
 1903POPC   D2A23094   3.565   5.993   6.424  0.0059 -0.0978  0.1675
 1903POPC   C3A23095   3.471   5.703   6.105  0.1123  0.0544 -0.1955
 1903POPC   C4A23096   3.123   5.362   6.008 -0.0777 -0.0613 -0.1587
 1903POPC   C1B23097   3.001   6.254   6.777  0.0696 -0.1575  0.2385
 1903POPC   C2B23098   3.008   6.255   6.333  0.0417 -0.0981  0.0872
 1903POPC   C3B23099   3.317   6.166   5.954 -0.0859 -0.0555 -0.0719
 1903POPC   C4B23100   3.773   6.106   5.945 -0.2183  0.1002  0.2567
 1904POPC   NC323101  15.530  17.603   8.355 -0.0856  0.1046 -0.0639
 1904POPC   PO423102  15.193  17.588   8.113  0.0369 -0.2264 -0.3467
 1904POPC   GL123103  15.400  17.677   7.748 -0.0688 -0.1523 -0.0672
 1904POPC   GL223104  15.662  17.726   7.810 -0.0024  0.3125 -0.1933
 1904POPC   C1A23105  15.448  17.777   7.310  0.1167  0.0025  0.0289
 1904POPC   D2A23106  15.709  17.520   6.995  0.1238  0.1117 -0.4808
 1904POPC   C3A23107  15.576  17.493   6.539 -0.2328 -0.2806  0.0514
 1904POPC   C4A23108  15.634  17.807   6.183  0.2045  0.1919 -0.1140
 1904POPC   C1B23109  15.945  17.961   7.584 -0.0741 -0.1932 -0.4125
 1904POPC   C2B23110  15.957  18.127   7.126  0.2667  0.1279  0.0784
 1904POPC   C3B23111  15.921  18.315   6.737  0.1902 -0.0866  0.3384
 1904POPC   C4B23112  15.835  18.307   6.253  0.0244 -0.1332 -0.0632
 1905POPC   NC323113  12.217  18.832   7.642  0.5146  0.0076 -0.1004
 1905POPC   PO423114  11.865  19.071   7.623 -0.1083 -0.0726 -0.0399
 1905POPC   GL123115  11.784  18.977   7.263 -0.2599  0.0733 -0.5655
 1905POPC   GL223116  12.058  18.824   7.170  0.0072 -0.0998  0.0626
 1905POPC   C1A23117  11.445  19.025   7.000  0.2807 -0.0538  0.0538
 1905POPC   D2A23118  11.443  18.880   6.542 -0.1452 -0.1965  0.0684
 1905POPC   C3A23119  11.297  18.719   6.099 -0.0426 -0.2020  0.0730
 1905POPC   C4A23120  11.110  18.639   5.697  0.4411  0.0956  0.0130
 1905POPC   C1B23121  11.998  19.192   6.893 -0.2358 -0.2488 -0.0225
 1905POPC   C2B23122  11.968  19.375   6.462 -0.2684 -0.0391 -0.0395
 1905POPC   C3B23123  11.897  19.616   6.051  0.0526  0.0672  0.4675
 1905POPC   C4B23124  11.850  19.840   5.672 -0.1979 -0.2839  0.1220
 1906POPC   NC323125   6.107  18.900   8.132 -0.0709  0.1156 -0.1729
 1906POPC   PO423126   6.087  19.273   7.988 -0.1544 -0.1758  0.0110
 1906POPC   GL123127   6.048  19.259   7.577  0.1888 -0.3104 -0.1233
 1906POPC   GL223128   5.823  19.413   7.429  0.0229 -0.0755  0.2401
 1906POPC   C1A23129   6.210  19.194   7.176 -0.3597  0.1128  0.0407
 1906POPC   D2A23130   6.126  19.252   6.738  0.1960  0.1379 -0.2151
 1906POPC   C3A23131   6.123  19.712   6.558  0.1391  0.0220  0.1436
 1906POPC   C4A23132   6.123  19.999   6.198  0.0790 -0.1634  0.2369
 1906POPC   C1B23133   5.911  19.684   7.042  0.1494  0.1606  0.2536
 1906POPC   C2B23134   5.773  19.991   6.752 -0.0040  0.0303 -0.1026
 1906POPC   C3B23135   5.427  20.250   6.711  0.0588 -0.0279  0.1104
 1906POPC   C4B23136   5.076  20.514   6.892 -0.2088 -0.0522 -0.1977
 1907POPC   NC323137   7.750  24.204   7.406 -0.2648  0.0323  0.2535
 1907POPC   PO423138   7.726  24.369   7.778  0.1370  0.1879  0.0242
 1907POPC   GL123139   7.352  24.411   7.682 -0.0343 -0.3211 -0.0360
 1907POPC   GL223140   7.199  24.242   7.452 -0.2979 -0.1028 -0.0998
 1907POPC   C1A23141   7.106  24.769   7.463 -0.3515 -0.0117 -0.2441
 1907POPC   D2A23142   7.240  25.115   7.149 -0.1141 -0.2390 -0.2645
 1907POPC   C3A23143   7.104  25.544   6.997 -0.1848  0.1869 -0.3669
 1907POPC   C4A23144   7.019  25.643   6.580 -0.5757 -0.0103  0.1180
 1907POPC   C1B23145   7.053  24.218   7.033 -0.0194 -0.3485  0.0412
 1907POPC   C2B23146   7.208  24.291   6.548  0.2616 -0.0876  0.0006
 1907POPC   C3B23147   7.623  24.474   6.469 -0.2914 -0.1671 -0.0645
 1907POPC   C4B23148   7.804  24.627   6.110  0.0545 -0.0819  0.1140
 1908POPC   NC323149   5.874   0.291   7.837 -0.3576 -0.1438 -0.0845
 1908POPC   PO423150   5.758   0.332   7.462  0.1721 -0.1207  0.1713
 1908POPC   GL123151   5.693   0.284   7.178  0.0410 -0.2964  0.3068
 1908POPC   GL223152   5.712   0.043   6.975 -0.1727 -0.2786  0.1872
 1908POPC   C1A23153   5.755   0.502   6.753 -0.1988 -0.2403  0.0153
 1908POPC   D2A23154   5.770   0.580   6.287 -0.0794 -0.0015  0.1565
 1908POPC   C3A23155   6.069   0.353   5.987  0.2158  0.2495 -0.0620
 1908POPC   C4A23156   6.534   0.332   5.795  0.1619  0.2494  0.0879
 1908POPC   C1B23157   5.621   0.087   6.543  0.1903  0.1086 -0.0664
 1908POPC   C2B23158   5.619   0.111   6.074 -0.1196  0.0815 -0.2367
 1908POPC   C3B23159   5.535  -0.089   5.684  0.3300  0.0615  0.0407
 1908POPC   C4B23160   5.623  -0.366   5.369 -0.0280 -0.0620  0.1945
 1909POPC   NC323161  13.390  25.507   7.482  0.2123 -0.0620  0.1511
 1909POPC   PO423162  13.528  25.227   7.680 -0.0962 -0.0408  0.2094
 1909POPC   GL123163  13.678  24.988   7.436  0.1618 -0.1927  0.6257
 1909POPC   GL223164  13.926  24.954   7.344  0.3967 -0.2301  0.1743
 1909POPC   C1A23165  13.551  24.870   6.968 -0.2446  0.3083 -0.0147
 1909POPC   D2A23166  13.417  24.617   6.610  0.1246  0.1127 -0.1676
 1909POPC   C3A23167  13.388  25.033   6.488  0.1777  0.3287  0.2074
 1909POPC   C4A23168  13.616  25.235   6.192 -0.3131 -0.1668 -0.3822
 1909POPC   C1B23169  14.023  24.995   6.931 -0.1461  0.0593 -0.0160
 1909POPC   C2B23170  14.293  25.002   6.627 -0.1169  0.3533 -0.2555
 1909POPC   C3B23171  14.136  25.184   6.185 -0.0505 -0.1025 -0.2708
 1909POPC   C4B23172  14.154  25.523   5.849 -0.0167  0.0648 -0.2648
 1910POPC   NC323173  14.600   2.668   8.496  0.1113  0.0984  0.0228
 1910POPC   PO423174  14.483   3.058   8.464 -0.2036 -0.3456 -0.0831
 1910POPC   GL123175  14.433   3.159   8.086  0.0078 -0.2853  0.0876
 1910POPC   GL223176  14.319   2.940   7.972 -0.5455  0.1102  0.4228
 1910POPC   C1A23177  14.616   3.222   7.650 -0.1466  0.0369 -0.1223
 1910POPC   D2A23178  14.879   3.342   7.223  0.3050 -0.1088 -0.2347
 1910POPC   C3A23179  14.564   3.469   6.926  0.2559  0.0622 -0.2981
 1910POPC   C4A23180  14.240   3.817   6.857  0.1660 -0.0733 -0.0882
 1910POPC   C1B23181  14.178   2.936   7.569 -0.0998  0.0354  0.2100
 1910POPC   C2B23182  14.124   3.151   7.140  0.0270  0.1737 -0.1554
 1910POPC   C3B23183  14.077   3.338   6.739 -0.1514 -0.2090 -0.1572
 1910POPC   C4B23184  13.765   3.678   6.636 -0.1406 -0.0735 -0.1784
 1911POPC   NC323185   6.592  17.266   7.905  0.1042  0.2013 -0.0277
 1911POPC   PO423186   6.905  17.181   7.672  0.2340 -0.5125 -0.3052
 1911POPC   GL123187   7.235  17.149   7.526  0.0304 -0.3998 -0.0904
 1911POPC   GL223188   7.325  16.911   7.467 -0.1770  0.2142 -0.0534
 1911POPC   C1A23189   7.395  17.450   7.202 -0.2333  0.0767 -0.0879
 1911POPC   D2A23190   7.738  17.366   6.895 -0.0240 -0.0542 -0.1307
 1911POPC   C3A23191   8.091  17.629   6.722  0.0421  0.1032 -0.0495
 1911POPC   C4A23192   8.303  17.906   6.434 -0.0983  0.0534 -0.2185
 1911POPC   C1B23193   7.305  16.948   7.032  0.0801  0.0214  0.1093
 1911POPC   C2B23194   7.309  16.877   6.642  0.0978 -0.2208  0.1986
 1911POPC   C3B23195   7.223  17.094   6.214  0.0034 -0.1583 -0.1506
 1911POPC   C4B23196   7.098  17.322   5.824 -0.0179 -0.0022 -0.4079
 1912POPC   NC323197   0.924  10.178   7.956  0.1490  0.0955  0.1885
 1912POPC   PO423198   0.859  10.125   7.533 -0.1351 -0.2389  0.0122
 1912POPC   GL123199   0.878   9.912   7.194 -0.0503  0.1404  0.3049
 1912POPC   GL223200   1.091   9.753   7.139  0.4779  0.0476  0.1220
 1912POPC   C1A23201   0.764   9.743   6.806 -0.1387  0.0723 -0.1496
 1912POPC   D2A23202   1.054   9.525   6.484  0.2820 -0.1227 -0.0603
 1912POPC   C3A23203   1.208   9.081   6.479  0.0439 -0.0107 -0.1078
 1912POPC   C4A23204   1.325   8.661   6.564  0.1326  0.0176  0.0051
 1912POPC   C1B23205   1.053   9.289   7.049 -0.0220  0.0733 -0.0462
 1912POPC   C2B23206   0.995   8.890   6.859  0.4588 -0.1274 -0.0772
 1912POPC   C3B23207   1.082   8.493   7.062  0.1592 -0.0509 -0.2688
 1912POPC   C4B23208   1.008   8.047   7.193  0.1427 -0.1207  0.3559
 1913POPC   NC323209   8.944  26.657   7.779 -0.0509 -0.0873 -0.1680
 1913POPC   PO423210   8.621  26.536   8.041  0.0545  0.2301  0.0821
 1913POPC   GL123211   8.583  26.341   7.718  0.2536  0.1556 -0.3886
 1913POPC   GL223212   8.306  26.273   7.505 -0.2339  0.0712  0.1076
 1913POPC   C1A23213   8.735  26.413   7.284  0.1780  0.1391 -0.2715
 1913POPC   D2A23214   8.468  26.399   6.902  0.1400  0.1214  0.2432
 1913POPC   C3A23215   8.373  26.429   6.461  0.2622  0.0539 -0.0439
 1913POPC   C4A23216   8.401  26.300   6.031 -0.1925 -0.1763 -0.0818
 1913POPC   C1B23217   7.992  26.316   7.167 -0.1530 -0.1010  0.0479
 1913POPC   C2B23218   7.906  26.423   6.724  0.3044  0.0354 -0.3233
 1913POPC   C3B23219   7.939  26.332   6.252  0.3728  0.0219 -0.1988
 1913POPC   C4B23220   7.907  26.233   5.807 -0.0740  0.1911  0.1907
 1914POPC   NC323221   0.967  10.610   7.608 -0.4608  0.1842 -0.0953
 1914POPC   PO423222   1.299  10.374   7.640  0.3119 -0.0481  0.2027
 1914POPC   GL123223   1.218  10.199   7.266 -0.0017 -0.0092  0.3871
 1914POPC   GL223224   1.497  10.076   7.268  0.0834  0.3411  0.2632
 1914POPC   C1A23225   1.052  10.223   6.809  0.2711 -0.0392 -0.0001
 1914POPC   D2A23226   0.931  10.172   6.358 -0.1204 -0.0503  0.2785
 1914POPC   C3A23227   1.183   9.841   6.041 -0.2325  0.0449 -0.0011
 1914POPC   C4A23228   1.181   9.402   6.011 -0.3145 -0.4041  0.3012
 1914POPC   C1B23229   1.831   9.873   7.046  0.1116  0.1530 -0.0425
 1914POPC   C2B23230   1.919   9.838   6.554  0.0100  0.1257  0.1823
 1914POPC   C3B23231   2.109   9.988   6.182  0.1850 -0.2923  0.4035
 1914POPC   C4B23232   1.970  10.160   5.737 -0.1930 -0.0087  0.0532
 1915POPC   NC323233   0.232  10.504   7.955 -0.2001 -0.1203 -0.0902
 1915POPC   PO423234   0.508  10.509   7.641 -0.0304 -0.1287 -0.2383
 1915POPC   GL123235   0.459  10.417   7.281  0.4070 -0.3702  0.0574
 1915POPC   GL223236   0.430  10.147   7.257  0.0526 -0.0108 -0.0164
 1915POPC   C1A23237   0.240  10.527   6.889 -0.2895  0.0846  0.0372
 1915POPC   D2A23238  -0.207  10.583   6.838  0.0814  0.0343  0.1280
 1915POPC   C3A23239  -0.388  10.954   6.630 -0.0999  0.0053 -0.0296
 1915POPC   C4A23240  -0.516  11.411   6.635 -0.0092 -0.2727 -0.1267
 1915POPC   C1B23241   0.459  10.113   6.765  0.1520  0.2185 -0.1759
 1915POPC   C2B23242   0.462  10.193   6.316  0.1623  0.0787  0.0627
 1915POPC   C3B23243   0.289  10.515   5.997  0.1003 -0.2078 -0.0235
 1915POPC   C4B23244   0.137  10.956   5.908 -0.3924  0.2863  0.0451
 1916POPC   NC323245  12.774  31.158   8.126  0.2579  0.1300  0.5239
 1916POPC   PO423246  12.968  30.838   7.992  0.0760  0.1066 -0.0793
 1916POPC   GL123247  13.068  30.961   7.564  0.1046 -0.2200  0.0159
 1916POPC   GL223248  12.927  31.178   7.625 -0.1385 -0.0853 -0.1695
 1916POPC   C1A23249  13.142  30.695   7.192 -0.0887  0.1038  0.1124
 1916POPC   D2A23250  13.205  30.398   6.849  0.1415 -0.3615 -0.3731
 1916POPC   C3A23251  13.418  30.483   6.387  0.1099  0.0852  0.2050
 1916POPC   C4A23252  13.499  30.888   6.142  0.1968 -0.1362  0.3133
 1916POPC   C1B23253  12.627  31.541   7.621 -0.1427  0.0994 -0.0787
 1916POPC   C2B23254  12.177  31.527   7.522 -0.1109  0.0851  0.1600
 1916POPC   C3B23255  12.077  31.715   7.135  0.1597  0.2182 -0.0495
 1916POPC   C4B23256  12.147  31.891   6.749 -0.3754 -0.1336 -0.0151
 1917POPC   NC323257  13.839  31.389   7.683 -0.3780  0.1143 -0.0107
 1917POPC   PO423258  13.885  31.012   7.812  0.0497  0.1343  0.1498
 1917POPC   GL123259  13.859  30.995   7.406  0.1537  0.0799 -0.0989
 1917POPC   GL223260  14.088  31.069   7.296  0.2494  0.0648 -0.1689
 1917POPC   C1A23261  13.649  30.932   6.961  0.3657  0.1158 -0.0278
 1917POPC   D2A23262  13.359  30.925   6.614  0.1120  0.2215  0.3120
 1917POPC   C3A23263  13.025  31.127   6.346 -0.0039 -0.1781 -0.0255
 1917POPC   C4A23264  12.694  31.404   6.139 -0.1439 -0.2839  0.1236
 1917POPC   C1B23265  13.868  31.373   7.049  0.1717  0.0195  0.3915
 1917POPC   C2B23266  13.486  31.388   6.816  0.2570 -0.1674  0.1713
 1917POPC   C3B23267  13.267  31.545   6.422 -0.5065 -0.2139 -0.0418
 1917POPC   C4B23268  13.311  31.981   6.163  0.0260  0.0200  0.0311
 1918POPC   NC323269  13.764  13.645   7.640  0.1303  0.0978  0.0336
 1918POPC   PO423270  13.488  13.358   7.686 -0.0370 -0.1657  0.2033
 1918POPC   GL123271  13.500  13.373   7.260 -0.1703 -0.1441 -0.2499
 1918POPC   GL223272  13.383  13.632   7.228 -0.1437  0.2406 -0.2372
 1918POPC   C1A23273  13.337  13.097   6.993 -0.1084  0.1032 -0.1206
 1918POPC   D2A23274  13.172  13.150   6.562  0.1596  0.1041 -0.0876
 1918POPC   C3A23275  12.897  12.892   6.291  0.3719 -0.1335  0.0689
 1918POPC   C4A23276  13.188  12.659   5.984 -0.1094 -0.0387  0.1850
 1918POPC   C1B23277  13.514  13.687   6.814  0.1983  0.0863  0.0735
 1918POPC   C2B23278  13.382  13.958   6.456  0.1766  0.0622  0.1295
 1918POPC   C3B23279  13.366  14.276   6.159  0.1575  0.3223  0.2685
 1918POPC   C4B23280  13.461  14.638   5.854 -0.2195  0.1622 -0.0551
 1919POPC   NC323281  12.985  20.454   7.185  0.3238 -0.0022 -0.0034
 1919POPC   PO423282  12.705  20.202   7.339  0.0958  0.1112 -0.1302
 1919POPC   GL123283  12.607  20.211   6.978  0.0923 -0.0770 -0.0518
 1919POPC   GL223284  12.472  19.944   6.875 -0.0009  0.1747  0.1225
 1919POPC   C1A23285  12.986  20.176   6.733  0.0321  0.3660  0.0434
 1919POPC   D2A23286  13.391  20.010   6.460 -0.1275  0.0510  0.0384
 1919POPC   C3A23287  13.597  20.190   6.130  0.0419  0.1695  0.1156
 1919POPC   C4A23288  13.582  20.436   5.768  0.0624  0.1593 -0.3303
 1919POPC   C1B23289  12.478  20.239   6.454 -0.2728 -0.0388 -0.0508
 1919POPC   C2B23290  12.593  20.319   6.006  0.1749 -0.0032 -0.0520
 1919POPC   C3B23291  12.285  20.613   5.751 -0.0211 -0.1834  0.2765
 1919POPC   C4B23292  12.002  20.989   5.768 -0.0314  0.0162  0.2042
 1920POPC   NC323293   2.757   5.726   7.836 -0.0616 -0.0983 -0.1564
 1920POPC   PO423294   2.688   5.405   7.632 -0.0585 -0.1532  0.0562
 1920POPC   GL123295   2.805   5.660   7.379  0.1295 -0.1340  0.0835
 1920POPC   GL223296   2.594   5.874   7.359  0.1886  0.0598  0.3628
 1920POPC   C1A23297   2.971   5.603   6.936  0.0962 -0.1082  0.1684
 1920POPC   D2A23298   3.071   5.782   6.551  0.0415  0.0128 -0.0440
 1920POPC   C3A23299   2.972   5.803   6.124  0.1683 -0.1167  0.0589
 1920POPC   C4A23300   3.071   5.769   5.687 -0.1405 -0.1964  0.0454
 1920POPC   C1B23301   2.565   5.895   6.919 -0.3969  0.1199 -0.0330
 1920POPC   C2B23302   2.483   5.752   6.504  0.3387 -0.0381 -0.2300
 1920POPC   C3B23303   2.513   5.511   6.123  0.0305 -0.1881 -0.0224
 1920POPC   C4B23304   2.614   5.383   5.752 -0.0426  0.2652  0.2640
 1921POPC   NC323305   7.193  27.981   7.823  0.3736 -0.4159  0.1071
 1921POPC   PO423306   7.467  27.797   8.024  0.2610  0.1208  0.0459
 1921POPC   GL123307   7.470  27.751   7.589 -0.0295 -0.0043  0.4342
 1921POPC   GL223308   7.520  27.517   7.291 -0.1145  0.1069 -0.4421
 1921POPC   C1A23309   7.133  27.838   7.225 -0.2539  0.1503  0.2615
 1921POPC   D2A23310   6.945  27.797   6.832  0.1286 -0.0143 -0.3125
 1921POPC   C3A23311   6.910  28.069   6.490 -0.1529 -0.1756  0.0807
 1921POPC   C4A23312   6.935  28.197   6.037 -0.2352 -0.0025  0.0023
 1921POPC   C1B23313   7.429  27.611   6.826 -0.0702 -0.3864  0.3356
 1921POPC   C2B23314   7.331  27.850   6.472  0.0831 -0.0400  0.2264
 1921POPC   C3B23315   7.409  28.268   6.288 -0.0982  0.0221  0.3587
 1921POPC   C4B23316   7.335  28.719   6.195  0.4105  0.0035 -0.0319
 1922POPC   NC323317   1.302  11.483   8.056 -0.1343 -0.0511 -0.2046
 1922POPC   PO423318   1.192  11.288   7.762  0.0126 -0.0340  0.1713
 1922POPC   GL123319   1.142  11.109   7.449 -0.3166 -0.2234  0.1970
 1922POPC   GL223320   0.914  11.225   7.276 -0.0692 -0.0046 -0.2662
 1922POPC   C1A23321   1.288  10.828   7.139  0.2766 -0.1415  0.0968
 1922POPC   D2A23322   1.233  10.759   6.669 -0.2915 -0.0498 -0.1688
 1922POPC   C3A23323   1.337  10.438   6.342 -0.0479  0.1035 -0.1813
 1922POPC   C4A23324   1.614  10.097   6.206 -0.1184  0.1214  0.2026
 1922POPC   C1B23325   0.954  11.138   6.799 -0.0542 -0.1500  0.1056
 1922POPC   C2B23326   0.999  11.111   6.356  0.1736 -0.3479 -0.0712
 1922POPC   C3B23327   1.108  11.201   5.867 -0.1039 -0.1172  0.0992
 1922POPC   C4B23328   1.302  11.341   5.477  0.0036 -0.2108 -0.0014
 1923POPC   NC323329   6.744   5.385   7.490 -0.2353 -0.0287  0.0152
 1923POPC   PO423330   6.809   5.177   7.798 -0.1008  0.0870  0.0335
 1923POPC   GL123331   6.593   4.888   7.498  0.2661 -0.1061  0.2278
 1923POPC   GL223332   6.354   5.098   7.395  0.2489  0.0614  0.2258
 1923POPC   C1A23333   6.421   4.536   7.185 -0.1874 -0.1718 -0.2394
 1923POPC   D2A23334   6.454   4.300   6.785 -0.0568 -0.2000 -0.1733
 1923POPC   C3A23335   6.614   3.950   6.538  0.3828 -0.1565 -0.1212
 1923POPC   C4A23336   6.693   3.773   6.119  0.0864  0.1732 -0.2592
 1923POPC   C1B23337   6.107   4.977   7.040  0.1609 -0.2062 -0.1458
 1923POPC   C2B23338   5.821   4.762   6.761  0.0586  0.0571  0.1386
 1923POPC   C3B23339   5.637   4.458   6.471 -0.2078 -0.2341  0.0614
 1923POPC   C4B23340   5.676   4.151   6.166 -0.1756  0.3505  0.1464
 1924POPC   NC323341   6.595  12.722   7.655 -0.0946  0.0819 -0.1146
 1924POPC   PO423342   6.555  12.380   7.834 -0.2134  0.0894 -0.1934
 1924POPC   GL123343   6.615  12.222   7.468 -0.1830  0.1253  0.0083
 1924POPC   GL223344   6.826  12.347   7.367 -0.0882 -0.0170  0.0900
 1924POPC   C1A23345   6.747  11.960   7.100  0.2586 -0.0755 -0.0902
 1924POPC   D2A23346   6.891  11.940   6.640 -0.1701 -0.6371  0.0865
 1924POPC   C3A23347   7.126  12.166   6.309 -0.1712  0.2830  0.0491
 1924POPC   C4A23348   7.349  12.092   5.892 -0.5204  0.1620 -0.2850
 1924POPC   C1B23349   6.554  12.487   7.039 -0.2910  0.2648 -0.0313
 1924POPC   C2B23350   6.428  12.642   6.626  0.0698  0.0900  0.1595
 1924POPC   C3B23351   6.512  12.704   6.159 -0.2918  0.0571 -0.0899
 1924POPC   C4B23352   6.551  12.793   5.747  0.2918  0.0749 -0.2318
 1925POPC   NC323353   1.518  28.297   7.582 -0.0489  0.0104 -0.1403
 1925POPC   PO423354   1.711  28.044   7.828 -0.0227  0.2177 -0.0642
 1925POPC   GL123355   1.985  28.038   7.495  0.2978 -0.1129 -0.0647
 1925POPC   GL223356   1.790  27.853   7.271  0.0162  0.1666  0.1162
 1925POPC   C1A23357   1.889  28.355   7.177 -0.0691 -0.0770 -0.1452
 1925POPC   D2A23358   1.761  28.603   6.769  0.0633  0.1753  0.0564
 1925POPC   C3A23359   2.013  28.786   6.401  0.2020 -0.0082 -0.1956
 1925POPC   C4A23360   2.173  28.924   6.017  0.2673 -0.1745  0.0450
 1925POPC   C1B23361   1.782  27.989   6.847 -0.0071 -0.1326  0.1728
 1925POPC   C2B23362   1.908  28.145   6.424  0.1531 -0.1648 -0.1299
 1925POPC   C3B23363   2.008  28.347   6.008 -0.0345 -0.0413  0.0266
 1925POPC   C4B23364   1.887  28.277   5.577  0.0396 -0.0650 -0.0098
 1926POPC   NC323365  14.539  24.184   8.197  0.4222 -0.0729  0.0554
 1926POPC   PO423366  14.178  24.242   8.068 -0.0663 -0.2334 -0.0893
 1926POPC   GL123367  13.947  24.554   7.768 -0.1775  0.4455  0.0285
 1926POPC   GL223368  14.182  24.655   7.696 -0.0264 -0.0279 -0.1290
 1926POPC   C1A23369  14.081  24.424   7.304  0.0577 -0.0592 -0.0915
 1926POPC   D2A23370  13.931  24.471   6.894  0.2485  0.0277  0.3227
 1926POPC   C3A23371  13.874  24.760   6.487 -0.3641  0.1508 -0.0008
 1926POPC   C4A23372  13.639  24.755   6.079 -0.0528 -0.0743  0.5762
 1926POPC   C1B23373  14.484  24.730   7.340  0.1201 -0.0487  0.0399
 1926POPC   C2B23374  14.718  24.843   6.896 -0.2956 -0.5168  0.2113
 1926POPC   C3B23375  14.685  24.858   6.425  0.2780 -0.0047  0.2226
 1926POPC   C4B23376  14.642  24.991   6.029 -0.0364 -0.1272 -0.0229
 1927POPC   NC323377   8.824   5.605   7.610 -0.0417  0.1742  0.2584
 1927POPC   PO423378   8.682   5.650   7.251  0.1000 -0.0710 -0.5080
 1927POPC   GL123379   8.407   5.516   7.070 -0.2993  0.1081  0.2391
 1927POPC   GL223380   8.092   5.618   7.085  0.1184  0.2854  0.2353
 1927POPC   C1A23381   8.420   5.770   6.650  0.2324  0.1490 -0.1515
 1927POPC   D2A23382   8.275   6.167   6.472 -0.0536  0.2382  0.0470
 1927POPC   C3A23383   8.319   6.323   6.079 -0.4010  0.1589  0.3396
 1927POPC   C4A23384   8.728   6.437   5.844 -0.0897 -0.1773  0.2531
 1927POPC   C1B23385   7.883   5.371   6.807 -0.0544 -0.1850 -0.2477
 1927POPC   C2B23386   7.614   5.190   6.465  0.0051  0.1332 -0.0915
 1927POPC   C3B23387   7.201   5.091   6.251 -0.2875 -0.0289  0.0437
 1927POPC   C4B23388   6.931   5.472   6.209  0.0235 -0.1196 -0.1922
 1928POPC   NC323389   0.778  30.662   8.107 -0.1406  0.2015 -0.0544
 1928POPC   PO423390   0.782  31.002   7.923 -0.1027  0.0568  0.1758
 1928POPC   GL123391   1.061  30.939   7.744 -0.0916  0.1196 -0.3479
 1928POPC   GL223392   1.064  30.656   7.638 -0.1980  0.4159 -0.1419
 1928POPC   C1A23393   1.015  30.982   7.286  0.1590 -0.1208 -0.1364
 1928POPC   D2A23394   1.094  30.996   6.858 -0.0829  0.0195  0.1497
 1928POPC   C3A23395   1.111  31.272   6.506  0.1648  0.2474 -0.0567
 1928POPC   C4A23396   1.405  31.410   6.166  0.1258 -0.0518 -0.1341
 1928POPC   C1B23397   1.190  30.493   7.200 -0.0455 -0.1099  0.2645
 1928POPC   C2B23398   1.441  30.575   6.793 -0.1754  0.2543 -0.0568
 1928POPC   C3B23399   1.841  30.663   6.545  0.3575 -0.0616  0.0894
 1928POPC   C4B23400   2.193  30.591   6.206  0.1689 -0.0716  0.0907
 1929POPC   NC323401   4.299  28.216   8.164  0.0538  0.0508 -0.0534
 1929POPC   PO423402   3.999  28.151   7.876 -0.1300  0.4731  0.3064
 1929POPC   GL123403   3.762  28.324   7.606  0.1481  0.0688 -0.0608
 1929POPC   GL223404   3.670  28.106   7.415 -0.0260  0.2127 -0.2992
 1929POPC   C1A23405   3.620  28.567   7.227  0.2002 -0.1124 -0.2961
 1929POPC   D2A23406   3.731  28.895   6.935 -0.0509  0.2026  0.2296
 1929POPC   C3A23407   3.706  28.489   6.722 -0.1855 -0.0624  0.1772
 1929POPC   C4A23408   3.668  28.291   6.308 -0.1477 -0.1138 -0.3447
 1929POPC   C1B23409   3.495  27.969   7.022  0.1679  0.0911  0.0584
 1929POPC   C2B23410   3.584  27.801   6.609 -0.0690  0.1162  0.1250
 1929POPC   C3B23411   3.651  27.744   6.171  0.0648  0.0245  0.0168
 1929POPC   C4B23412   3.883  28.051   5.944  0.0022  0.1793 -0.0230
 1930POPC   NC323413  10.262  26.842   8.854 -0.3512  0.0156  0.2535
 1930POPC   PO423414  10.279  26.680   8.502  0.1948 -0.3229  0.0924
 1930POPC   GL123415  10.193  26.929   8.246  0.0454 -0.2828  0.0970
 1930POPC   GL223416  10.309  26.863   8.000  0.1064 -0.3172 -0.2091
 1930POPC   C1A23417   9.831  27.090   7.975 -0.0931  0.3061 -0.1197
 1930POPC   D2A23418   9.368  27.125   7.857  0.0223  0.0950 -0.0759
 1930POPC   C3A23419   9.327  27.195   7.392  0.0646  0.2075 -0.1261
 1930POPC   C4A23420   9.373  27.568   7.004  0.2057  0.3056  0.1020
 1930POPC   C1B23421  10.104  26.873   7.570  0.0106  0.0029  0.0297
 1930POPC   C2B23422  10.117  26.637   7.119 -0.1298  0.2552 -0.0361
 1930POPC   C3B23423   9.944  26.491   6.800 -0.0146 -0.0613 -0.1309
 1930POPC   C4B23424   9.690  26.460   6.407 -0.0245 -0.0856  0.0014
 1931POPC   NC323425  13.400  12.978   7.956 -0.0907 -0.0142  0.2039
 1931POPC   PO423426  13.776  12.979   7.808 -0.1994  0.0148  0.1905
 1931POPC   GL123427  13.839  12.991   7.448  0.5446  0.2679 -0.2464
 1931POPC   GL223428  13.891  12.791   7.349 -0.1028  0.1481  0.2770
 1931POPC   C1A23429  13.841  13.215   7.020  0.2516 -0.2939 -0.2609
 1931POPC   D2A23430  13.720  13.264   6.604  0.0834  0.0304  0.4039
 1931POPC   C3A23431  13.545  13.555   6.267  0.1208 -0.3750 -0.2196
 1931POPC   C4A23432  13.625  13.865   5.973  0.1312 -0.0790 -0.0273
 1931POPC   C1B23433  14.172  12.850   7.005 -0.1500  0.2938  0.1992
 1931POPC   C2B23434  14.166  13.009   6.564 -0.0879  0.2150  0.1080
 1931POPC   C3B23435  14.069  13.202   6.171  0.0252  0.1854 -0.1687
 1931POPC   C4B23436  13.719  13.304   5.874  0.0026  0.4599 -0.2866
 1932POPC   NC323437  11.455  30.228   8.301  0.1998  0.1803  0.0015
 1932POPC   PO423438  11.287  30.304   8.020  0.1758  0.0655 -0.0064
 1932POPC   GL123439  11.253  30.589   7.733  0.1811 -0.1413 -0.3584
 1932POPC   GL223440  11.236  30.517   7.492  0.3212  0.0155 -0.1603
 1932POPC   C1A23441  11.271  31.040   7.543  0.1981 -0.2375  0.2123
 1932POPC   D2A23442  11.222  31.514   7.475  0.0778 -0.1012 -0.1642
 1932POPC   C3A23443  11.598  31.645   7.211 -0.1171  0.1352  0.0399
 1932POPC   C4A23444  11.734  31.600   6.764 -0.2417  0.2494  0.3011
 1932POPC   C1B23445  11.447  30.468   7.129  0.1030 -0.2146  0.0826
 1932POPC   C2B23446  11.519  30.452   6.675  0.0940 -0.2383  0.2399
 1932POPC   C3B23447  11.376  30.793   6.365 -0.1237  0.1564  0.1573
 1932POPC   C4B23448  11.196  31.144   6.083 -0.3247  0.0501 -0.0363
 1933POPC   NC323449   2.687  21.241   7.550  0.4159 -0.2287  0.3425
 1933POPC   PO423450   3.041  21.042   7.644 -0.3648  0.2025 -0.0061
 1933POPC   GL123451   2.891  21.078   7.165  0.3496  0.1395 -0.0687
 1933POPC   GL223452   2.892  21.249   7.011 -0.0603  0.2366 -0.1862
 1933POPC   C1A23453   2.707  20.788   6.812  0.0937 -0.1335 -0.0545
 1933POPC   D2A23454   2.729  20.720   6.379 -0.1155 -0.1607  0.1748
 1933POPC   C3A23455   2.699  20.968   5.952 -0.1614 -0.3447 -0.4083
 1933POPC   C4A23456   2.688  21.068   5.528 -0.1422 -0.1812  0.4304
 1933POPC   C1B23457   2.770  21.186   6.578 -0.1574  0.2614 -0.0364
 1933POPC   C2B23458   2.529  21.395   6.309  0.3099 -0.2569 -0.1606
 1933POPC   C3B23459   2.295  21.335   5.938  0.0438  0.4924 -0.0726
 1933POPC   C4B23460   2.164  21.133   5.507 -0.0536  0.0179  0.3599
 1934POPC   NC323461   3.070  10.873   7.922  0.3104 -0.1480 -0.0616
 1934POPC   PO423462   3.365  10.637   7.987 -0.0509  0.0119 -0.0220
 1934POPC   GL123463   3.568  10.595   7.684  0.2059  0.1061  0.0516
 1934POPC   GL223464   3.618  10.316   7.590  0.0342  0.1127 -0.3525
 1934POPC   C1A23465   3.588  10.799   7.232 -0.0057 -0.1365  0.0722
 1934POPC   D2A23466   3.765  10.961   6.858 -0.2616  0.0525  0.0051
 1934POPC   C3A23467   3.843  10.514   6.670 -0.1996 -0.0278  0.1453
 1934POPC   C4A23468   4.001  10.332   6.306  0.0085  0.1977  0.0196
 1934POPC   C1B23469   3.372  10.306   7.255  0.0030  0.2838 -0.3171
 1934POPC   C2B23470   3.350  10.444   6.792 -0.0017 -0.3176 -0.0554
 1934POPC   C3B23471   3.457  10.227   6.384 -0.1568  0.2095 -0.1177
 1934POPC   C4B23472   3.563  10.259   5.910  0.0814  0.0630 -0.0807
 1935POPC   NC323473   6.601  10.422   7.524  0.2219 -0.0666 -0.0292
 1935POPC   PO423474   6.922  10.265   7.691  0.1260 -0.2007  0.0928
 1935POPC   GL123475   6.942   9.932   7.425 -0.1081 -0.0065  0.1377
 1935POPC   GL223476   6.760   9.943   7.232  0.1623 -0.2494 -0.1536
 1935POPC   C1A23477   7.154   9.842   7.019  0.0380 -0.0480 -0.0823
 1935POPC   D2A23478   7.199   9.995   6.599  0.0032 -0.4772  0.2761
 1935POPC   C3A23479   7.236  10.071   6.140  0.2094 -0.0159 -0.0144
 1935POPC   C4A23480   7.272   9.922   5.664  0.1594  0.2847  0.2196
 1935POPC   C1B23481   6.720   9.916   6.809  0.1447  0.1473  0.2968
 1935POPC   C2B23482   6.714   9.792   6.331 -0.0569 -0.1007  0.1199
 1935POPC   C3B23483   6.426   9.536   6.098 -0.2255  0.0178  0.0711
 1935POPC   C4B23484   6.117   9.486   5.735 -0.0816  0.2217  0.0313
 1936POPC   NC323485  11.843  24.797   7.616 -0.0463  0.3662  0.1044
 1936POPC   PO423486  12.162  24.867   7.472 -0.1465 -0.1271  0.3604
 1936POPC   GL123487  12.240  24.995   7.130  0.2237 -0.0222  0.2371
 1936POPC   GL223488  12.092  25.245   7.020  0.0916 -0.1186 -0.1604
 1936POPC   C1A23489  12.250  24.994   6.653 -0.1264 -0.1304 -0.1314
 1936POPC   D2A23490  12.269  25.065   6.224  0.2512  0.0976  0.0418
 1936POPC   C3A23491  12.191  25.346   5.904 -0.1081 -0.0845 -0.1019
 1936POPC   C4A23492  12.039  25.432   5.459  0.0583  0.2537  0.1091
 1936POPC   C1B23493  12.315  25.476   6.666 -0.2105  0.0357  0.3470
 1936POPC   C2B23494  12.557  25.494   6.259  0.0961  0.3321 -0.1664
 1936POPC   C3B23495  12.812  25.614   5.954 -0.0902  0.0686  0.0776
 1936POPC   C4B23496  13.184  25.705   5.654  0.3412  0.2849 -0.4304
 1937POPC   NC323497   9.457  19.986   7.272 -0.4501  0.1840 -0.0117
 1937POPC   PO423498   9.551  19.597   7.389  0.1468  0.0485 -0.3183
 1937POPC   GL123499   9.689  19.448   6.984  0.1342 -0.0135  0.0018
 1937POPC   GL223500  10.061  19.425   6.965 -0.1618  0.0577  0.0557
 1937POPC   C1A23501   9.520  19.358   6.516  0.1511  0.0802 -0.1378
 1937POPC   D2A23502   9.603  19.307   6.050 -0.2465 -0.2406 -0.3421
 1937POPC   C3A23503   9.718  19.750   6.065 -0.1432  0.0760 -0.3163
 1937POPC   C4A23504  10.036  20.135   5.982  0.2919 -0.2148  0.1723
 1937POPC   C1B23505  10.102  19.732   6.663 -0.2904  0.1533  0.1743
 1937POPC   C2B23506  10.324  19.825   6.250 -0.1020 -0.1232  0.0719
 1937POPC   C3B23507  10.364  19.797   5.734 -0.0066  0.1748  0.1731
 1937POPC   C4B23508  10.447  20.244   5.610 -0.2854  0.1396  0.1378
 1938POPC   NC323509   3.927  30.984   7.609  0.0326  0.3739  0.2996
 1938POPC   PO423510   4.248  31.099   7.727  0.0719 -0.0042  0.0614
 1938POPC   GL123511   4.262  31.090   7.328 -0.0215  0.2066 -0.0357
 1938POPC   GL223512   4.330  31.358   7.270  0.0182 -0.2251 -0.0558
 1938POPC   C1A23513   3.992  30.932   6.982 -0.0440 -0.1001 -0.1411
 1938POPC   D2A23514   3.954  30.905   6.517  0.0168 -0.1599  0.3607
 1938POPC   C3A23515   3.891  31.261   6.168  0.0593  0.1959 -0.0534
 1938POPC   C4A23516   3.802  31.701   6.182 -0.0118 -0.0937 -0.1181
 1938POPC   C1B23517   4.153  31.386   6.875 -0.1536  0.1202  0.0216
 1938POPC   C2B23518   3.697  31.394   6.678 -0.0375 -0.1043 -0.1018
 1938POPC   C3B23519   3.404  31.401   6.329  0.0992  0.0258  0.2094
 1938POPC   C4B23520   3.399  31.368   5.891 -0.5096 -0.1127  0.1579
 1939POPC   NC323521   9.169  11.835   7.755  0.0155  0.0327 -0.0407
 1939POPC   PO423522   9.531  11.811   7.639 -0.1691 -0.2451 -0.0406
 1939POPC   GL123523   9.576  11.798   7.180  0.1586 -0.0457 -0.0934
 1939POPC   GL223524   9.766  11.632   7.261  0.1865  0.1672 -0.0378
 1939POPC   C1A23525   9.331  11.818   6.775 -0.1795  0.3509  0.0111
 1939POPC   D2A23526   9.263  11.762   6.319 -0.2699  0.0455  0.0686
 1939POPC   C3A23527   9.257  12.028   5.986  0.0526  0.0863  0.1397
 1939POPC   C4A23528   9.107  11.982   5.552 -0.2870  0.0157  0.1835
 1939POPC   C1B23529   9.911  11.698   6.885 -0.0493 -0.0134 -0.1735
 1939POPC   C2B23530   9.863  11.785   6.396  0.2003  0.0940 -0.0985
 1939POPC   C3B23531   9.771  11.962   5.992  0.0971 -0.0246  0.1043
 1939POPC   C4B23532   9.568  12.237   5.636 -0.1556  0.0379  0.1756
 1940POPC   NC323533   9.022   8.947   8.142  0.0019  0.1383 -0.0252
 1940POPC   PO423534   9.171   9.150   7.846 -0.3714 -0.1725 -0.1088
 1940POPC   GL123535   9.080   9.056   7.416 -0.0805  0.0113  0.0366
 1940POPC   GL223536   9.108   8.795   7.468 -0.0138  0.2512  0.0113
 1940POPC   C1A23537   9.074   9.279   7.002 -0.0441 -0.2524  0.0486
 1940POPC   D2A23538   9.015   9.530   6.588  0.1306  0.1155 -0.2702
 1940POPC   C3A23539   9.382   9.707   6.478  0.2263 -0.2249  0.1674
 1940POPC   C4A23540   9.697  10.045   6.418 -0.1203  0.2023  0.0592
 1940POPC   C1B23541   9.515   9.044   7.217  0.0138  0.0663 -0.0328
 1940POPC   C2B23542   9.661   8.943   6.792 -0.1051 -0.1234  0.0906
 1940POPC   C3B23543   9.641   8.818   6.338  0.2049 -0.2083  0.1101
 1940POPC   C4B23544   9.632   8.539   6.005 -0.0512 -0.0564 -0.3212
 1941POPC   NC323545   6.113  23.145   7.495  0.0890 -0.1408  0.0302
 1941POPC   PO423546   5.729  23.022   7.508  0.1291  0.2547 -0.0091
 1941POPC   GL123547   5.784  23.271   7.191  0.0819  0.2565 -0.2169
 1941POPC   GL223548   5.536  23.197   7.101  0.2083 -0.0201  0.3432
 1941POPC   C1A23549   5.931  23.217   6.789  0.0227  0.2600  0.0811
 1941POPC   D2A23550   5.914  23.067   6.354  0.0449 -0.0611 -0.2038
 1941POPC   C3A23551   5.781  23.404   6.051 -0.1097 -0.1144 -0.0833
 1941POPC   C4A23552   5.405  23.569   5.763 -0.1161  0.0354  0.1472
 1941POPC   C1B23553   5.491  23.316   6.620 -0.0261 -0.1307  0.0725
 1941POPC   C2B23554   5.360  23.153   6.204  0.3775  0.1579  0.1040
 1941POPC   C3B23555   5.034  23.085   5.822 -0.1013 -0.1252  0.0013
 1941POPC   C4B23556   4.679  22.990   5.496 -0.0637 -0.1591 -0.0212
 1942POPC   NC323557   5.534  13.630   7.464 -0.2237 -0.2107  0.0299
 1942POPC   PO423558   5.148  13.634   7.469  0.1346  0.1840 -0.3202
 1942POPC   GL123559   5.256  13.951   7.242  0.2488 -0.1492 -0.0337
 1942POPC   GL223560   5.298  13.710   7.011  0.3804 -0.0504  0.3165
 1942POPC   C1A23561   5.581  14.150   7.010  0.1820  0.3707 -0.4552
 1942POPC   D2A23562   5.694  14.127   6.586 -0.1983  0.0874  0.0730
 1942POPC   C3A23563   5.366  14.230   6.245 -0.2002 -0.1429 -0.4056
 1942POPC   C4A23564   4.947  14.407   6.155 -0.1271 -0.3032 -0.0857
 1942POPC   C1B23565   5.383  13.795   6.603 -0.1072 -0.0040  0.3624
 1942POPC   C2B23566   5.571  13.762   6.212 -0.0419 -0.0478 -0.0391
 1942POPC   C3B23567   5.691  13.940   5.796 -0.0257  0.0788  0.0897
 1942POPC   C4B23568   5.695  14.206   5.455  0.0367  0.3162 -0.1346
 1943POPC   NC323569   3.663   8.374   8.136  0.2448  0.0873  0.1698
 1943POPC   PO423570   3.832   8.740   8.111  0.1772  0.1574 -0.1852
 1943POPC   GL123571   3.763   9.059   7.823  0.3488  0.2693  0.1935
 1943POPC   GL223572   3.628   8.884   7.675  0.0749 -0.0049 -0.1254
 1943POPC   C1A23573   4.040   9.280   7.533 -0.0957  0.2020  0.1272
 1943POPC   D2A23574   4.319   9.448   7.121  0.4508 -0.0409  0.1434
 1943POPC   C3A23575   4.254   9.834   6.886  0.1491 -0.1004  0.0316
 1943POPC   C4A23576   4.324  10.174   6.659 -0.2088 -0.0353 -0.1545
 1943POPC   C1B23577   3.782   8.848   7.269  0.1469  0.1371 -0.1850
 1943POPC   C2B23578   3.707   9.103   6.834 -0.1937  0.1034 -0.3956
 1943POPC   C3B23579   3.433   9.373   6.595 -0.1252 -0.0539 -0.1164
 1943POPC   C4B23580   3.421   9.705   6.167  0.1993 -0.1266 -0.2034
 1944POPC   NC323581   2.173  27.997   8.720 -0.1255 -0.2631  0.1176
 1944POPC   PO423582   2.427  27.876   8.429  0.2021  0.0506 -0.2902
 1944POPC   GL123583   2.568  27.989   8.093 -0.1036 -0.1346 -0.2030
 1944POPC   GL223584   2.842  28.142   8.075  0.1506  0.1402  0.0531
 1944POPC   C1A23585   2.456  28.198   7.679 -0.0967  0.0058  0.1641
 1944POPC   D2A23586   2.361  28.433   7.263 -0.4051  0.1131  0.2430
 1944POPC   C3A23587   2.659  28.549   6.878 -0.0630 -0.3294 -0.3116
 1944POPC   C4A23588   2.871  28.731   6.535  0.0074  0.0826  0.1061
 1944POPC   C1B23589   2.873  28.515   7.790 -0.1749 -0.0219 -0.0090
 1944POPC   C2B23590   2.705  28.708   7.438 -0.1337  0.0861 -0.0224
 1944POPC   C3B23591   2.771  28.986   7.037 -0.0515 -0.0567 -0.1105
 1944POPC   C4B23592   2.922  29.295   6.703 -0.2793 -0.1220  0.3136
 1945POPC   NC323593   8.395  23.700   8.464  0.0876  0.1322 -0.1487
 1945POPC   PO423594   8.371  23.977   8.154  0.1065 -0.1202  0.0415
 1945POPC   GL123595   8.250  23.777   7.862  0.2429  0.0288  0.0392
 1945POPC   GL223596   8.023  23.768   7.726  0.3775 -0.1268  0.2943
 1945POPC   C1A23597   8.282  23.452   7.529  0.0024  0.2099 -0.0944
 1945POPC   D2A23598   8.057  23.164   7.238 -0.1442 -0.3566  0.5542
 1945POPC   C3A23599   8.044  23.269   6.774  0.1431  0.1018  0.0102
 1945POPC   C4A23600   7.803  23.245   6.371 -0.1364 -0.0578  0.3679
 1945POPC   C1B23601   7.878  23.710   7.267 -0.1793  0.0061 -0.0309
 1945POPC   C2B23602   7.927  23.772   6.797  0.0674 -0.1515  0.1158
 1945POPC   C3B23603   8.064  23.782   6.393  0.3007 -0.0370  0.0121
 1945POPC   C4B23604   8.449  23.873   6.138 -0.1826  0.1916 -0.0989
 1946POPC   NC323605   5.592  17.394   7.535 -0.1072  0.1111  0.4010
 1946POPC   PO423606   5.528  17.014   7.583  0.2328  0.1375  0.1521
 1946POPC   GL123607   5.469  17.105   7.179 -0.1187 -0.1481  0.1669
 1946POPC   GL223608   5.194  17.069   7.145 -0.0217  0.1015  0.3023
 1946POPC   C1A23609   5.643  16.777   6.939 -0.2923  0.0057  0.0398
 1946POPC   D2A23610   5.975  16.507   6.762 -0.2342 -0.2242 -0.1910
 1946POPC   C3A23611   5.991  16.419   6.274 -0.1038  0.3148  0.4542
 1946POPC   C4A23612   5.951  16.483   5.819 -0.2482 -0.1196  0.0259
 1946POPC   C1B23613   5.192  16.885   6.756 -0.0960 -0.2467  0.0743
 1946POPC   C2B23614   5.162  16.773   6.336  0.0126  0.0691 -0.4155
 1946POPC   C3B23615   5.482  16.718   5.994  0.3508  0.2272  0.0302
 1946POPC   C4B23616   5.526  16.652   5.530  0.2042  0.0100  0.1804
 1947POPC   NC323617   2.093   2.448   7.763  0.1163 -0.0520 -0.2848
 1947POPC   PO423618   2.372   2.170   7.657  0.2181  0.1120  0.0536
 1947POPC   GL123619   2.596   2.088   7.379  0.3140  0.0150  0.3395
 1947POPC   GL223620   2.364   1.837   7.301  0.2106  0.0543 -0.1272
 1947POPC   C1A23621   2.878   2.224   6.963  0.0340  0.1685 -0.2450
 1947POPC   D2A23622   3.190   2.053   6.664 -0.0448  0.1183 -0.1833
 1947POPC   C3A23623   3.243   2.280   6.273  0.0754  0.0967 -0.1194
 1947POPC   C4A23624   3.654   2.197   6.105  0.0958  0.1027  0.0259
 1947POPC   C1B23625   2.327   2.155   6.916 -0.1184 -0.1844  0.0607
 1947POPC   C2B23626   1.970   2.189   6.662  0.0883  0.0552 -0.0585
 1947POPC   C3B23627   1.798   2.266   6.233  0.2518  0.1020  0.1444
 1947POPC   C4B23628   1.671   2.267   5.786 -0.2039 -0.3281  0.0145
 1948POPC   NC323629  11.020   0.927   7.925  0.4333 -0.2038  0.1576
 1948POPC   PO423630  10.608   0.969   8.020  0.2758 -0.0525  0.0407
 1948POPC   GL123631  10.523   1.222   7.684 -0.0701  0.1960  0.4659
 1948POPC   GL223632  10.528   0.996   7.515  0.0295 -0.1105 -0.3569
 1948POPC   C1A23633  10.725   1.485   7.454  0.0527  0.0389  0.1490
 1948POPC   D2A23634  11.138   1.643   7.260  0.3121  0.1620 -0.0344
 1948POPC   C3A23635  10.989   1.893   6.814  0.1794  0.3343 -0.0893
 1948POPC   C4A23636  10.770   2.257   6.671 -0.0410  0.0028 -0.0382
 1948POPC   C1B23637  10.726   1.015   7.049  0.2331  0.0713  0.3644
 1948POPC   C2B23638  11.051   0.969   6.712 -0.0062 -0.2993 -0.0326
 1948POPC   C3B23639  11.037   0.939   6.275  0.0517 -0.3851  0.3432
 1948POPC   C4B23640  10.830   0.945   5.865 -0.0038 -0.0609 -0.2607
 1949POPC   NC323641   2.274  14.181   7.376  0.0994  0.1874  0.1579
 1949POPC   PO423642   2.478  14.170   7.744  0.2399  0.0512 -0.0108
 1949POPC   GL123643   2.376  13.799   7.597 -0.3198 -0.3934 -0.0745
 1949POPC   GL223644   2.563  13.653   7.411  0.0365  0.1067 -0.1202
 1949POPC   C1A23645   2.067  13.700   7.201 -0.1678 -0.0836 -0.0631
 1949POPC   D2A23646   1.841  13.478   6.815 -0.0425  0.1526  0.1417
 1949POPC   C3A23647   1.694  13.586   6.361  0.1153  0.1026  0.2797
 1949POPC   C4A23648   1.676  13.800   5.955 -0.0074  0.1066  0.2809
 1949POPC   C1B23649   2.478  13.539   6.956  0.0110 -0.1907  0.2367
 1949POPC   C2B23650   2.517  13.447   6.462 -0.1524  0.3316  0.0159
 1949POPC   C3B23651   2.150  13.307   6.278 -0.1644  0.0175  0.1213
 1949POPC   C4B23652   2.079  13.570   5.851 -0.0078 -0.2200 -0.0629
 1950POPC   NC323653   3.641  24.668   7.247  0.1898  0.1979 -0.1649
 1950POPC   PO423654   3.324  24.782   7.465 -0.2361 -0.3751  0.0544
 1950POPC   GL123655   3.204  24.914   7.133  0.2506  0.2104 -0.1546
 1950POPC   GL223656   3.260  25.184   7.188  0.0636 -0.0958 -0.1285
 1950POPC   C1A23657   3.376  24.965   6.702  0.1118 -0.4607 -0.0296
 1950POPC   D2A23658   3.151  25.153   6.324  0.2217  0.4304  0.0555
 1950POPC   C3A23659   3.351  25.261   5.903 -0.2847 -0.0677 -0.0484
 1950POPC   C4A23660   3.776  25.254   5.731  0.1668  0.0185  0.0715
 1950POPC   C1B23661   3.213  25.455   6.792  0.0952 -0.0496  0.2177
 1950POPC   C2B23662   3.426  25.684   6.417 -0.0752  0.3525  0.0935
 1950POPC   C3B23663   3.655  25.708   6.002  0.2219 -0.3356  0.1346
 1950POPC   C4B23664   4.048  25.695   5.743  0.1611  0.0287 -0.0584
 1951POPC   NC323665   6.127  30.765   7.303 -0.0455  0.1669  0.0162
 1951POPC   PO423666   5.760  30.748   7.157 -0.0311  0.2006 -0.0162
 1951POPC   GL123667   5.565  30.514   6.906  0.3026 -0.0641 -0.1519
 1951POPC   GL223668   5.702  30.267   6.908 -0.0095  0.0088 -0.1873
 1951POPC   C1A23669   5.579  30.386   6.463 -0.2290 -0.0134 -0.1396
 1951POPC   D2A23670   5.533  30.334   5.946 -0.1876  0.2641  0.3105
 1951POPC   C3A23671   5.267  30.217   5.518  0.1351 -0.1248  0.1160
 1951POPC   C4A23672   4.832  30.145   5.459 -0.1287  0.0958 -0.1133
 1951POPC   C1B23673   5.965  30.104   6.594 -0.1396 -0.3660 -0.2765
 1951POPC   C2B23674   5.928  30.036   6.117  0.0339  0.2753 -0.0484
 1951POPC   C3B23675   6.020  29.604   5.921  0.0918 -0.3547 -0.2527
 1951POPC   C4B23676   5.743  29.266   5.734 -0.0429 -0.2529 -0.2398
 1952POPC   NC323677  12.060  25.592   7.970  0.2797  0.2449  0.2083
 1952POPC   PO423678  11.931  25.519   7.556  0.0400 -0.2114 -0.0266
 1952POPC   GL123679  11.911  25.725   7.146 -0.2098  0.1025 -0.2835
 1952POPC   GL223680  11.713  25.966   7.198  0.0046 -0.2285  0.0027
 1952POPC   C1A23681  11.838  25.567   6.692 -0.1575 -0.0554 -0.1553
 1952POPC   D2A23682  11.927  25.507   6.283  0.0646 -0.2991  0.2081
 1952POPC   C3A23683  11.706  25.619   5.856 -0.1036 -0.0415 -0.2056
 1952POPC   C4A23684  11.243  25.690   5.725  0.2367  0.0358 -0.0407
 1952POPC   C1B23685  11.519  26.254   6.857 -0.1253 -0.0106 -0.2416
 1952POPC   C2B23686  11.394  26.409   6.472 -0.3662  0.5465 -0.4322
 1952POPC   C3B23687  11.301  26.558   6.077 -0.0348  0.2227  0.3047
 1952POPC   C4B23688  11.483  26.560   5.648 -0.0969 -0.2583 -0.2193
 1953POPC   NC323689   2.915  23.354   7.455 -0.1594  0.2131 -0.2605
 1953POPC   PO423690   3.151  23.588   7.356 -0.0164 -0.1289  0.0990
 1953POPC   GL123691   3.043  23.641   6.989 -0.0785 -0.2188  0.1022
 1953POPC   GL223692   2.752  23.793   7.106 -0.0982  0.0519  0.0276
 1953POPC   C1A23693   3.115  23.436   6.574 -0.0707  0.2411  0.2584
 1953POPC   D2A23694   3.136  23.272   6.150  0.3013 -0.0818  0.0123
 1953POPC   C3A23695   3.456  23.361   5.827  0.2607  0.0151 -0.1246
 1953POPC   C4A23696   3.804  23.379   5.529 -0.3757 -0.2613 -0.1606
 1953POPC   C1B23697   2.597  23.642   6.697  0.1918 -0.0833  0.0872
 1953POPC   C2B23698   2.691  23.557   6.194 -0.4398 -0.2292 -0.0634
 1953POPC   C3B23699   2.922  23.556   5.762  0.1850  0.1493 -0.3221
 1953POPC   C4B23700   3.014  23.468   5.312  0.1342 -0.1125 -0.1095
 1954POPC   NC323701  13.614  18.204   7.256  0.0666 -0.1489  0.1614
 1954POPC   PO423702  13.339  18.439   7.415  0.1685  0.0792 -0.0096
 1954POPC   GL123703  13.226  18.586   7.110  0.0040  0.2843  0.1811
 1954POPC   GL223704  13.476  18.826   7.102  0.0462  0.0512 -0.0416
 1954POPC   C1A23705  13.470  18.451   6.745  0.1718 -0.1854  0.2410
 1954POPC   D2A23706  13.858  18.402   6.449  0.0881 -0.0554  0.0985
 1954POPC   C3A23707  13.893  18.270   6.023  0.0898 -0.0701  0.5013
 1954POPC   C4A23708  13.754  18.252   5.569 -0.3547  0.1634 -0.0217
 1954POPC   C1B23709  13.702  18.885   6.720  0.0729  0.1252 -0.1313
 1954POPC   C2B23710  13.831  18.896   6.310  0.0087 -0.2498 -0.0139
 1954POPC   C3B23711  14.155  18.738   6.044  0.1346  0.2201  0.0313
 1954POPC   C4B23712  14.541  18.706   5.907  0.1370  0.0110  0.1751
 1955POPC   NC323713   1.981  18.506   8.201 -0.1526  0.0707  0.2355
 1955POPC   PO423714   2.205  18.795   8.334 -0.2092  0.0137  0.3536
 1955POPC   GL123715   2.080  18.993   8.030  0.3419 -0.1649 -0.2859
 1955POPC   GL223716   1.797  19.095   8.153  0.1612  0.2951  0.2490
 1955POPC   C1A23717   1.986  19.272   7.637  0.4941 -0.2269  0.1426
 1955POPC   D2A23718   1.713  19.617   7.487  0.1816  0.0274  0.1273
 1955POPC   C3A23719   1.494  19.861   7.098 -0.0879  0.2338  0.2690
 1955POPC   C4A23720   1.196  19.822   6.700  0.3286  0.4413 -0.1433
 1955POPC   C1B23721   1.717  19.575   8.023 -0.1973  0.0608  0.0626
 1955POPC   C2B23722   1.652  20.000   7.894 -0.0421  0.1136 -0.3054
 1955POPC   C3B23723   1.409  20.171   7.561 -0.0081 -0.0911  0.0990
 1955POPC   C4B23724   1.353  20.428   7.163  0.1529 -0.1695 -0.0210
 1956POPC   NC323725   4.529  30.699   7.666  0.2282  0.2906 -0.1349
 1956POPC   PO423726   4.190  30.595   7.514  0.0273  0.0891  0.0796
 1956POPC   GL123727   4.004  30.488   7.176  0.1904 -0.0587 -0.3947
 1956POPC   GL223728   3.763  30.576   7.319 -0.3079  0.0216 -0.0848
 1956POPC   C1A23729   3.835  30.478   6.713  0.3939 -0.0986 -0.0673
 1956POPC   D2A23730   3.593  30.544   6.362 -0.2363  0.1595  0.2045
 1956POPC   C3A23731   3.432  30.935   6.195  0.2321  0.1957 -0.3809
 1956POPC   C4A23732   3.119  30.986   5.900 -0.4943  0.0732  0.1810
 1956POPC   C1B23733   3.514  30.300   7.043 -0.3096  0.1213 -0.1904
 1956POPC   C2B23734   3.179  30.088   6.775  0.0864 -0.0979 -0.1710
 1956POPC   C3B23735   3.167  30.117   6.312  0.0892  0.0775 -0.1023
 1956POPC   C4B23736   3.016  30.084   5.921  0.1298 -0.2870 -0.0551
 1957POPC   NC323737   0.182  25.006   8.168 -0.0310 -0.2123 -0.1870
 1957POPC   PO423738   0.526  24.852   7.986 -0.0576 -0.0769 -0.2437
 1957POPC   GL123739   0.591  24.818   7.654  0.0575  0.0424  0.1070
 1957POPC   GL223740   0.312  24.739   7.495 -0.1537  0.0678 -0.2518
 1957POPC   C1A23741   0.577  25.098   7.285 -0.2591 -0.2210 -0.0462
 1957POPC   D2A23742   0.707  25.248   6.898 -0.0491  0.1111  0.0978
 1957POPC   C3A23743   0.380  25.450   6.725 -0.3311  0.0301  0.0562
 1957POPC   C4A23744   0.260  25.452   6.255 -0.1376 -0.1269 -0.5734
 1957POPC   C1B23745   0.455  24.694   7.051 -0.2602 -0.2381  0.0102
 1957POPC   C2B23746   0.473  24.523   6.620  0.3493 -0.0035  0.0282
 1957POPC   C3B23747   0.340  24.557   6.169  0.2642  0.0193  0.0924
 1957POPC   C4B23748   0.255  24.854   5.822 -0.0240  0.0809 -0.3696
 1958POPC   NC323749  12.238  28.046   7.646 -0.1867 -0.2276 -0.3050
 1958POPC   PO423750  12.293  27.686   7.586  0.1348 -0.2405  0.1294
 1958POPC   GL123751  12.226  27.758   7.166  0.0220  0.0129 -0.2305
 1958POPC   GL223752  12.045  27.934   7.126 -0.0097 -0.0724  0.1937
 1958POPC   C1A23753  12.194  27.685   6.712 -0.0641  0.0147  0.1226
 1958POPC   D2A23754  12.118  27.267   6.519  0.0630  0.3065 -0.1309
 1958POPC   C3A23755  11.675  27.123   6.337 -0.1980  0.0669 -0.1914
 1958POPC   C4A23756  11.507  26.991   5.945  0.4135 -0.0288  0.1821
 1958POPC   C1B23757  11.600  27.854   6.983  0.0779 -0.4112 -0.1305
 1958POPC   C2B23758  11.298  27.961   6.660  0.1430  0.1618  0.2257
 1958POPC   C3B23759  11.283  28.142   6.207  0.3959  0.1317  0.0826
 1958POPC   C4B23760  11.102  27.994   5.785 -0.0405 -0.2457  0.2797
 1959POPC   NC323761  11.319   3.851   7.457 -0.1634  0.1389  0.2876
 1959POPC   PO423762  11.322   4.181   7.649 -0.0216  0.1909  0.0055
 1959POPC   GL123763  11.454   4.226   7.270 -0.0029  0.1038 -0.0939
 1959POPC   GL223764  11.590   4.162   7.066  0.2554 -0.5127 -0.1756
 1959POPC   C1A23765  11.165   3.940   7.027  0.1722 -0.1502  0.1408
 1959POPC   D2A23766  11.234   3.641   6.727  0.0862  0.0570 -0.2004
 1959POPC   C3A23767  11.303   3.680   6.295 -0.2664  0.0023 -0.0054
 1959POPC   C4A23768  11.625   3.658   5.989  0.0875 -0.0757  0.0391
 1959POPC   C1B23769  11.555   4.086   6.599  0.2457  0.0617 -0.2359
 1959POPC   C2B23770  11.719   4.130   6.190 -0.1275  0.0027 -0.1756
 1959POPC   C3B23771  12.019   4.066   5.897 -0.0779  0.0183  0.0118
 1959POPC   C4B23772  12.366   4.050   5.544 -0.1994  0.1811 -0.1607
 1960POPC   NC323773   0.614   8.191   8.077  0.0533 -0.1731 -0.2924
 1960POPC   PO423774   0.385   8.053   7.769 -0.1040  0.1073 -0.1817
 1960POPC   GL123775   0.269   7.857   7.485 -0.1526 -0.3008 -0.1031
 1960POPC   GL223776   0.577   7.731   7.451  0.0942 -0.1088  0.1291
 1960POPC   C1A23777   0.203   7.880   7.063  0.0325 -0.3423 -0.4313
 1960POPC   D2A23778   0.417   7.847   6.686 -0.1602 -0.3072  0.0617
 1960POPC   C3A23779   0.359   8.249   6.382  0.0689 -0.0214  0.2119
 1960POPC   C4A23780   0.144   8.541   6.048  0.0060 -0.2141  0.0455
 1960POPC   C1B23781   0.749   7.633   7.048 -0.1054 -0.0129  0.1599
 1960POPC   C2B23782   0.907   7.835   6.689  0.1266  0.0642 -0.2818
 1960POPC   C3B23783   0.750   7.914   6.229 -0.0524 -0.1822 -0.1207
 1960POPC   C4B23784   0.609   8.257   5.927  0.1099 -0.3834  0.1175
 1961POPC   NC323785   0.060  29.243   7.382 -0.0119  0.0051 -0.1233
 1961POPC   PO423786  -0.224  29.512   7.576 -0.0803  0.0361  0.0158
 1961POPC   GL123787  -0.461  29.496   7.204 -0.0952  0.0769  0.0942
 1961POPC   GL223788  -0.196  29.599   7.102 -0.1954  0.1737  0.0209
 1961POPC   C1A23789  -0.518  29.338   6.782 -0.1640 -0.3586  0.4508
 1961POPC   D2A23790  -0.377  29.615   6.381  0.1931  0.0334 -0.1322
 1961POPC   C3A23791  -0.240  29.401   6.004 -0.0229 -0.0650 -0.1911
 1961POPC   C4A23792  -0.193  29.525   5.612 -0.0287 -0.2150  0.0072
 1961POPC   C1B23793   0.007  29.421   6.779 -0.3463  0.1086  0.2518
 1961POPC   C2B23794   0.112  29.558   6.318  0.3497 -0.2259 -0.0027
 1961POPC   C3B23795   0.358  29.543   5.930 -0.2493 -0.1827  0.0393
 1961POPC   C4B23796   0.741  29.731   5.725 -0.1075  0.0281 -0.1631
 1962POPC   NC323797   7.208  26.819   7.239 -0.1825 -0.1983 -0.0692
 1962POPC   PO423798   7.008  26.738   7.545 -0.1736  0.3105 -0.0735
 1962POPC   GL123799   6.896  26.432   7.270  0.2401 -0.0386  0.3550
 1962POPC   GL223800   6.971  26.222   7.459  0.1178 -0.0584  0.1009
 1962POPC   C1A23801   6.566  26.278   6.956  0.3041 -0.0248  0.0703
 1962POPC   D2A23802   6.190  26.247   6.688  0.2941 -0.4769 -0.2429
 1962POPC   C3A23803   6.036  26.212   6.273  0.3362 -0.0567 -0.3304
 1962POPC   C4A23804   5.799  25.918   6.090  0.0392  0.1479  0.0518
 1962POPC   C1B23805   7.038  26.097   7.014  0.0399 -0.0880 -0.2239
 1962POPC   C2B23806   7.315  26.085   6.628  0.0101  0.2216  0.2397
 1962POPC   C3B23807   7.415  26.366   6.252 -0.1136 -0.1181  0.0157
 1962POPC   C4B23808   7.443  26.177   5.805  0.1758  0.1394  0.0291
 1963POPC   NC323809  13.609  23.110   7.275 -0.0061 -0.4491  0.1378
 1963POPC   PO423810  13.632  23.514   7.171 -0.2698 -0.2955  0.2545
 1963POPC   GL123811  13.697  23.700   6.851 -0.0380 -0.4496  0.2375
 1963POPC   GL223812  13.438  23.754   6.632 -0.0067  0.0980  0.0658
 1963POPC   C1A23813  13.950  23.816   6.477 -0.1313  0.1836 -0.2342
 1963POPC   D2A23814  14.018  24.006   6.073 -0.0045 -0.2245 -0.0301
 1963POPC   C3A23815  14.437  24.151   5.958  0.0402 -0.2669  0.0402
 1963POPC   C4A23816  14.715  24.406   6.191 -0.1493  0.0325  0.0153
 1963POPC   C1B23817  13.384  23.367   6.394  0.1087  0.2717 -0.0411
 1963POPC   C2B23818  13.181  23.075   6.116  0.0622  0.0294  0.2461
 1963POPC   C3B23819  13.069  23.127   5.622 -0.3013 -0.1383  0.1427
 1963POPC   C4B23820  13.014  22.893   5.219  0.0963  0.0458 -0.1426
 1964POPC   NC323821  13.180  20.281   7.701 -0.0639  0.2553  0.2196
 1964POPC   PO423822  13.483  20.087   7.529 -0.1271 -0.1197 -0.3521
 1964POPC   GL123823  13.705  20.089   7.166  0.0119 -0.4074  0.1246
 1964POPC   GL223824  13.514  20.229   7.043  0.2367 -0.1646 -0.1036
 1964POPC   C1A23825  14.082  20.267   6.907  0.1582 -0.0056 -0.1018
 1964POPC   D2A23826  14.483  20.269   6.737 -0.1469  0.3704 -0.2499
 1964POPC   C3A23827  14.730  20.482   6.413  0.2691 -0.0322 -0.3579
 1964POPC   C4A23828  14.732  20.496   5.933 -0.1160 -0.2441  0.0757
 1964POPC   C1B23829  13.665  20.427   6.649 -0.0160 -0.2706  0.0114
 1964POPC   C2B23830  13.929  20.637   6.320 -0.2190  0.2681 -0.2469
 1964POPC   C3B23831  14.202  20.714   5.897  0.0626 -0.1276  0.0850
 1964POPC   C4B23832  14.430  20.831   5.507 -0.3084  0.2416 -0.2474
 1965POPC   NC323833   3.724   1.892   7.665 -0.0366 -0.2549  0.0549
 1965POPC   PO423834   3.415   1.685   7.648 -0.1901 -0.2707 -0.1719
 1965POPC   GL123835   3.342   1.721   7.241  0.1313  0.0185  0.0877
 1965POPC   GL223836   3.634   1.760   7.124 -0.0253  0.1967 -0.1027
 1965POPC   C1A23837   3.292   1.457   6.802 -0.0660 -0.1445  0.0625
 1965POPC   D2A23838   3.284   1.200   6.416 -0.0676  0.0437  0.1632
 1965POPC   C3A23839   3.229   1.256   5.952 -0.0240 -0.3495 -0.0743
 1965POPC   C4A23840   3.354   1.527   5.540  0.1185  0.0915  0.0886
 1965POPC   C1B23841   3.650   1.810   6.672  0.2272  0.3761  0.1074
 1965POPC   C2B23842   3.383   1.680   6.325 -0.0502  0.2308 -0.0036
 1965POPC   C3B23843   3.272   1.899   5.951  0.1374  0.0488 -0.1606
 1965POPC   C4B23844   3.322   2.078   5.546 -0.0130  0.2211 -0.2142
 1966POPC   NC323845   8.768  24.254   8.011 -0.0932 -0.2920  0.4044
 1966POPC   PO423846   9.146  24.305   8.093  0.1203 -0.0104 -0.0012
 1966POPC   GL123847   9.372  24.388   7.783 -0.1992 -0.2431 -0.2648
 1966POPC   GL223848   9.121  24.441   7.637  0.2510  0.0844 -0.3997
 1966POPC   C1A23849   9.490  24.144   7.390  0.2516  0.1152 -0.4630
 1966POPC   D2A23850   9.657  23.821   7.076  0.0274 -0.0620  0.1067
 1966POPC   C3A23851   9.610  23.803   6.621 -0.1142 -0.0153 -0.0204
 1966POPC   C4A23852   9.307  23.921   6.299  0.2438  0.1196  0.1457
 1966POPC   C1B23853   9.027  24.144   7.290  0.1997  0.2546 -0.0415
 1966POPC   C2B23854   8.684  23.854   6.993 -0.0845  0.1004 -0.0694
 1966POPC   C3B23855   8.358  24.008   6.738  0.3767 -0.1190  0.0393
 1966POPC   C4B23856   7.982  24.263   6.701  0.1085 -0.0699  0.0915
 1967POPC   NC323857   8.328   4.191   7.984 -0.4637 -0.1519  0.2387
 1967POPC   PO423858   8.247   4.233   7.639  0.1610  0.2147 -0.1268
 1967POPC   GL123859   8.301   4.183   7.273  0.0128 -0.1309 -0.0703
 1967POPC   GL223860   8.498   3.972   7.180  0.1212  0.2653  0.1612
 1967POPC   C1A23861   8.418   4.356   6.849  0.0875  0.1697  0.3287
 1967POPC   D2A23862   8.246   4.597   6.589 -0.1807 -0.0928  0.1811
 1967POPC   C3A23863   8.274   4.526   6.104 -0.2298  0.0610 -0.0085
 1967POPC   C4A23864   8.483   4.484   5.671 -0.0637  0.0978 -0.1084
 1967POPC   C1B23865   8.609   3.808   6.762 -0.3558 -0.1639 -0.0449
 1967POPC   C2B23866   8.927   3.778   6.420 -0.1398  0.0141  0.0447
 1967POPC   C3B23867   8.798   3.827   5.980 -0.0846  0.2057  0.0404
 1967POPC   C4B23868   8.378   3.944   5.722 -0.6250 -0.0726  0.1779
 1968POPC   NC323869   6.240  21.709   7.992 -0.1442 -0.1745  0.0231
 1968POPC   PO423870   6.591  21.927   7.873  0.1909 -0.0049  0.2638
 1968POPC   GL123871   6.702  21.933   7.438  0.1317  0.0260  0.4616
 1968POPC   GL223872   6.487  22.027   7.316  0.0892  0.1673  0.0054
 1968POPC   C1A23873   6.622  21.582   7.130  0.3104  0.2532  0.0051
 1968POPC   D2A23874   6.699  21.631   6.655 -0.0162 -0.2079 -0.1584
 1968POPC   C3A23875   6.900  21.311   6.325 -0.0674  0.1070 -0.1830
 1968POPC   C4A23876   6.914  21.057   5.887 -0.0135  0.1039 -0.2022
 1968POPC   C1B23877   6.374  22.048   6.858  0.4086  0.0896 -0.1279
 1968POPC   C2B23878   6.248  21.830   6.421  0.0192 -0.0575  0.0617
 1968POPC   C3B23879   5.905  21.604   6.298 -0.0236 -0.0177  0.0381
 1968POPC   C4B23880   5.570  21.325   6.182  0.2332  0.3216 -0.0321
 1969POPC   NC323881   2.940   1.746   7.501 -0.0771 -0.1805 -0.2741
 1969POPC   PO423882   2.574   1.664   7.709 -0.1145 -0.0211  0.1444
 1969POPC   GL123883   2.502   1.293   7.393 -0.1547  0.0889 -0.0099
 1969POPC   GL223884   2.251   1.385   7.354 -0.1848 -0.0184  0.3067
 1969POPC   C1A23885   2.544   0.863   7.360 -0.0013 -0.0212  0.0613
 1969POPC   D2A23886   2.598   0.602   7.002 -0.0898 -0.1068 -0.0472
 1969POPC   C3A23887   2.658   0.567   6.552 -0.0592 -0.2063  0.4340
 1969POPC   C4A23888   2.651   0.380   6.117 -0.2502  0.3749  0.2521
 1969POPC   C1B23889   2.435   1.160   6.958  0.1299 -0.0169  0.1828
 1969POPC   C2B23890   2.584   1.173   6.533  0.0026  0.1462 -0.1078
 1969POPC   C3B23891   2.740   1.157   6.100 -0.0050 -0.0642  0.1879
 1969POPC   C4B23892   2.728   0.916   5.703  0.0466  0.1850  0.3561
 1970POPC   NC323893   1.434  26.352   7.902 -0.0981 -0.0505 -0.0479
 1970POPC   PO423894   1.272  26.638   7.642  0.0427 -0.0355  0.0485
 1970POPC   GL123895   1.081  26.584   7.355 -0.2300  0.2666  0.1454
 1970POPC   GL223896   1.020  26.361   7.130 -0.2944 -0.1907  0.2777
 1970POPC   C1A23897   0.988  26.877   6.988  0.2195 -0.0546 -0.1277
 1970POPC   D2A23898   1.145  27.297   6.881  0.0202 -0.0530  0.0303
 1970POPC   C3A23899   1.330  27.208   6.455 -0.0761 -0.1875 -0.0657
 1970POPC   C4A23900   1.438  27.455   6.035  0.3111  0.2667  0.2962
 1970POPC   C1B23901   0.725  26.522   6.779 -0.1572 -0.0593 -0.3543
 1970POPC   C2B23902   0.398  26.762   6.551 -0.2718 -0.0638 -0.0549
 1970POPC   C3B23903   0.432  27.033   6.163  0.0649 -0.1630 -0.0074
 1970POPC   C4B23904   0.121  27.045   5.892  0.1537 -0.2318 -0.2158
 1971POPC   NC323905   4.605  31.585   7.670 -0.0715  0.2983  0.0974
 1971POPC   PO423906   4.728  31.954   7.597  0.1304 -0.1294 -0.1984
 1971POPC   GL123907   4.603  31.873   7.147  0.1312  0.1440 -0.0073
 1971POPC   GL223908   4.807  32.083   7.079  0.0886  0.0971  0.5975
 1971POPC   C1A23909   4.537  31.690   6.762 -0.0063 -0.0023 -0.0462
 1971POPC   D2A23910   4.785  31.492   6.455 -0.1906 -0.2269 -0.2185
 1971POPC   C3A23911   4.715  31.380   6.063  0.0326 -0.0320  0.2677
 1971POPC   C4A23912   4.346  31.228   5.941  0.1632  0.0135  0.1088
 1971POPC   C1B23913   4.837  32.506   6.826 -0.0156  0.0050 -0.1751
 1971POPC   C2B23914   4.774  32.827   6.485  0.2400 -0.2853 -0.2200
 1971POPC   C3B23915   4.911  32.864   6.049  0.1161 -0.1787  0.1684
 1971POPC   C4B23916   4.903  32.943   5.617  0.1508  0.0240  0.2016
 1972POPC   NC323917  10.187   4.332   7.330 -0.6219  0.1078 -0.0325
 1972POPC   PO423918   9.920   4.457   7.592  0.0485 -0.0080 -0.2409
 1972POPC   GL123919   9.958   4.675   7.228 -0.0147 -0.3845  0.1888
 1972POPC   GL223920  10.182   4.838   7.396 -0.0610  0.0306 -0.0469
 1972POPC   C1A23921  10.040   4.457   6.845 -0.1696  0.2467  0.0062
 1972POPC   D2A23922   9.820   4.414   6.491 -0.1668 -0.0338 -0.0451
 1972POPC   C3A23923   9.573   4.505   6.149  0.2428  0.3138  0.1575
 1972POPC   C4A23924   9.161   4.607   5.867 -0.1458  0.0800 -0.2801
 1972POPC   C1B23925  10.226   4.882   6.930 -0.2524  0.0073  0.2670
 1972POPC   C2B23926  10.311   4.682   6.515 -0.1253  0.2686  0.2533
 1972POPC   C3B23927  10.133   4.856   6.097  0.1038 -0.0309  0.1137
 1972POPC   C4B23928   9.963   5.247   5.944 -0.2074 -0.1982 -0.2618
 1973POPC   NC323929  13.215  30.158   7.384 -0.0927 -0.1059  0.0544
 1973POPC   PO423930  12.878  30.127   7.161  0.0086  0.0575 -0.0474
 1973POPC   GL123931  12.823  29.961   6.757 -0.0249 -0.0105  0.1269
 1973POPC   GL223932  12.713  29.696   6.855 -0.0150 -0.3077 -0.1984
 1973POPC   C1A23933  13.123  30.084   6.420  0.1255 -0.1107  0.1199
 1973POPC   D2A23934  13.291  30.017   6.013  0.0952  0.4725  0.2810
 1973POPC   C3A23935  13.012  29.887   5.622 -0.0321  0.0897 -0.4050
 1973POPC   C4A23936  12.801  29.533   5.699 -0.0789 -0.1812 -0.0546
 1973POPC   C1B23937  12.572  29.669   6.429 -0.0971  0.2158  0.2150
 1973POPC   C2B23938  12.437  29.704   5.965 -0.1350 -0.1279 -0.1578
 1973POPC   C3B23939  12.526  29.981   5.616 -0.0008 -0.0362  0.2742
 1973POPC   C4B23940  12.781  29.961   5.200 -0.2099  0.1283 -0.1672
 1974POPC   NC323941  15.393  21.063   8.048  0.0187  0.1531  0.1151
 1974POPC   PO423942  15.636  21.296   7.821  0.2063  0.0791 -0.1695
 1974POPC   GL123943  15.448  21.304   7.498  0.0348 -0.1386  0.2876
 1974POPC   GL223944  15.261  21.071   7.425 -0.3939  0.0928 -0.0159
 1974POPC   C1A23945  15.376  21.563   7.125  0.3381 -0.1876  0.1319
 1974POPC   D2A23946  15.511  21.820   6.741 -0.3614 -0.1057 -0.3679
 1974POPC   C3A23947  15.387  22.117   6.385  0.2200 -0.0304  0.1095
 1974POPC   C4A23948  15.146  22.001   6.048 -0.0031 -0.2011 -0.2092
 1974POPC   C1B23949  15.118  21.162   6.943  0.1066 -0.2153 -0.1939
 1974POPC   C2B23950  15.412  21.257   6.571  0.2628  0.4321 -0.0168
 1974POPC   C3B23951  15.509  21.584   6.305  0.0115 -0.0008 -0.0863
 1974POPC   C4B23952  15.649  21.907   5.978 -0.2561  0.0162 -0.0491
 1975POPC   NC323953  12.329   1.749   7.822  0.3134 -0.3439 -0.2840
 1975POPC   PO423954  11.914   1.772   7.812  0.0736  0.1622 -0.0769
 1975POPC   GL123955  11.931   1.676   7.429 -0.2778  0.4301  0.1413
 1975POPC   GL223956  12.168   1.870   7.343 -0.3257 -0.1507 -0.1154
 1975POPC   C1A23957  12.017   1.395   7.071  0.3988  0.2839  0.0539
 1975POPC   D2A23958  12.209   1.227   6.647  0.2694 -0.2465 -0.2231
 1975POPC   C3A23959  12.324   1.331   6.211 -0.0918 -0.0978 -0.0145
 1975POPC   C4A23960  12.569   1.450   5.812 -0.0146  0.3484 -0.0145
 1975POPC   C1B23961  12.118   1.834   6.930  0.1017 -0.0235  0.1966
 1975POPC   C2B23962  12.114   1.719   6.508 -0.0122  0.1436  0.0380
 1975POPC   C3B23963  12.142   1.761   6.043  0.0251 -0.2371  0.0083
 1975POPC   C4B23964  12.001   1.407   5.748 -0.1793  0.1262 -0.1312
 1976POPC   NC323965  11.392  18.904   7.540  0.1636 -0.1384 -0.2482
 1976POPC   PO423966  11.298  18.503   7.547  0.0754 -0.1389 -0.0376
 1976POPC   GL123967  11.080  18.293   7.287  0.0222  0.0939  0.1744
 1976POPC   GL223968  10.859  18.470   7.300 -0.0981 -0.0660 -0.0292
 1976POPC   C1A23969  10.950  18.110   6.858  0.2012 -0.2709  0.0468
 1976POPC   D2A23970  10.849  18.149   6.412 -0.0330 -0.1295 -0.1941
 1976POPC   C3A23971  10.571  17.821   6.155 -0.3415 -0.0444 -0.2251
 1976POPC   C4A23972  10.447  17.381   6.083  0.2141 -0.1085 -0.2969
 1976POPC   C1B23973  11.106  18.567   6.939  0.2869 -0.1183  0.2054
 1976POPC   C2B23974  11.312  18.380   6.567  0.2597 -0.0098  0.3858
 1976POPC   C3B23975  11.281  18.183   6.153  0.1607  0.1398  0.0651
 1976POPC   C4B23976  10.943  18.104   5.907 -0.1570  0.0793  0.2376
 1977POPC   NC323977   8.224   8.992   7.532 -0.4454 -0.1821  0.0207
 1977POPC   PO423978   8.516   8.975   7.322 -0.0565  0.4323  0.1285
 1977POPC   GL123979   8.069   8.957   7.096 -0.1379  0.1586  0.1198
 1977POPC   GL223980   7.921   9.189   7.004 -0.1339 -0.1345 -0.2716
 1977POPC   C1A23981   7.844   8.825   6.665  0.0997 -0.0227  0.1393
 1977POPC   D2A23982   7.760   8.434   6.412  0.2189 -0.0619  0.2552
 1977POPC   C3A23983   7.746   8.602   5.961  0.1020  0.1907 -0.3883
 1977POPC   C4A23984   7.678   8.605   5.506 -0.1487  0.1636  0.3825
 1977POPC   C1B23985   7.969   9.389   6.587 -0.0105 -0.2432 -0.1847
 1977POPC   C2B23986   8.155   9.743   6.314 -0.0264  0.2033  0.0265
 1977POPC   C3B23987   8.158   9.855   5.889  0.1300  0.1630 -0.4630
 1977POPC   C4B23988   8.160   9.827   5.396 -0.0757 -0.1385  0.3760
 1978POPC   NC323989   4.141   3.837   8.530  0.0120  0.1336 -0.0996
 1978POPC   PO423990   3.886   4.068   8.321  0.4318  0.1026  0.3524
 1978POPC   GL123991   3.817   3.972   7.892 -0.1435  0.1633  0.1275
 1978POPC   GL223992   3.954   4.144   7.757 -0.0723 -0.1395 -0.1944
 1978POPC   C1A23993   3.692   3.820   7.473 -0.3376 -0.2530  0.1857
 1978POPC   D2A23994   3.414   3.713   7.095  0.1504 -0.0187 -0.0474
 1978POPC   C3A23995   3.492   3.722   6.662 -0.0816  0.2368 -0.3047
 1978POPC   C4A23996   3.489   4.024   6.331  0.0677  0.1393 -0.1979
 1978POPC   C1B23997   4.133   4.125   7.334 -0.0648  0.2853 -0.0389
 1978POPC   C2B23998   4.346   3.920   6.966  0.1353  0.0490  0.2952
 1978POPC   C3B23999   4.266   4.262   6.685 -0.0533 -0.3173 -0.1726
 1978POPC   C4B24000   4.183   4.636   6.482  0.5453  0.0234 -0.0114
 1979POPC   NC324001  11.651  12.549   8.102  0.2031  0.1900 -0.0655
 1979POPC   PO424002  11.611  12.804   7.823 -0.0207  0.1533 -0.3017
 1979POPC   GL124003  11.770  13.085   7.471  0.0552  0.0032 -0.3007
 1979POPC   GL224004  11.663  12.902   7.217 -0.3468 -0.1545 -0.1367
 1979POPC   C1A24005  11.943  13.397   7.188  0.0518 -0.0311  0.0702
 1979POPC   D2A24006  12.227  13.664   7.093 -0.3494  0.0246 -0.1258
 1979POPC   C3A24007  12.562  13.313   7.047  0.0180 -0.4992  0.2532
 1979POPC   C4A24008  12.628  13.041   6.670  0.0205 -0.1650 -0.1212
 1979POPC   C1B24009  11.832  12.745   6.809  0.0210 -0.0888 -0.1404
 1979POPC   C2B24010  11.719  12.705   6.383  0.1680  0.0792 -0.3303
 1979POPC   C3B24011  11.554  12.728   5.936 -0.0628 -0.0829 -0.0115
 1979POPC   C4B24012  11.785  12.861   5.561  0.1323 -0.0426  0.2186
 1980POPC   NC324013   6.173   9.766   7.898 -0.1992 -0.0653  0.1658
 1980POPC   PO424014   6.333   9.437   7.849 -0.0755 -0.0927 -0.1789
 1980POPC   GL124015   6.461   9.479   7.478 -0.1814  0.1727 -0.2437
 1980POPC   GL224016   6.190   9.620   7.397  0.0189  0.3039  0.1070
 1980POPC   C1A24017   6.395   9.398   7.036  0.1624 -0.0047 -0.0389
 1980POPC   D2A24018   6.251   9.521   6.596  0.0008 -0.1026 -0.2329
 1980POPC   C3A24019   6.307  10.037   6.520 -0.0905 -0.1880 -0.1174
 1980POPC   C4A24020   6.617  10.340   6.377  0.2027  0.1766 -0.2084
 1980POPC   C1B24021   6.253   9.894   7.025 -0.1019 -0.0913  0.2081
 1980POPC   C2B24022   6.438  10.319   6.905 -0.0679 -0.1272 -0.2258
 1980POPC   C3B24023   6.280  10.709   6.700  0.0865 -0.1924 -0.3630
 1980POPC   C4B24024   6.352  11.158   6.667  0.3943  0.0457 -0.0885
 1981POPC   NC324025   4.033   7.121   8.066 -0.0743  0.0910 -0.0560
 1981POPC   PO424026   4.083   7.508   8.003  0.2424  0.1236 -0.2803
 1981POPC   GL124027   3.665   7.650   7.882 -0.0531  0.0498 -0.1696
 1981POPC   GL224028   3.767   7.772   7.601 -0.0112 -0.2804 -0.2879
 1981POPC   C1A24029   3.381   7.524   7.492 -0.0392 -0.0424 -0.1790
 1981POPC   D2A24030   3.480   7.073   7.227 -0.1421 -0.4683 -0.1324
 1981POPC   C3A24031   3.562   7.121   6.760 -0.0603 -0.3418 -0.0515
 1981POPC   C4A24032   3.685   7.212   6.354 -0.0149 -0.0301 -0.0640
 1981POPC   C1B24033   3.601   7.937   7.198  0.0855 -0.0696  0.3134
 1981POPC   C2B24034   3.554   8.074   6.739  0.0996  0.1677  0.3255
 1981POPC   C3B24035   3.265   8.177   6.377 -0.0135 -0.1364 -0.0712
 1981POPC   C4B24036   3.132   8.023   5.964 -0.0472  0.0618  0.0536
 1982POPC   NC324037  13.786   9.179   8.136 -0.0076 -0.1081  0.1087
 1982POPC   PO424038  14.051   9.517   8.122 -0.0677 -0.0192  0.1448
 1982POPC   GL124039  13.878   9.586   7.843  0.2064 -0.1681  0.2300
 1982POPC   GL224040  13.603   9.530   7.755  0.2025 -0.1449 -0.3244
 1982POPC   C1A24041  13.926   9.843   7.438 -0.1076 -0.1129  0.0381
 1982POPC   D2A24042  13.954  10.012   7.014  0.0864 -0.0500  0.0424
 1982POPC   C3A24043  13.776   9.917   6.612  0.0017 -0.1652  0.2387
 1982POPC   C4A24044  13.796   9.747   6.133  0.3876 -0.0384  0.1057
 1982POPC   C1B24045  13.540   9.544   7.274  0.0032  0.2410  0.0248
 1982POPC   C2B24046  13.516   9.460   6.788 -0.0228 -0.1115 -0.2420
 1982POPC   C3B24047  13.326   9.436   6.328 -0.0496 -0.1084  0.0278
 1982POPC   C4B24048  13.275   9.481   5.914 -0.0255 -0.1755  0.0095
 1983POPC   NC324049   1.685  11.079   7.353  0.0708  0.0271 -0.1139
 1983POPC   PO424050   1.980  11.185   7.559  0.0985 -0.1226  0.1877
 1983POPC   GL124051   2.267  11.224   7.335 -0.2218 -0.0839  0.1769
 1983POPC   GL224052   2.276  11.469   7.221 -0.2070  0.1070  0.1803
 1983POPC   C1A24053   2.554  11.062   7.058 -0.2280  0.3200 -0.0688
 1983POPC   D2A24054   2.734  11.035   6.664  0.1352 -0.2854 -0.2374
 1983POPC   C3A24055   2.705  10.724   6.369  0.3244 -0.1676 -0.1102
 1983POPC   C4A24056   2.628  10.722   5.915  0.1094  0.1409  0.1594
 1983POPC   C1B24057   2.062  11.133   6.859  0.1177  0.0895  0.2475
 1983POPC   C2B24058   1.758  10.766   6.869  0.1960  0.3632 -0.1814
 1983POPC   C3B24059   1.537  10.341   6.827 -0.2670 -0.1127  0.1280
 1983POPC   C4B24060   1.397   9.922   6.637 -0.2247 -0.0110  0.1980
 1984POPC   NC324061   8.269   5.530   7.550  0.0020  0.2973  0.0756
 1984POPC   PO424062   8.407   5.909   7.625 -0.2661  0.0789 -0.2871
 1984POPC   GL124063   8.255   6.163   7.369 -0.0757  0.0364  0.1261
 1984POPC   GL224064   8.411   6.099   7.143  0.3260 -0.0674  0.0955
 1984POPC   C1A24065   7.949   6.267   7.082  0.0610  0.2432 -0.0231
 1984POPC   D2A24066   7.844   6.311   6.639 -0.1023 -0.0533  0.0467
 1984POPC   C3A24067   7.801   6.141   6.176 -0.3519 -0.0971 -0.1610
 1984POPC   C4A24068   7.579   5.887   5.818 -0.0107 -0.0366  0.0882
 1984POPC   C1B24069   8.637   6.304   6.918 -0.3756 -0.0125  0.0216
 1984POPC   C2B24070   9.032   6.343   6.638  0.0670  0.0749  0.0972
 1984POPC   C3B24071   9.070   6.467   6.238  0.1340 -0.2042 -0.0878
 1984POPC   C4B24072   9.271   6.430   5.844 -0.3881  0.0450  0.0388
 1985POPC   NC324073  12.964  28.384   7.321  0.3065  0.0603  0.0737
 1985POPC   PO424074  13.085  28.735   7.305  0.1963 -0.3020 -0.0489
 1985POPC   GL124075  13.134  28.967   7.058 -0.0202 -0.0567 -0.1894
 1985POPC   GL224076  12.952  29.225   7.059 -0.1066  0.0862  0.1279
 1985POPC   C1A24077  13.176  28.902   6.587  0.2057  0.2619 -0.3280
 1985POPC   D2A24078  13.226  29.184   6.219  0.2168 -0.1031  0.1780
 1985POPC   C3A24079  13.045  29.064   5.765 -0.0333  0.0641 -0.2552
 1985POPC   C4A24080  12.788  29.134   5.438 -0.2159  0.0861  0.0197
 1985POPC   C1B24081  12.773  29.194   6.641  0.0290  0.2884  0.1897
 1985POPC   C2B24082  12.689  29.125   6.190  0.0667  0.2093  0.1882
 1985POPC   C3B24083  12.393  29.209   5.835  0.1485 -0.1708 -0.0351
 1985POPC   C4B24084  12.021  29.494   5.820 -0.0445 -0.0196  0.2138
 1986POPC   NC324085   8.824  18.238   7.912  0.0497  0.0644  0.2286
 1986POPC   PO424086   8.794  18.608   7.973 -0.0501 -0.2425 -0.1542
 1986POPC   GL124087   8.752  18.565   7.547 -0.3035 -0.0498 -0.2017
 1986POPC   GL224088   8.482  18.484   7.583 -0.2429  0.1245 -0.0438
 1986POPC   C1A24089   8.974  18.531   7.137 -0.0448  0.2075  0.1423
 1986POPC   D2A24090   9.300  18.349   6.843  0.5130  0.0817  0.3309
 1986POPC   C3A24091   9.651  18.013   6.838 -0.2954  0.1108  0.2342
 1986POPC   C4A24092  10.064  18.092   7.002 -0.2307  0.1777  0.0563
 1986POPC   C1B24093   8.627  18.132   7.316 -0.0935 -0.0468 -0.0811
 1986POPC   C2B24094   8.624  17.927   6.941  0.0628  0.3084  0.2317
 1986POPC   C3B24095   8.676  17.565   6.593 -0.2022 -0.1331 -0.0604
 1986POPC   C4B24096   8.520  17.536   6.161 -0.5504 -0.0288  0.0165
 1987POPC   NC324097  13.872  27.364   7.236 -0.1054 -0.1374 -0.2074
 1987POPC   PO424098  14.048  27.668   7.353  0.1532 -0.0588  0.0690
 1987POPC   GL124099  14.330  27.508   7.068  0.1328  0.1018  0.2292
 1987POPC   GL224100  14.630  27.573   7.132 -0.0006 -0.0857  0.0563
 1987POPC   C1A24101  14.161  27.330   6.669  0.1125  0.0839  0.3966
 1987POPC   D2A24102  14.055  27.098   6.217 -0.0381  0.1909 -0.0549
 1987POPC   C3A24103  13.948  27.409   5.888 -0.1596 -0.0615  0.3238
 1987POPC   C4A24104  13.728  27.589   5.526 -0.0353  0.0861  0.2128
 1987POPC   C1B24105  14.760  27.613   6.698 -0.1751 -0.1031 -0.1359
 1987POPC   C2B24106  14.720  27.729   6.274  0.2970  0.0490 -0.2104
 1987POPC   C3B24107  14.638  27.949   5.865  0.0831 -0.0035  0.0456
 1987POPC   C4B24108  14.646  28.164   5.453  0.2067 -0.0171  0.1891
 1988POPC   NC324109  15.555  31.690   7.696 -0.4112 -0.0017  0.0022
 1988POPC   PO424110  15.592  31.320   7.657  0.0626  0.1426  0.1107
 1988POPC   GL124111  15.633  31.310   7.252 -0.0009  0.1291 -0.1115
 1988POPC   GL224112  15.652  31.597   7.181  0.0517  0.1128  0.1668
 1988POPC   C1A24113  15.681  31.032   6.912  0.0539 -0.2171  0.1668
 1988POPC   D2A24114  15.585  30.935   6.475  0.0715 -0.0719  0.0343
 1988POPC   C3A24115  15.676  31.197   6.093 -0.2382  0.4075 -0.2123
 1988POPC   C4A24116  15.525  31.641   5.945  0.1316  0.1396  0.1342
 1988POPC   C1B24117  15.640  31.699   6.752  0.3127  0.2464 -0.0303
 1988POPC   C2B24118  15.317  31.842   6.463  0.2023 -0.2105 -0.0803
 1988POPC   C3B24119  15.046  32.111   6.127 -0.1168  0.0000 -0.3552
 1988POPC   C4B24120  14.875  32.203   5.738  0.3763 -0.0014  0.2050
 1989POPC   NC324121   0.266   2.425   7.684 -0.0244 -0.0707 -0.2405
 1989POPC   PO424122   0.026   2.079   7.778 -0.0497 -0.1127 -0.1369
 1989POPC   GL124123  -0.217   2.400   7.595  0.0638 -0.0969  0.2251
 1989POPC   GL224124  -0.106   2.302   7.387  0.2161 -0.2552  0.0492
 1989POPC   C1A24125  -0.202   2.753   7.296 -0.0015 -0.2226 -0.3774
 1989POPC   D2A24126  -0.103   2.871   6.885  0.0018 -0.1131 -0.0549
 1989POPC   C3A24127  -0.276   3.027   6.533  0.3570 -0.0200  0.0875
 1989POPC   C4A24128  -0.695   2.896   6.418 -0.1419  0.1461  0.0208
 1989POPC   C1B24129  -0.076   2.392   6.918 -0.1393  0.0765 -0.0314
 1989POPC   C2B24130  -0.171   2.479   6.492 -0.0174  0.1636  0.0209
 1989POPC   C3B24131  -0.373   2.659   6.085 -0.1797 -0.1467 -0.1592
 1989POPC   C4B24132  -0.544   3.058   5.992 -0.2765  0.2950  0.0891
 1990POPC   NC324133   9.258  24.919   7.890 -0.0010  0.1036  0.1201
 1990POPC   PO424134   8.929  25.153   7.918 -0.0981 -0.0150 -0.2977
 1990POPC   GL124135   8.832  25.141   7.513  0.3609 -0.0070  0.5508
 1990POPC   GL224136   8.956  24.906   7.406 -0.0823  0.2131 -0.0439
 1990POPC   C1A24137   8.493  24.994   7.242  0.1256  0.2155 -0.1126
 1990POPC   D2A24138   8.251  24.639   7.005  0.2036 -0.1388 -0.0756
 1990POPC   C3A24139   8.212  24.182   7.206  0.1387  0.0020 -0.0374
 1990POPC   C4A24140   8.498  23.948   7.458 -0.1176 -0.1039  0.1060
 1990POPC   C1B24141   8.996  25.108   6.990  0.2687 -0.0473 -0.1318
 1990POPC   C2B24142   9.026  25.119   6.501  0.0149 -0.0527  0.1486
 1990POPC   C3B24143   8.759  24.836   6.205 -0.1719  0.0282 -0.0900
 1990POPC   C4B24144   8.412  24.837   5.966  0.0740 -0.0230  0.1526
 1991POPC   NC324145   9.519  14.978   7.600  0.1651 -0.0921  0.1023
 1991POPC   PO424146   9.622  14.738   7.876  0.2100  0.1897 -0.0112
 1991POPC   GL124147   9.877  14.720   7.499  0.0379  0.0654 -0.1208
 1991POPC   GL224148   9.773  14.462   7.367  0.0871 -0.0647  0.3853
 1991POPC   C1A24149   9.974  14.833   7.086  0.1531 -0.1639 -0.3723
 1991POPC   D2A24150   9.856  14.864   6.666  0.0804 -0.1412  0.0856
 1991POPC   C3A24151   9.666  15.086   6.241 -0.2066 -0.3033 -0.1655
 1991POPC   C4A24152   9.437  15.432   6.017 -0.2075 -0.0334 -0.0968
 1991POPC   C1B24153   9.512  14.479   6.996 -0.2629 -0.1020 -0.1251
 1991POPC   C2B24154   9.488  14.495   6.546 -0.2614  0.1634  0.1115
 1991POPC   C3B24155   9.618  14.552   6.052  0.1831  0.1539 -0.0400
 1991POPC   C4B24156   9.793  14.929   5.781 -0.0012  0.0294 -0.0893
 1992POPC   NC324157   5.905  22.644   8.039  0.0125 -0.1071  0.0266
 1992POPC   PO424158   5.898  22.416   7.702 -0.1051 -0.1429 -0.0449
 1992POPC   GL124159   6.035  22.142   7.442  0.0590  0.0982 -0.3258
 1992POPC   GL224160   6.006  22.214   7.153  0.2135 -0.2689  0.0379
 1992POPC   C1A24161   6.085  21.706   7.484  0.0515  0.1417  0.3293
 1992POPC   D2A24162   6.078  21.263   7.725 -0.3200 -0.0176  0.0570
 1992POPC   C3A24163   5.780  20.949   7.850 -0.0894 -0.2912  0.1161
 1992POPC   C4A24164   5.470  20.744   7.550  0.0040 -0.1989  0.0213
 1992POPC   C1B24165   5.967  22.329   6.686  0.0689  0.0281  0.0038
 1992POPC   C2B24166   6.095  22.542   6.289  0.1292 -0.2501 -0.3181
 1992POPC   C3B24167   5.972  22.846   5.916  0.0418 -0.0185 -0.3624
 1992POPC   C4B24168   5.639  22.999   5.677 -0.2991  0.0738 -0.2413
 1993POPC   NC324169   7.140  23.188   7.439  0.2211 -0.1664 -0.2457
 1993POPC   PO424170   7.333  23.268   7.791 -0.2141 -0.0975  0.3148
 1993POPC   GL124171   7.587  23.298   7.324 -0.0249  0.1479 -0.5267
 1993POPC   GL224172   7.589  23.027   7.221  0.0246 -0.0101 -0.2940
 1993POPC   C1A24173   7.481  23.438   6.906 -0.1551 -0.1108  0.2349
 1993POPC   D2A24174   7.354  23.454   6.454 -0.1164 -0.1203 -0.1459
 1993POPC   C3A24175   7.077  23.795   6.195  0.0332 -0.1528 -0.3529
 1993POPC   C4A24176   6.824  24.209   6.115 -0.0035  0.2577  0.1196
 1993POPC   C1B24177   7.663  22.925   6.742 -0.0507 -0.3131  0.1336
 1993POPC   C2B24178   7.571  22.734   6.358  0.0168  0.0152  0.0102
 1993POPC   C3B24179   7.414  22.751   5.987 -0.1556 -0.1770  0.3263
 1993POPC   C4B24180   7.509  22.426   5.658 -0.1181 -0.1134  0.0273
 1994POPC   NC324181   8.973  18.995   7.635  0.0109 -0.0963 -0.0532
 1994POPC   PO424182   9.279  19.020   7.382  0.0645 -0.1315 -0.2283
 1994POPC   GL124183   8.981  19.010   7.100  0.2523 -0.1330 -0.2227
 1994POPC   GL224184   8.800  19.268   7.144 -0.4932 -0.0572  0.2078
 1994POPC   C1A24185   9.069  18.820   6.655 -0.1932 -0.0751 -0.2286
 1994POPC   D2A24186   8.991  18.465   6.332 -0.1638  0.1276  0.0919
 1994POPC   C3A24187   8.889  18.598   5.887 -0.0764  0.1465 -0.2994
 1994POPC   C4A24188   8.821  18.703   5.485  0.1451  0.0313  0.2745
 1994POPC   C1B24189   8.636  19.062   6.758 -0.0662 -0.0944  0.0811
 1994POPC   C2B24190   8.630  18.898   6.300 -0.0023  0.0933 -0.1305
 1994POPC   C3B24191   8.664  19.061   5.897  0.0822  0.3688 -0.0296
 1994POPC   C4B24192   8.664  19.404   5.630 -0.0277  0.0992  0.1114
 1995POPC   NC324193   4.245   4.651   7.924  0.5530  0.0292  0.1062
 1995POPC   PO424194   3.871   4.637   8.054 -0.0902  0.0461  0.0579
 1995POPC   GL124195   3.741   4.742   7.716 -0.5236  0.2372  0.2056
 1995POPC   GL224196   3.480   4.677   7.634 -0.0478  0.3144  0.2322
 1995POPC   C1A24197   3.870   4.988   7.341 -0.3473 -0.0468  0.0595
 1995POPC   D2A24198   3.967   5.294   6.995  0.4190  0.1356  0.2932
 1995POPC   C3A24199   4.064   5.211   6.516 -0.0204 -0.2045 -0.0934
 1995POPC   C4A24200   4.340   5.311   6.185  0.0032  0.2245  0.1909
 1995POPC   C1B24201   3.595   4.335   7.358 -0.0070  0.0763 -0.0704
 1995POPC   C2B24202   3.707   4.095   6.990 -0.0053 -0.3507  0.0179
 1995POPC   C3B24203   3.915   3.995   6.587  0.0138  0.4931  0.1141
 1995POPC   C4B24204   3.930   4.257   6.209 -0.0468 -0.2780 -0.2435
 1996POPC   NC324205   1.148  31.052   8.387  0.1583 -0.1884  0.0982
 1996POPC   PO424206   0.916  31.397   8.313 -0.1089  0.0007  0.1280
 1996POPC   GL124207   1.085  31.466   7.966 -0.2743 -0.0798  0.2942
 1996POPC   GL224208   1.370  31.421   7.999  0.2085  0.0580  0.1979
 1996POPC   C1A24209   1.065  31.447   7.468  0.1085 -0.2281  0.0568
 1996POPC   D2A24210   0.685  31.397   7.177 -0.0310  0.1308 -0.2405
 1996POPC   C3A24211   0.654  31.408   6.729 -0.2824 -0.1280 -0.0027
 1996POPC   C4A24212   0.650  31.211   6.279  0.0314 -0.3112 -0.2200
 1996POPC   C1B24213   1.438  31.092   7.638 -0.1404  0.2100 -0.1807
 1996POPC   C2B24214   1.497  31.043   7.166 -0.3352 -0.0956  0.1487
 1996POPC   C3B24215   1.599  31.037   6.680  0.0033  0.0176 -0.1858
 1996POPC   C4B24216   1.807  31.087   6.268 -0.2855 -0.1536  0.1848
 1997POPC   NC324217   3.608  20.130   7.758 -0.1030 -0.0460 -0.0698
 1997POPC   PO424218   3.352  20.426   7.797 -0.0025  0.0495  0.4411
 1997POPC   GL124219   3.502  20.648   7.549 -0.1615  0.1075  0.0231
 1997POPC   GL224220   3.357  20.707   7.303  0.0698 -0.4336 -0.4103
 1997POPC   C1A24221   3.792  20.909   7.299  0.0252 -0.3514 -0.0094
 1997POPC   D2A24222   4.096  20.850   6.973 -0.0095  0.2254 -0.1469
 1997POPC   C3A24223   4.254  20.896   6.533  0.0277 -0.3072  0.3576
 1997POPC   C4A24224   4.520  20.998   6.160 -0.0020 -0.0360 -0.3303
 1997POPC   C1B24225   3.543  20.777   6.909 -0.1733  0.1029 -0.0684
 1997POPC   C2B24226   3.735  20.660   6.483  0.1786 -0.1442  0.0694
 1997POPC   C3B24227   3.986  20.655   6.097 -0.1702 -0.1614 -0.0991
 1997POPC   C4B24228   4.244  20.618   5.689 -0.2974 -0.0908 -0.1226
 1998POPC   NC324229   7.959  10.765   7.750  0.0196  0.1180  0.1457
 1998POPC   PO424230   8.261  10.702   7.513 -0.3503  0.2787  0.3129
 1998POPC   GL124231   8.393  10.913   7.236  0.1247  0.2945  0.1914
 1998POPC   GL224232   8.646  10.854   7.171 -0.2736  0.0234  0.0858
 1998POPC   C1A24233   8.444  11.338   7.044 -0.2566  0.2876  0.2904
 1998POPC   D2A24234   8.421  11.620   6.652 -0.0279 -0.0129 -0.0142
 1998POPC   C3A24235   8.152  11.514   6.263  0.0457  0.1607  0.0226
 1998POPC   C4A24236   7.764  11.399   5.997  0.1018  0.1489  0.0810
 1998POPC   C1B24237   8.739  11.032   6.758 -0.1354 -0.2857 -0.1483
 1998POPC   C2B24238   8.516  11.163   6.383 -0.2144  0.0233 -0.2549
 1998POPC   C3B24239   8.550  11.076   5.917  0.0375  0.1013 -0.3100
 1998POPC   C4B24240   8.740  11.017   5.473  0.1621  0.0558  0.1160
 1999POPC   NC324241   0.956  27.790   7.915  0.4069  0.0194  0.0876
 1999POPC   PO424242   1.001  27.422   7.784 -0.2640 -0.3007 -0.4506
 1999POPC   GL124243   0.773  27.569   7.548 -0.0646 -0.0699 -0.3994
 1999POPC   GL224244   0.887  27.746   7.345 -0.0134 -0.1946 -0.1086
 1999POPC   C1A24245   0.670  27.234   7.196 -0.2702  0.1757 -0.0595
 1999POPC   D2A24246   0.589  27.231   6.729 -0.3710  0.5649  0.2321
 1999POPC   C3A24247   0.870  26.935   6.523  0.2523 -0.0013  0.1544
 1999POPC   C4A24248   0.816  26.586   6.227 -0.1742  0.1246 -0.0757
 1999POPC   C1B24249   0.826  27.670   6.865  0.0475 -0.1937  0.3427
 1999POPC   C2B24250   1.068  27.638   6.443 -0.0978 -0.0889 -0.0249
 1999POPC   C3B24251   1.113  27.842   6.071 -0.1331 -0.1224  0.0938
 1999POPC   C4B24252   1.113  27.573   5.652 -0.2242  0.3566  0.0140
 2000POPC   NC324253  10.157  30.958   7.757  0.5304 -0.0959  0.1103
 2000POPC   PO424254  10.079  31.364   7.645  0.0796 -0.3902  0.0822
 2000POPC   GL124255  10.200  31.181   7.317 -0.1537 -0.2002 -0.0248
 2000POPC   GL224256  10.181  31.324   7.088 -0.0131  0.4193 -0.0283
 2000POPC   C1A24257  10.015  30.797   7.155  0.0251 -0.0080 -0.0429
 2000POPC   D2A24258  10.113  30.601   6.705  0.2155 -0.0127  0.1744
 2000POPC   C3A24259   9.873  30.755   6.288  0.0211 -0.2531 -0.2025
 2000POPC   C4A24260   9.947  30.856   5.871  0.1167  0.0138  0.0530
 2000POPC   C1B24261  10.440  31.430   6.742 -0.1639  0.1891 -0.1089
 2000POPC   C2B24262  10.742  31.361   6.335  0.0193  0.0923 -0.1293
 2000POPC   C3B24263  10.737  31.542   5.915  0.3859  0.0817  0.1326
 2000POPC   C4B24264  10.733  31.805   5.484 -0.0544  0.2333 -0.0071
 2001POPC   NC324265   2.517  17.469   7.994  0.0987 -0.0003 -0.0174
 2001POPC   PO424266   2.627  17.774   8.220  0.1474  0.3291 -0.0852
 2001POPC   GL124267   2.544  17.890   7.858  0.1195  0.3239  0.1691
 2001POPC   GL224268   2.682  17.810   7.563  0.0356  0.0015 -0.2231
 2001POPC   C1A24269   2.198  18.196   7.715  0.1015 -0.0778  0.0261
 2001POPC   D2A24270   1.828  18.427   7.735 -0.3347  0.0329 -0.2018
 2001POPC   C3A24271   1.647  18.845   7.739  0.1257 -0.1014 -0.0798
 2001POPC   C4A24272   1.467  19.265   7.764  0.2864  0.2990  0.1967
 2001POPC   C1B24273   2.483  18.062   7.231  0.0592  0.2765  0.0287
 2001POPC   C2B24274   2.023  18.165   7.194  0.0864  0.0143 -0.2836
 2001POPC   C3B24275   1.693  18.243   6.886 -0.2397  0.2517 -0.1197
 2001POPC   C4B24276   1.418  18.248   6.514  0.0782  0.0764  0.0108
 2002POPC   NC324277   8.097  12.889   7.496 -0.3050  0.2050  0.0373
 2002POPC   PO424278   8.103  13.161   7.788 -0.0627 -0.1131  0.1686
 2002POPC   GL124279   8.096  13.344   7.381 -0.0686 -0.0890  0.0268
 2002POPC   GL224280   8.363  13.403   7.403  0.0210 -0.0824  0.1573
 2002POPC   C1A24281   7.697  13.387   7.128  0.1739  0.2713 -0.1645
 2002POPC   D2A24282   7.355  13.231   6.825  0.0278  0.0974 -0.3704
 2002POPC   C3A24283   7.517  13.087   6.383  0.2451 -0.0148 -0.2602
 2002POPC   C4A24284   7.978  12.988   6.296  0.1153 -0.0971  0.0274
 2002POPC   C1B24285   8.250  13.116   7.026  0.1258 -0.0122  0.1317
 2002POPC   C2B24286   8.482  12.918   6.708  0.0800  0.0663 -0.1894
 2002POPC   C3B24287   8.381  12.650   6.338 -0.0396 -0.0677 -0.1918
 2002POPC   C4B24288   8.085  12.465   6.041  0.0788 -0.1731 -0.1670
 2003POPC   NC324289   3.285  15.894   7.466 -0.1302 -0.1118 -0.0130
 2003POPC   PO424290   3.580  15.685   7.551 -0.3410  0.1552 -0.0081
 2003POPC   GL124291   3.688  15.838   7.182  0.0210  0.1000  0.4503
 2003POPC   GL224292   3.910  15.681   7.136  0.2529 -0.0191 -0.0684
 2003POPC   C1A24293   3.700  15.834   6.700 -0.0382 -0.0891 -0.0551
 2003POPC   D2A24294   4.055  15.782   6.329 -0.3951  0.1670 -0.0334
 2003POPC   C3A24295   4.066  15.865   5.889 -0.1110 -0.0552 -0.1705
 2003POPC   C4A24296   4.337  16.052   5.541  0.0157  0.2790  0.2528
 2003POPC   C1B24297   4.236  15.640   6.812  0.0724 -0.1653  0.1105
 2003POPC   C2B24298   4.507  15.483   6.446  0.0849 -0.0747  0.2667
 2003POPC   C3B24299   4.800  15.470   6.102 -0.0023  0.0419 -0.2733
 2003POPC   C4B24300   5.242  15.490   6.086  0.0205 -0.0065 -0.1461
 2004POPC   NC324301   9.204   9.505   7.467  0.0872 -0.1567 -0.1278
 2004POPC   PO424302   9.299   9.863   7.453 -0.2364  0.0736 -0.1497
 2004POPC   GL124303   9.473   9.991   7.148 -0.0442 -0.1046 -0.1466
 2004POPC   GL224304   9.676  10.241   7.230  0.1154 -0.1225 -0.0057
 2004POPC   C1A24305   9.846   9.840   6.879  0.2851 -0.0101  0.5740
 2004POPC   D2A24306  10.045   9.691   6.535  0.3862  0.1492  0.0500
 2004POPC   C3A24307   9.753   9.577   6.182 -0.1930 -0.2026 -0.0788
 2004POPC   C4A24308   9.854   9.501   5.741 -0.2655 -0.1564 -0.0442
 2004POPC   C1B24309   9.903  10.324   6.840 -0.2891  0.0733 -0.0495
 2004POPC   C2B24310  10.119  10.290   6.369 -0.2686 -0.0056 -0.1622
 2004POPC   C3B24311  10.061   9.966   6.026  0.0755  0.3452  0.0696
 2004POPC   C4B24312  10.113   9.953   5.585 -0.1310 -0.2412 -0.0891
 2005POPC   NC324313  12.224   0.954   7.890 -0.0890  0.0399 -0.3447
 2005POPC   PO424314  12.483   1.245   8.012 -0.1233  0.1345  0.1031
 2005POPC   GL124315  12.493   1.238   7.579  0.4630 -0.1483  0.2310
 2005POPC   GL224316  12.415   1.464   7.434  0.2080 -0.0286  0.3661
 2005POPC   C1A24317  12.207   0.992   7.348  0.0791 -0.0157  0.4821
 2005POPC   D2A24318  11.904   0.884   7.050 -0.0387  0.1396  0.2829
 2005POPC   C3A24319  12.081   0.675   6.661  0.3347  0.0058 -0.0161
 2005POPC   C4A24320  12.053   0.884   6.245 -0.0689  0.2526 -0.1107
 2005POPC   C1B24321  12.547   1.414   6.991  0.0287  0.1460  0.0023
 2005POPC   C2B24322  12.617   1.462   6.557 -0.0375  0.0331  0.0864
 2005POPC   C3B24323  12.688   1.788   6.269  0.4739  0.0601  0.0237
 2005POPC   C4B24324  12.929   1.976   5.921 -0.1778  0.1423 -0.0433
 2006POPC   NC324325   0.965  25.683   7.713  0.1621  0.1072  0.0146
 2006POPC   PO424326   0.780  25.378   7.888  0.2265  0.1111 -0.2688
 2006POPC   GL124327   0.516  25.492   7.667 -0.0212  0.1839 -0.3112
 2006POPC   GL224328   0.329  25.341   7.787 -0.2250  0.0487 -0.0781
 2006POPC   C1A24329   0.372  25.682   7.273  0.1286  0.2629 -0.0202
 2006POPC   D2A24330   0.096  25.855   6.904 -0.0311 -0.1152 -0.1467
 2006POPC   C3A24331   0.019  25.904   6.479 -0.1054  0.1227 -0.0908
 2006POPC   C4A24332  -0.121  25.758   6.049 -0.0352 -0.0368 -0.1624
 2006POPC   C1B24333   0.125  25.199   7.470 -0.3801 -0.0893 -0.0611
 2006POPC   C2B24334   0.135  25.174   7.058  0.1628  0.0933  0.0383
 2006POPC   C3B24335  -0.084  25.241   6.640  0.2094  0.2376 -0.0663
 2006POPC   C4B24336  -0.290  25.355   6.227 -0.0679 -0.0143  0.0622
 2007POPC   NC324337   7.952  28.864   8.469  0.1298  0.2903 -0.1334
 2007POPC   PO424338   7.723  29.011   8.205  0.1529 -0.1102 -0.0193
 2007POPC   GL124339   7.853  28.845   7.894  0.0760 -0.6124  0.2353
 2007POPC   GL224340   8.001  29.046   7.673  0.0853  0.2058  0.0247
 2007POPC   C1A24341   7.581  28.734   7.527  0.0522  0.1260  0.0397
 2007POPC   D2A24342   7.544  29.071   7.281  0.1204  0.1741  0.1252
 2007POPC   C3A24343   7.886  29.102   6.881  0.1833 -0.0202 -0.2798
 2007POPC   C4A24344   8.233  28.998   6.610  0.2579 -0.3150 -0.3426
 2007POPC   C1B24345   8.150  28.883   7.270  0.1855 -0.1223 -0.0958
 2007POPC   C2B24346   8.408  28.680   6.960 -0.0778  0.1222  0.3919
 2007POPC   C3B24347   8.502  28.528   6.533 -0.1689  0.1919 -0.0269
 2007POPC   C4B24348   8.621  28.132   6.213 -0.0176 -0.0419 -0.1568
 2008POPC   NC324349   3.767  13.699   7.694 -0.0040 -0.1885  0.0261
 2008POPC   PO424350   4.000  13.398   7.822  0.2172 -0.0211  0.2408
 2008POPC   GL124351   4.163  13.550   7.486 -0.2236  0.0304  0.0889
 2008POPC   GL224352   4.197  13.378   7.288  0.3993  0.3446 -0.1637
 2008POPC   C1A24353   4.029  13.898   7.244  0.2926 -0.1246 -0.2512
 2008POPC   D2A24354   3.899  14.285   7.004 -0.0970 -0.2416 -0.3244
 2008POPC   C3A24355   3.907  14.361   6.585 -0.0401 -0.0400  0.2819
 2008POPC   C4A24356   3.948  14.494   6.149 -0.0667 -0.0216 -0.1835
 2008POPC   C1B24357   4.365  13.754   6.986 -0.1976  0.1487 -0.3093
 2008POPC   C2B24358   4.201  13.886   6.562  0.1232 -0.2075 -0.1044
 2008POPC   C3B24359   3.886  13.971   6.229  0.0658 -0.2608  0.0665
 2008POPC   C4B24360   3.855  13.713   5.892 -0.0978 -0.1774 -0.3678
 2009POPC   NC324361  15.718  14.561   8.093 -0.0816  0.2897 -0.0496
 2009POPC   PO424362  15.859  14.503   7.757 -0.0688 -0.0489 -0.2517
 2009POPC   GL124363  15.854  14.298   7.381  0.3227 -0.0365  0.0021
 2009POPC   GL224364  16.091  14.132   7.406  0.1920  0.0640 -0.1574
 2009POPC   C1A24365  15.633  13.905   7.245 -0.1649 -0.1214  0.4217
 2009POPC   D2A24366  15.728  13.510   7.082  0.0454  0.2154 -0.0490
 2009POPC   C3A24367  15.825  13.380   6.637 -0.0021 -0.0430 -0.0744
 2009POPC   C4A24368  16.107  13.228   6.318  0.1640  0.0439  0.1328
 2009POPC   C1B24369  16.131  14.253   6.955 -0.0125 -0.0250 -0.0440
 2009POPC   C2B24370  16.235  14.115   6.501 -0.1826 -0.3769  0.1937
 2009POPC   C3B24371  16.373  13.968   6.154 -0.4937 -0.2089 -0.1446
 2009POPC   C4B24372  16.383  13.752   5.740  0.0058 -0.0307 -0.1164
 2010POPC   NC324373   2.633  25.455   7.648  0.1836 -0.2434  0.0294
 2010POPC   PO424374   2.890  25.557   7.340 -0.1362 -0.0444  0.0183
 2010POPC   GL124375   2.855  25.758   6.951  0.3414 -0.2131 -0.4609
 2010POPC   GL224376   2.662  25.982   6.974 -0.3461 -0.2228  0.1730
 2010POPC   C1A24377   2.791  25.557   6.516 -0.0977 -0.2146 -0.0010
 2010POPC   D2A24378   2.910  25.579   6.082  0.1614  0.1719  0.4735
 2010POPC   C3A24379   2.735  25.747   5.689  0.0468 -0.3380  0.0112
 2010POPC   C4A24380   2.406  25.683   5.460  0.0074 -0.0422 -0.2199
 2010POPC   C1B24381   2.486  25.952   6.525  0.2127 -0.3801 -0.0126
 2010POPC   C2B24382   2.508  25.905   6.092  0.0981 -0.1773 -0.0136
 2010POPC   C3B24383   2.337  26.069   5.705 -0.2985  0.0820 -0.2318
 2010POPC   C4B24384   1.934  26.056   5.518  0.0063 -0.3528 -0.2065
 2011POPC   NC324385  11.536  19.340   7.914 -0.0358 -0.1054 -0.1085
 2011POPC   PO424386  11.480  19.382   7.549 -0.2767 -0.0007 -0.0470
 2011POPC   GL124387  11.310  19.416   7.210 -0.2111 -0.3597 -0.2311
 2011POPC   GL224388  11.258  19.735   7.207 -0.0442 -0.0913 -0.2650
 2011POPC   C1A24389  11.064  19.304   6.756 -0.0788 -0.0065 -0.0699
 2011POPC   D2A24390  10.978  19.086   6.400  0.0652 -0.0635  0.0005
 2011POPC   C3A24391  11.091  19.152   5.968 -0.3066 -0.0301  0.2074
 2011POPC   C4A24392  11.252  19.122   5.507 -0.1283  0.0926 -0.2988
 2011POPC   C1B24393  11.249  19.892   6.842 -0.2080  0.1330 -0.1024
 2011POPC   C2B24394  11.131  19.936   6.419  0.0743  0.3080  0.0635
 2011POPC   C3B24395  11.190  19.600   6.078 -0.0831  0.1006  0.2839
 2011POPC   C4B24396  11.209  19.650   5.617  0.3264 -0.2434 -0.0767
 2012POPC   NC324397   9.680  20.995   7.570  0.1280 -0.0307  0.1875
 2012POPC   PO424398   9.683  21.393   7.718  0.0592  0.0710 -0.1731
 2012POPC   GL124399   9.751  21.686   7.357 -0.1973 -0.4627 -0.1136
 2012POPC   GL224400   9.961  21.642   7.235  0.0134 -0.0232 -0.0153
 2012POPC   C1A24401   9.603  21.826   6.940 -0.2449 -0.1796 -0.1264
 2012POPC   D2A24402   9.585  21.844   6.505 -0.4019  0.3598  0.4295
 2012POPC   C3A24403   9.900  21.897   6.202 -0.4649 -0.1791 -0.2948
 2012POPC   C4A24404  10.235  21.623   6.091  0.0873 -0.1194 -0.3999
 2012POPC   C1B24405  10.056  21.251   6.996 -0.1242 -0.1949  0.1549
 2012POPC   C2B24406  10.325  21.104   6.648  0.1402  0.1884 -0.3999
 2012POPC   C3B24407  10.212  21.111   6.235  0.0078 -0.0859  0.3035
 2012POPC   C4B24408   9.774  21.093   6.097 -0.1338 -0.1463  0.2267
 2013POPC   NC324409   1.343  29.207   7.866 -0.0778  0.0435  0.0806
 2013POPC   PO424410   0.945  29.092   7.821  0.2302  0.2028  0.0214
 2013POPC   GL124411   0.983  29.225   7.476  0.0961  0.0682 -0.2441
 2013POPC   GL224412   1.214  29.370   7.424  0.3260  0.1657 -0.3609
 2013POPC   C1A24413   0.969  29.011   7.107 -0.4199  0.2706 -0.2586
 2013POPC   D2A24414   0.925  29.090   6.685  0.0685 -0.0437  0.3722
 2013POPC   C3A24415   1.266  29.398   6.647  0.2263  0.0468 -0.0882
 2013POPC   C4A24416   1.365  29.782   6.377  0.1803 -0.0122  0.1816
 2013POPC   C1B24417   1.467  29.462   7.064 -0.0443 -0.0963 -0.1293
 2013POPC   C2B24418   1.749  29.682   6.799 -0.0654  0.2993  0.2186
 2013POPC   C3B24419   2.193  29.761   6.652  0.2534 -0.3416 -0.2114
 2013POPC   C4B24420   2.547  29.829   6.368  0.3851  0.1809  0.1629
 2014POPC   NC324421  10.149  18.449   7.907  0.1648  0.0468  0.3600
 2014POPC   PO424422   9.783  18.504   7.961 -0.0672  0.1071  0.0750
 2014POPC   GL124423   9.826  18.379   7.561 -0.0936  0.2104 -0.0211
 2014POPC   GL224424   9.648  18.608   7.478 -0.1860  0.0398  0.1548
 2014POPC   C1A24425   9.546  18.066   7.390 -0.0667  0.0364  0.0632
 2014POPC   D2A24426   9.452  17.695   7.158  0.1667  0.1140  0.1976
 2014POPC   C3A24427   9.493  17.472   6.747 -0.2410 -0.0216 -0.1080
 2014POPC   C4A24428   9.536  17.205   6.394  0.0095 -0.0990 -0.2082
 2014POPC   C1B24429   9.726  18.518   6.994 -0.1404  0.2166 -0.2604
 2014POPC   C2B24430   9.882  18.388   6.562  0.0363 -0.2496 -0.1255
 2014POPC   C3B24431   9.770  18.294   6.085 -0.1442  0.0224 -0.1980
 2014POPC   C4B24432   9.767  18.493   5.666 -0.0385 -0.0155  0.3629
 2015POPC   NC324433   5.322  18.002   7.224 -0.2013 -0.0395 -0.0154
 2015POPC   PO424434   5.318  17.601   7.198  0.1405 -0.2117  0.0868
 2015POPC   GL124435   5.053  17.716   6.894 -0.1357  0.4397 -0.1370
 2015POPC   GL224436   5.033  17.444   6.811  0.3147  0.1226  0.3378
 2015POPC   C1A24437   5.173  17.994   6.548 -0.0619 -0.1610 -0.0578
 2015POPC   D2A24438   5.552  17.834   6.366  0.3631  0.0287  0.0222
 2015POPC   C3A24439   5.675  17.822   5.909  0.3847  0.0657 -0.3229
 2015POPC   C4A24440   6.082  17.732   5.691 -0.1870 -0.4609 -0.2842
 2015POPC   C1B24441   5.103  17.519   6.334 -0.0789  0.3960  0.3246
 2015POPC   C2B24442   5.174  17.548   5.824  0.1875 -0.1093 -0.2672
 2015POPC   C3B24443   5.381  17.785   5.489 -0.0299 -0.0613  0.0267
 2015POPC   C4B24444   5.668  18.028   5.186  0.0576 -0.1303 -0.1772
 2016POPC   NC324445   1.825   9.754   8.342  0.3232  0.1941  0.0442
 2016POPC   PO424446   2.098   9.814   8.108  0.1178  0.0399 -0.2013
 2016POPC   GL124447   2.148   9.546   7.871 -0.0900  0.4278  0.0750
 2016POPC   GL224448   2.306   9.729   7.680 -0.1177  0.4262 -0.2685
 2016POPC   C1A24449   1.980   9.496   7.425  0.2388 -0.0764 -0.1721
 2016POPC   D2A24450   1.978   9.355   6.990 -0.0655 -0.1937 -0.2882
 2016POPC   C3A24451   2.146   9.004   6.816  0.2835  0.1828  0.1001
 2016POPC   C4A24452   2.120   8.732   6.419  0.1046  0.1281 -0.0404
 2016POPC   C1B24453   2.515   9.721   7.267 -0.0990  0.1220 -0.1192
 2016POPC   C2B24454   2.760   9.561   6.934  0.1155 -0.0907  0.1469
 2016POPC   C3B24455   2.926   9.460   6.551  0.2776  0.0642 -0.0382
 2016POPC   C4B24456   2.987   9.501   6.079  0.2471  0.1308  0.0947
 2017POPC   NC324457  15.583   5.101   8.603  0.1227  0.1828 -0.1045
 2017POPC   PO424458  15.762   5.257   8.280 -0.1335 -0.0729  0.2003
 2017POPC   GL124459  15.555   5.159   7.984  0.0693  0.6142 -0.1531
 2017POPC   GL224460  15.746   5.178   7.676  0.2711  0.2113 -0.0993
 2017POPC   C1A24461  15.277   4.834   7.863 -0.0844 -0.0020  0.0146
 2017POPC   D2A24462  15.013   4.697   7.552  0.1704  0.1121  0.0965
 2017POPC   C3A24463  14.992   4.355   7.246 -0.0809 -0.0228  0.1611
 2017POPC   C4A24464  14.923   3.923   7.122  0.0705 -0.1096  0.0656
 2017POPC   C1B24465  15.487   4.979   7.339  0.1470  0.0445 -0.0319
 2017POPC   C2B24466  15.191   4.776   6.977 -0.3521 -0.4318  0.1017
 2017POPC   C3B24467  14.784   4.602   6.805  0.0910 -0.2492 -0.1163
 2017POPC   C4B24468  14.682   4.199   6.655  0.2259  0.4065  0.0779
 2018POPC   NC324469   6.796  12.004   7.998  0.2439 -0.0902  0.0541
 2018POPC   PO424470   7.017  11.809   7.775 -0.0625 -0.0450  0.2569
 2018POPC   GL124471   7.135  11.626   7.395 -0.2570  0.1598 -0.2315
 2018POPC   GL224472   6.841  11.540   7.401 -0.0663  0.2107  0.3021
 2018POPC   C1A24473   7.412  11.772   7.060 -0.0827  0.1710  0.0385
 2018POPC   D2A24474   7.446  12.186   6.859 -0.0088  0.1195  0.2378
 2018POPC   C3A24475   7.630  12.128   6.395  0.1517  0.0789  0.0198
 2018POPC   C4A24476   7.823  11.986   6.002  0.0592  0.1740 -0.2800
 2018POPC   C1B24477   6.753  11.451   6.939  0.2001 -0.0506 -0.5045
 2018POPC   C2B24478   6.775  11.467   6.458  0.4048 -0.1189  0.3623
 2018POPC   C3B24479   6.878  11.734   6.131 -0.1101  0.1442  0.2140
 2018POPC   C4B24480   6.833  11.999   5.835  0.3014  0.0154  0.1572
 2019POPC   NC324481  14.247  12.183   7.812  0.0723 -0.5242  0.2892
 2019POPC   PO424482  13.936  12.401   7.710  0.0772 -0.3123 -0.2455
 2019POPC   GL124483  14.082  12.369   7.418 -0.0727 -0.1622 -0.0123
 2019POPC   GL224484  14.296  12.542   7.341 -0.2689 -0.0360  0.2165
 2019POPC   C1A24485  14.008  12.389   6.962 -0.0080  0.1725  0.4049
 2019POPC   D2A24486  14.158  12.376   6.526  0.0569 -0.1136 -0.3754
 2019POPC   C3A24487  14.149  12.616   6.197  0.0221 -0.2518 -0.0788
 2019POPC   C4A24488  14.043  12.734   5.784 -0.0633  0.1551  0.1518
 2019POPC   C1B24489  14.490  12.403   6.932 -0.0965  0.3695  0.1287
 2019POPC   C2B24490  14.602  12.698   6.604 -0.1418 -0.0956 -0.1850
 2019POPC   C3B24491  14.789  12.767   6.201 -0.0135  0.0656 -0.0658
 2019POPC   C4B24492  14.948  13.043   5.857 -0.2619 -0.0077 -0.0379
 2020POPC   NC324493  13.423  11.085   7.982 -0.0353  0.0730  0.1167
 2020POPC   PO424494  13.718  11.132   8.208  0.1356  0.0242  0.0966
 2020POPC   GL124495  13.782  11.295   7.884  0.0551  0.0337 -0.0753
 2020POPC   GL224496  14.119  11.339   7.871 -0.0848 -0.3481 -0.0779
 2020POPC   C1A24497  13.756  11.304   7.452 -0.0025  0.3160  0.3114
 2020POPC   D2A24498  13.688  11.263   6.954  0.2763  0.0423  0.3929
 2020POPC   C3A24499  13.810  10.891   6.753 -0.0265  0.2089  0.1714
 2020POPC   C4A24500  13.722  10.453   6.599 -0.3865  0.0152  0.4965
 2020POPC   C1B24501  14.064  10.960   7.697  0.0260 -0.0546  0.1477
 2020POPC   C2B24502  13.686  10.806   7.500  0.3217  0.0354 -0.2025
 2020POPC   C3B24503  13.316  10.494   7.476 -0.1521  0.0541  0.1449
 2020POPC   C4B24504  12.840  10.596   7.422  0.0646 -0.1572 -0.0871
 2021POPC   NC324505   9.914  25.205   7.429 -0.5294  0.2216  0.4466
 2021POPC   PO424506   9.682  25.137   7.761 -0.0063  0.0822 -0.4178
 2021POPC   GL124507   9.526  24.940   7.396  0.0219 -0.1350 -0.1984
 2021POPC   GL224508   9.399  25.135   7.244  0.0083  0.0073  0.2649
 2021POPC   C1A24509   9.725  24.796   7.033 -0.2140  0.2403  0.0838
 2021POPC   D2A24510   9.858  24.731   6.564 -0.0756  0.0765 -0.4010
 2021POPC   C3A24511  10.082  24.974   6.224 -0.1943  0.0006  0.2069
 2021POPC   C4A24512  10.184  25.062   5.793  0.2917 -0.1778  0.1475
 2021POPC   C1B24513   9.429  25.177   6.768  0.0599  0.1187  0.1656
 2021POPC   C2B24514   9.455  25.366   6.338  0.0720 -0.1002 -0.0189
 2021POPC   C3B24515   9.561  25.684   6.017  0.3926 -0.0506 -0.1621
 2021POPC   C4B24516   9.397  26.143   5.963  0.2646  0.0908  0.1540
 2022POPC   NC324517   3.339  14.945   7.544 -0.0522  0.0460 -0.1149
 2022POPC   PO424518   2.954  14.900   7.429  0.2100 -0.1085 -0.4178
 2022POPC   GL124519   2.778  14.945   7.114 -0.0983 -0.3281 -0.0068
 2022POPC   GL224520   2.820  14.658   6.962  0.3524  0.1312  0.1265
 2022POPC   C1A24521   2.535  14.918   6.710  0.0610  0.2263  0.2700
 2022POPC   D2A24522   2.289  15.141   6.348 -0.1250  0.1412  0.3106
 2022POPC   C3A24523   2.599  15.396   6.195 -0.3021  0.1917  0.0216
 2022POPC   C4A24524   2.807  15.423   5.773 -0.0621 -0.0999 -0.0557
 2022POPC   C1B24525   2.924  14.431   6.585  0.1226 -0.1145 -0.3023
 2022POPC   C2B24526   2.943  14.338   6.145  0.2077  0.5597 -0.2266
 2022POPC   C3B24527   2.918  14.367   5.674  0.0835 -0.2178  0.0726
 2022POPC   C4B24528   2.894  14.365   5.194  0.3045 -0.0848 -0.1507
 2023POPC   NC324529   8.745  13.716   7.606  0.0597  0.0853  0.1666
 2023POPC   PO424530   8.952  14.017   7.605  0.1366 -0.0885  0.1237
 2023POPC   GL124531   8.929  13.961   7.174 -0.5381  0.0554 -0.2455
 2023POPC   GL224532   8.830  13.701   7.118 -0.1608  0.2085 -0.0702
 2023POPC   C1A24533   9.092  14.091   6.781 -0.2666 -0.0520  0.0203
 2023POPC   D2A24534   8.961  14.335   6.421  0.0285 -0.0419 -0.0445
 2023POPC   C3A24535   8.603  14.250   6.125 -0.0429  0.0174  0.0845
 2023POPC   C4A24536   8.387  14.393   5.778  0.1685  0.0361 -0.0683
 2023POPC   C1B24537   8.653  13.380   6.839  0.0511  0.2930 -0.3223
 2023POPC   C2B24538   8.591  13.348   6.335  0.2439 -0.1324  0.0915
 2023POPC   C3B24539   8.374  13.104   6.011 -0.1031  0.0076  0.0947
 2023POPC   C4B24540   8.004  13.009   5.777  0.1269 -0.0267 -0.0364
 2024POPC   NC324541  14.882  18.435   7.714 -0.0163  0.2422 -0.1519
 2024POPC   PO424542  14.740  18.678   7.449 -0.2105  0.0750  0.2382
 2024POPC   GL124543  14.918  18.813   7.072  0.2160  0.0909 -0.1958
 2024POPC   GL224544  15.189  18.820   7.204  0.0264 -0.1155  0.1231
 2024POPC   C1A24545  15.044  18.969   6.681 -0.0146  0.1404  0.0694
 2024POPC   D2A24546  15.168  18.948   6.237  0.1638  0.5207  0.0835
 2024POPC   C3A24547  15.303  19.293   5.948  0.1927  0.1702 -0.1030
 2024POPC   C4A24548  15.431  19.689   5.748  0.0679  0.1572  0.1960
 2024POPC   C1B24549  15.545  18.971   6.926 -0.1540 -0.1890 -0.1442
 2024POPC   C2B24550  15.898  18.821   6.647  0.2874  0.0301 -0.2860
 2024POPC   C3B24551  15.973  18.810   6.186 -0.2452  0.1341  0.0699
 2024POPC   C4B24552  15.824  19.190   5.951  0.0548  0.2231  0.0193
 2025POPC   NC324553   7.123   8.903   7.296  0.0243  0.2586 -0.0169
 2025POPC   PO424554   7.201   9.211   7.551  0.1790  0.2076 -0.1379
 2025POPC   GL124555   7.418   9.246   7.168  0.0810  0.1194  0.0296
 2025POPC   GL224556   7.551   9.503   7.052  0.3365  0.0963 -0.0723
 2025POPC   C1A24557   7.366   9.120   6.723  0.1183 -0.0615 -0.1886
 2025POPC   D2A24558   7.492   9.232   6.309  0.0865  0.0059 -0.3409
 2025POPC   C3A24559   7.873   9.111   6.082 -0.0254  0.0373  0.0305
 2025POPC   C4A24560   8.210   9.380   5.978  0.1264 -0.0361  0.1547
 2025POPC   C1B24561   7.541   9.630   6.619  0.0305  0.1064  0.1941
 2025POPC   C2B24562   7.699   9.623   6.147 -0.0170 -0.0941 -0.1177
 2025POPC   C3B24563   7.385   9.437   5.805  0.0885  0.2245  0.1715
 2025POPC   C4B24564   7.066   9.431   5.520  0.1120 -0.0211  0.0968
 2026POPC   NC324565   6.559  11.545   7.913  0.1407 -0.1864  0.4181
 2026POPC   PO424566   6.531  11.227   7.694 -0.0676 -0.0248 -0.0036
 2026POPC   GL124567   6.292  11.309   7.341 -0.2832  0.4067 -0.2271
 2026POPC   GL224568   6.271  11.561   7.430  0.3352 -0.1123  0.0413
 2026POPC   C1A24569   5.900  11.142   7.101  0.1369 -0.0867 -0.0535
 2026POPC   D2A24570   5.841  11.047   6.688 -0.4120 -0.0043 -0.1790
 2026POPC   C3A24571   5.439  11.126   6.490  0.0011  0.0737 -0.0789
 2026POPC   C4A24572   5.216  11.356   6.138 -0.2827  0.1778 -0.0065
 2026POPC   C1B24573   6.212  11.589   6.971  0.2196  0.0527 -0.1423
 2026POPC   C2B24574   5.827  11.529   6.643  0.1427 -0.1607  0.5395
 2026POPC   C3B24575   5.753  11.465   6.187 -0.0434  0.3188  0.0417
 2026POPC   C4B24576   5.911  11.057   5.989 -0.0604 -0.0192  0.0296
 2027POPC   NC324577   5.764  28.183   7.744  0.4561  0.0186 -0.0997
 2027POPC   PO424578   5.558  28.481   7.873  0.2203 -0.1572  0.4199
 2027POPC   GL124579   5.729  28.600   7.553  0.0623  0.5241 -0.4458
 2027POPC   GL224580   5.993  28.480   7.426  0.2962  0.1220  0.1550
 2027POPC   C1A24581   5.884  28.859   7.158 -0.2090  0.2679  0.1223
 2027POPC   D2A24582   6.058  29.153   6.805  0.0161 -0.1554 -0.0874
 2027POPC   C3A24583   5.816  29.025   6.432  0.1454 -0.3196 -0.0598
 2027POPC   C4A24584   5.455  29.114   6.219 -0.0298 -0.0129 -0.2047
 2027POPC   C1B24585   6.221  28.294   7.103 -0.2432  0.1095  0.1106
 2027POPC   C2B24586   6.218  28.506   6.672  0.2499 -0.2352  0.0294
 2027POPC   C3B24587   6.095  28.596   6.233 -0.2666 -0.1875  0.0497
 2027POPC   C4B24588   5.786  28.772   5.955  0.1299 -0.0608 -0.0941
 2028POPC   NC324589  15.492  22.704   7.378  0.1440  0.1373  0.3013
 2028POPC   PO424590  15.658  22.877   7.706  0.0772 -0.0447 -0.2771
 2028POPC   GL124591  15.607  23.205   7.456  0.0152  0.2474  0.0612
 2028POPC   GL224592  15.293  23.140   7.429 -0.0927 -0.0840 -0.0198
 2028POPC   C1A24593  15.489  23.165   7.000 -0.0028  0.0067 -0.1791
 2028POPC   D2A24594  15.723  22.775   6.837  0.1821 -0.0139  0.0181
 2028POPC   C3A24595  15.459  22.649   6.513  0.3800  0.0555 -0.1963
 2028POPC   C4A24596  15.450  22.519   6.055 -0.2371 -0.3511 -0.1898
 2028POPC   C1B24597  15.045  23.340   7.087  0.0537  0.2598 -0.0202
 2028POPC   C2B24598  14.923  23.324   6.695 -0.1931  0.0040 -0.1026
 2028POPC   C3B24599  14.855  23.319   6.225  0.2086  0.1436 -0.1591
 2028POPC   C4B24600  15.083  23.287   5.829  0.0495 -0.2454  0.1499
 2029POPC   NC324601   9.584   4.408   7.901  0.3121 -0.2744 -0.2496
 2029POPC   PO424602   9.297   4.447   7.652 -0.0204  0.1556  0.2549
 2029POPC   GL124603   9.431   4.241   7.338 -0.2021 -0.4745 -0.1491
 2029POPC   GL224604   9.511   4.467   7.149 -0.1917 -0.1787  0.3318
 2029POPC   C1A24605   9.739   4.079   7.044 -0.1259  0.1416 -0.2149
 2029POPC   D2A24606  10.149   3.945   6.859 -0.0151  0.1406 -0.2290
 2029POPC   C3A24607  10.249   4.182   6.440  0.0851  0.2122  0.0616
 2029POPC   C4A24608  10.279   4.403   6.010 -0.0275 -0.1407  0.1120
 2029POPC   C1B24609   9.429   4.600   6.748 -0.0107 -0.0725  0.0127
 2029POPC   C2B24610   9.154   4.537   6.409 -0.1001 -0.0188  0.0938
 2029POPC   C3B24611   8.745   4.345   6.190  0.0247 -0.2346  0.0082
 2029POPC   C4B24612   8.368   4.115   6.335  0.0293 -0.0574  0.1071
 2030POPC   NC324613  10.768  30.392   7.562  0.0099 -0.0245 -0.3953
 2030POPC   PO424614  10.975  30.105   7.654 -0.3534  0.1229 -0.0754
 2030POPC   GL124615  10.981  30.006   7.335  0.1151  0.2997  0.0289
 2030POPC   GL224616  10.965  30.224   7.108 -0.5383 -0.1498 -0.1294
 2030POPC   C1A24617  11.052  29.680   6.961  0.0582 -0.2383 -0.1079
 2030POPC   D2A24618  11.266  29.252   7.050 -0.1470  0.1977  0.2778
 2030POPC   C3A24619  11.202  29.169   6.573  0.1894 -0.0437  0.2014
 2030POPC   C4A24620  11.149  29.021   6.185 -0.1035 -0.0711  0.1730
 2030POPC   C1B24621  11.157  30.133   6.701 -0.2850  0.0929 -0.2347
 2030POPC   C2B24622  11.072  30.391   6.345 -0.0567  0.0737 -0.1839
 2030POPC   C3B24623  10.912  30.407   5.928  0.0944  0.1145  0.0449
 2030POPC   C4B24624  10.513  30.113   5.793  0.1763 -0.3944 -0.0893
 2031POPC   NC324625   6.047  11.109   8.133 -0.1133  0.2072 -0.1539
 2031POPC   PO424626   6.033  11.477   7.908  0.3096  0.1592 -0.0649
 2031POPC   GL124627   5.825  11.551   7.646  0.1292  0.0776 -0.2317
 2031POPC   GL224628   5.689  11.275   7.559 -0.1296  0.2269 -0.1223
 2031POPC   C1A24629   5.797  11.727   7.199  0.0370 -0.0682 -0.1396
 2031POPC   D2A24630   5.770  11.958   6.816 -0.0699  0.0043  0.0938
 2031POPC   C3A24631   5.898  11.923   6.348 -0.0770  0.0247 -0.2118
 2031POPC   C4A24632   5.869  11.896   5.891 -0.3148  0.2225  0.4519
 2031POPC   C1B24633   5.428  11.303   7.088 -0.2492 -0.1767 -0.1847
 2031POPC   C2B24634   5.342  11.610   6.730  0.2117 -0.2514  0.3175
 2031POPC   C3B24635   5.363  11.789   6.291 -0.2828  0.1384  0.0251
 2031POPC   C4B24636   5.405  12.019   5.848 -0.2813  0.1990 -0.0118
 2032POPC   NC324637  13.773  28.509   7.149  0.4013 -0.2792  0.0929
 2032POPC   PO424638  13.497  28.358   7.405  0.0614 -0.0038  0.3389
 2032POPC   GL124639  13.386  28.254   6.963  0.0851 -0.1134 -0.0231
 2032POPC   GL224640  13.365  28.501   6.836  0.0359  0.0061  0.2353
 2032POPC   C1A24641  13.654  28.055   6.649  0.1593  0.0239 -0.2627
 2032POPC   D2A24642  14.043  27.801   6.624 -0.4320  0.1720  0.0150
 2032POPC   C3A24643  14.240  27.635   6.268  0.2348 -0.0279  0.0355
 2032POPC   C4A24644  14.498  27.352   5.936 -0.1856  0.4090  0.1265
 2032POPC   C1B24645  13.186  28.381   6.412 -0.4788  0.0321  0.1298
 2032POPC   C2B24646  13.497  28.169   6.180 -0.1806 -0.1021 -0.3718
 2032POPC   C3B24647  13.917  28.007   5.994  0.1386  0.0489 -0.0104
 2032POPC   C4B24648  14.202  27.782   5.729  0.3047  0.0032 -0.0335
 2033POPC   NC324649   8.600  17.454   7.809 -0.1314 -0.0904 -0.1704
 2033POPC   PO424650   8.660  17.757   8.065  0.1775 -0.2304 -0.0653
 2033POPC   GL124651   8.898  17.770   7.660  0.1905  0.0658  0.1558
 2033POPC   GL224652   9.080  17.972   7.548 -0.1476  0.1604 -0.1144
 2033POPC   C1A24653   9.147  17.401   7.541 -0.0759  0.0563 -0.2606
 2033POPC   D2A24654   9.184  17.028   7.390  0.0380  0.2647  0.1024
 2033POPC   C3A24655   9.547  17.166   7.160  0.4609 -0.3355  0.2115
 2033POPC   C4A24656   9.854  17.055   6.799  0.1097  0.1223  0.2114
 2033POPC   C1B24657   9.066  17.935   7.050  0.2622 -0.0358 -0.0398
 2033POPC   C2B24658   9.145  17.789   6.620  0.1167  0.1419  0.0531
 2033POPC   C3B24659   9.085  17.368   6.418  0.1216  0.0330 -0.1129
 2033POPC   C4B24660   9.126  16.918   6.247  0.2559 -0.1358  0.3197
 2034POPC   NC324661   5.484  30.395   7.371 -0.1575  0.0399 -0.1093
 2034POPC   PO424662   5.387  30.730   7.483 -0.0729  0.0602  0.2801
 2034POPC   GL124663   5.233  30.801   7.159  0.3695 -0.0628  0.2314
 2034POPC   GL224664   5.133  30.664   6.994 -0.2997  0.0523  0.0776
 2034POPC   C1A24665   5.161  31.133   6.850 -0.0868 -0.0408 -0.2062
 2034POPC   D2A24666   5.236  31.225   6.405  0.1694 -0.0265  0.0498
 2034POPC   C3A24667   5.225  31.556   6.133 -0.2754 -0.2069  0.2067
 2034POPC   C4A24668   5.148  31.991   6.023  0.0465  0.0013 -0.1707
 2034POPC   C1B24669   5.035  30.778   6.548 -0.0753 -0.0667  0.0089
 2034POPC   C2B24670   4.789  30.925   6.142  0.1930  0.0041 -0.4986
 2034POPC   C3B24671   4.689  31.023   5.679 -0.2387 -0.3359  0.0798
 2034POPC   C4B24672   4.553  31.370   5.456 -0.0931  0.0823  0.0531
 2035POPC   NC324673  10.828  17.782   8.089 -0.2446  0.1677  0.2907
 2035POPC   PO424674  10.494  17.959   7.954  0.3322 -0.0731 -0.1041
 2035POPC   GL124675  10.699  17.957   7.540 -0.0492  0.2835 -0.1880
 2035POPC   GL224676  10.894  17.674   7.571 -0.2468  0.2774  0.0814
 2035POPC   C1A24677  10.548  18.042   7.147 -0.2804 -0.0988 -0.0262
 2035POPC   D2A24678  10.490  17.883   6.688  0.2966  0.3613 -0.1489
 2035POPC   C3A24679  10.051  17.947   6.522 -0.1723 -0.0258  0.1207
 2035POPC   C4A24680   9.685  17.760   6.368  0.1478  0.0268 -0.1452
 2035POPC   C1B24681  10.706  17.524   7.146  0.2417 -0.2609 -0.3102
 2035POPC   C2B24682  10.317  17.255   7.035  0.3130  0.0079  0.1329
 2035POPC   C3B24683   9.967  17.148   7.364 -0.1975  0.1566  0.0271
 2035POPC   C4B24684   9.950  17.025   7.838  0.2038  0.2828  0.1271
 2036POPC   NC324685  12.110  28.944   7.606  0.3844 -0.2821  0.0139
 2036POPC   PO424686  11.753  29.193   7.613  0.0085 -0.0450  0.1789
 2036POPC   GL124687  11.618  28.888   7.331  0.1607  0.2058  0.1041
 2036POPC   GL224688  11.716  28.648   7.489 -0.3465  0.0544 -0.1717
 2036POPC   C1A24689  11.558  28.800   6.862  0.3265 -0.2671  0.1142
 2036POPC   D2A24690  11.915  28.698   6.562  0.4578 -0.2560  0.2020
 2036POPC   C3A24691  11.663  28.553   6.250  0.1262 -0.0480  0.0477
 2036POPC   C4A24692  11.633  28.350   5.840  0.1634  0.0550 -0.2224
 2036POPC   C1B24693  11.682  28.366   7.071  0.1253 -0.0954 -0.2240
 2036POPC   C2B24694  11.710  28.244   6.671 -0.2382  0.0163 -0.1324
 2036POPC   C3B24695  11.755  28.070   6.295  0.0039 -0.0309  0.3609
 2036POPC   C4B24696  11.880  27.881   5.860 -0.0097 -0.0475  0.3744
 2037POPC   NC324697   2.610  26.950   7.867 -0.1831 -0.2527 -0.1937
 2037POPC   PO424698   2.431  27.268   7.646 -0.0928  0.0344 -0.0340
 2037POPC   GL124699   2.503  27.117   7.246 -0.0891  0.2179  0.0278
 2037POPC   GL224700   2.630  27.343   7.188  0.3711 -0.3824  0.1732
 2037POPC   C1A24701   2.362  27.228   6.750  0.0265 -0.0585  0.1611
 2037POPC   D2A24702   2.259  27.245   6.316 -0.0556 -0.3617  0.5146
 2037POPC   C3A24703   2.010  27.396   5.921  0.1696  0.1328 -0.1100
 2037POPC   C4A24704   1.657  27.415   5.565  0.1559 -0.3149  0.1063
 2037POPC   C1B24705   2.573  27.705   6.924  0.0715  0.0610 -0.1127
 2037POPC   C2B24706   2.635  27.592   6.476 -0.2399 -0.1186 -0.1389
 2037POPC   C3B24707   2.759  27.375   6.126  0.1615 -0.2879 -0.0297
 2037POPC   C4B24708   2.881  27.274   5.668 -0.2393 -0.0545  0.1431
 2038POPC   NC324709   9.877  14.324   7.826  0.0900 -0.1588  0.3802
 2038POPC   PO424710  10.257  14.318   7.700 -0.2790 -0.2035 -0.0528
 2038POPC   GL124711  10.258  14.467   7.307 -0.3204 -0.0724 -0.1939
 2038POPC   GL224712  10.410  14.703   7.382 -0.1053  0.0884  0.0149
 2038POPC   C1A24713  10.025  14.341   6.936 -0.1231 -0.1240  0.0917
 2038POPC   D2A24714   9.947  14.313   6.474  0.0287  0.1898  0.0921
 2038POPC   C3A24715  10.048  14.169   6.044  0.0646 -0.0088  0.1375
 2038POPC   C4A24716  10.116  14.145   5.607 -0.1101  0.0826 -0.0081
 2038POPC   C1B24717  10.416  15.082   7.234 -0.2398  0.0812  0.2037
 2038POPC   C2B24718  10.154  15.221   6.855  0.1094 -0.2320 -0.1249
 2038POPC   C3B24719  10.031  15.312   6.414  0.1388 -0.0747  0.0650
 2038POPC   C4B24720  10.203  15.246   6.029  0.2637 -0.3468  0.1887
 2039POPC   NC324721   7.038   8.948   7.952  0.0017 -0.1877 -0.0171
 2039POPC   PO424722   6.819   8.657   8.001  0.0721  0.0326  0.0314
 2039POPC   GL124723   6.822   8.640   7.555  0.2165 -0.0572  0.1085
 2039POPC   GL224724   6.588   8.713   7.439 -0.0743 -0.1745  0.4750
 2039POPC   C1A24725   6.825   8.456   7.111  0.5045 -0.3167  0.2275
 2039POPC   D2A24726   6.841   8.203   6.754 -0.2094  0.3604 -0.2245
 2039POPC   C3A24727   6.936   7.786   6.514 -0.3026  0.0403 -0.5088
 2039POPC   C4A24728   6.878   7.405   6.277  0.1906  0.0688  0.1324
 2039POPC   C1B24729   6.403   8.787   7.031  0.0962  0.0397 -0.0420
 2039POPC   C2B24730   6.378   8.558   6.592 -0.3397 -0.0305 -0.2055
 2039POPC   C3B24731   6.267   8.746   6.180  0.0755 -0.0685  0.0679
 2039POPC   C4B24732   6.118   8.966   5.857  0.0062 -0.2082  0.1429
 2040POPC   NC324733   2.892  13.635   7.861 -0.0066  0.2943  0.0119
 2040POPC   PO424734   3.231  13.807   8.012 -0.0619 -0.0317 -0.0979
 2040POPC   GL124735   3.368  13.708   7.587  0.5693 -0.2604  0.0182
 2040POPC   GL224736   3.194  13.604   7.408 -0.3027 -0.0018 -0.0127
 2040POPC   C1A24737   3.513  13.939   7.183 -0.0144  0.1243 -0.2007
 2040POPC   D2A24738   3.722  13.844   6.804 -0.0164 -0.1144 -0.0642
 2040POPC   C3A24739   3.508  13.508   6.596 -0.0135  0.0010 -0.0069
 2040POPC   C4A24740   3.638  13.273   6.182  0.1830  0.0243 -0.0180
 2040POPC   C1B24741   3.219  13.612   6.970  0.1007  0.1280  0.2862
 2040POPC   C2B24742   3.010  13.487   6.576 -0.1714 -0.1689  0.0292
 2040POPC   C3B24743   3.130  13.345   6.139 -0.0763  0.0340  0.0256
 2040POPC   C4B24744   3.372  13.537   5.789  0.2618 -0.1647  0.0635
 2041POPC   NC324745   6.289  24.038   7.726 -0.1250  0.0781  0.0091
 2041POPC   PO424746   6.608  23.898   7.972  0.1118 -0.0595  0.1314
 2041POPC   GL124747   6.878  24.023   7.689  0.4927  0.1886 -0.2890
 2041POPC   GL224748   6.795  24.346   7.787  0.1249  0.1159 -0.1277
 2041POPC   C1A24749   7.113  23.777   7.400  0.1426  0.2100  0.1660
 2041POPC   D2A24750   7.434  23.848   7.109  0.0711  0.2393  0.1776
 2041POPC   C3A24751   7.509  24.280   6.946 -0.2849 -0.0660 -0.1153
 2041POPC   C4A24752   7.228  24.665   6.900 -0.0130  0.2837  0.2700
 2041POPC   C1B24753   6.512  24.371   7.360 -0.1347 -0.2169 -0.1640
 2041POPC   C2B24754   6.443  24.432   6.871 -0.0616  0.1432 -0.0012
 2041POPC   C3B24755   6.388  24.499   6.419  0.0830  0.0957 -0.2095
 2041POPC   C4B24756   6.179  24.762   6.168 -0.2133  0.1221  0.4685
 2042POPC   NC324757   3.516   3.597   7.961  0.2713 -0.1300 -0.1791
 2042POPC   PO424758   3.891   3.556   8.045  0.0892 -0.0121  0.0035
 2042POPC   GL124759   3.870   3.327   7.742 -0.2432  0.2458 -0.2216
 2042POPC   GL224760   4.080   3.468   7.597 -0.0998 -0.0176  0.0876
 2042POPC   C1A24761   3.488   3.339   7.474  0.0217  0.3509 -0.0268
 2042POPC   D2A24762   3.158   3.216   7.218 -0.0442  0.2266  0.2053
 2042POPC   C3A24763   3.087   2.969   6.855  0.1920  0.2118  0.1293
 2042POPC   C4A24764   3.378   2.689   6.682  0.0086 -0.2389 -0.1023
 2042POPC   C1B24765   4.366   3.435   7.229 -0.0746 -0.1115 -0.4195
 2042POPC   C2B24766   4.350   3.461   6.782  0.0178 -0.0795  0.0266
 2042POPC   C3B24767   4.401   3.753   6.444 -0.0073  0.0969  0.0590
 2042POPC   C4B24768   4.510   4.143   6.283  0.1218  0.0873  0.2202
 2043POPC   NC324769  14.447  27.624   7.598 -0.1896 -0.3335  0.1328
 2043POPC   PO424770  14.444  27.983   7.446 -0.1987 -0.4220  0.0901
 2043POPC   GL124771  14.286  28.001   7.135 -0.1699  0.1559 -0.1736
 2043POPC   GL224772  13.961  28.097   7.050  0.0295  0.2281 -0.0545
 2043POPC   C1A24773  14.485  28.067   6.685  0.3157  0.1116 -0.0190
 2043POPC   D2A24774  14.370  28.091   6.228  0.2115 -0.1327 -0.0568
 2043POPC   C3A24775  14.238  28.355   5.864 -0.0205  0.0938 -0.3752
 2043POPC   C4A24776  13.986  28.280   5.523 -0.2511  0.0768 -0.1463
 2043POPC   C1B24777  13.993  28.367   6.675 -0.1548  0.2316 -0.0708
 2043POPC   C2B24778  13.980  28.554   6.229 -0.3885 -0.2650  0.0335
 2043POPC   C3B24779  13.942  28.758   5.793 -0.1066 -0.4362 -0.0149
 2043POPC   C4B24780  13.924  28.898   5.373  0.1661 -0.1268 -0.0285
 2044POPC   NC324781   0.363  14.602   7.427  0.1091  0.0133  0.1658
 2044POPC   PO424782   0.732  14.692   7.558  0.1665  0.4363  0.3200
 2044POPC   GL124783   0.752  14.391   7.240 -0.0432 -0.1070  0.0950
 2044POPC   GL224784   0.754  14.139   7.388 -0.1526 -0.3421 -0.0125
 2044POPC   C1A24785   0.650  14.571   6.850  0.2758  0.1762  0.5553
 2044POPC   D2A24786   0.423  14.599   6.450 -0.2273  0.0864  0.0227
 2044POPC   C3A24787   0.319  14.672   6.010 -0.1352  0.1581 -0.2147
 2044POPC   C4A24788   0.436  14.930   5.701 -0.1119 -0.0832  0.1797
 2044POPC   C1B24789   0.761  14.024   6.898 -0.3355 -0.0983 -0.2339
 2044POPC   C2B24790   0.674  13.669   6.566  0.3681  0.0859  0.0876
 2044POPC   C3B24791   0.700  13.366   6.212  0.0727 -0.0587  0.0436
 2044POPC   C4B24792   0.626  12.928   6.060  0.2686 -0.1144 -0.1892
 2045POPC   NC324793   7.595  15.787   8.125  0.4223  0.0925 -0.0544
 2045POPC   PO424794   7.286  15.804   7.872 -0.2416 -0.0141  0.2062
 2045POPC   GL124795   7.556  15.769   7.554 -0.1997  0.2386 -0.6247
 2045POPC   GL224796   7.357  15.546   7.424 -0.0585  0.1573 -0.2077
 2045POPC   C1A24797   7.783  15.470   7.255 -0.3649  0.2071 -0.0455
 2045POPC   D2A24798   7.851  15.497   6.741  0.0259 -0.0613 -0.2464
 2045POPC   C3A24799   7.834  15.046   6.815 -0.1673  0.2240  0.2895
 2045POPC   C4A24800   8.000  14.605   6.771  0.0587 -0.2351  0.0309
 2045POPC   C1B24801   7.334  15.676   6.993 -0.0293  0.0230  0.1428
 2045POPC   C2B24802   7.403  15.672   6.538 -0.0088 -0.0947  0.0083
 2045POPC   C3B24803   7.297  15.495   6.098  0.1039 -0.2443  0.2971
 2045POPC   C4B24804   7.387  15.272   5.681  0.0513 -0.0750 -0.0581
 2046POPC   NC324805  12.812   1.557   7.743 -0.1812  0.2447  0.2900
 2046POPC   PO424806  13.217   1.670   7.837 -0.1289  0.0707 -0.0011
 2046POPC   GL124807  13.208   1.981   7.485  0.0681  0.0235  0.0622
 2046POPC   GL224808  13.131   2.275   7.444  0.0073  0.5004  0.2256
 2046POPC   C1A24809  13.136   2.032   7.004  0.0267  0.3346 -0.3863
 2046POPC   D2A24810  13.028   2.127   6.610 -0.2515  0.2424  0.1780
 2046POPC   C3A24811  12.798   2.378   6.257 -0.1547 -0.1598  0.0778
 2046POPC   C4A24812  12.863   2.461   5.811  0.3044 -0.2360  0.1330
 2046POPC   C1B24813  13.140   2.522   7.049  0.0171  0.4317  0.0172
 2046POPC   C2B24814  13.110   2.615   6.574  0.4776 -0.2852 -0.4097
 2046POPC   C3B24815  13.098   2.774   6.133  0.3883 -0.3371 -0.0938
 2046POPC   C4B24816  13.347   3.110   5.991  0.0607 -0.1712  0.0843
 2047POPC   NC324817  11.620  25.215   7.774  0.1030  0.1017 -0.2840
 2047POPC   PO424818  11.380  24.928   7.660 -0.1280  0.3428  0.0495
 2047POPC   GL124819  11.357  24.855   7.262 -0.0033 -0.1749 -0.0528
 2047POPC   GL224820  11.139  25.060   7.176  0.1087  0.1443 -0.0988
 2047POPC   C1A24821  11.633  24.858   6.881 -0.3468  0.0837 -0.0372
 2047POPC   D2A24822  11.769  25.116   6.522 -0.2811  0.2287 -0.0206
 2047POPC   C3A24823  11.713  25.102   6.058  0.0058  0.1068  0.1810
 2047POPC   C4A24824  11.490  25.192   5.632 -0.0119  0.0861  0.2478
 2047POPC   C1B24825  11.166  24.832   6.774  0.0580  0.1458 -0.2548
 2047POPC   C2B24826  10.980  24.686   6.395 -0.2107  0.0001  0.1887
 2047POPC   C3B24827  10.651  24.834   6.156 -0.0166  0.0541  0.2975
 2047POPC   C4B24828  10.491  25.259   6.173 -0.1370 -0.3029 -0.0304
 2048POPC   NC324829   7.741  14.693   7.773  0.2021 -0.2114 -0.0380
 2048POPC   PO424830   8.111  14.862   7.727 -0.4325  0.1846 -0.2110
 2048POPC   GL124831   8.406  14.854   7.423  0.0830 -0.0781  0.3364
 2048POPC   GL224832   8.216  14.949   7.213 -0.0710  0.1769 -0.1387
 2048POPC   C1A24833   8.403  14.534   7.044 -0.1546 -0.0790 -0.1727
 2048POPC   D2A24834   8.449  14.314   6.625  0.1290 -0.3670  0.3285
 2048POPC   C3A24835   8.108  14.365   6.283 -0.4502  0.0565  0.1802
 2048POPC   C4A24836   7.712  14.455   6.123 -0.1496  0.3313 -0.0430
 2048POPC   C1B24837   8.265  15.356   6.971 -0.1682  0.1290 -0.2508
 2048POPC   C2B24838   8.322  15.454   6.478 -0.2876  0.0863 -0.2037
 2048POPC   C3B24839   8.002  15.517   6.171 -0.1802 -0.0427  0.4201
 2048POPC   C4B24840   7.894  15.340   5.819  0.0623 -0.1320 -0.0191
 2049POPC   NC324841  14.768  28.389   7.517 -0.0597 -0.2171  0.0116
 2049POPC   PO424842  15.129  28.203   7.572 -0.2857 -0.1034  0.3597
 2049POPC   GL124843  15.111  28.158   7.225 -0.1273 -0.1322 -0.3879
 2049POPC   GL224844  14.858  28.261   7.052 -0.1557  0.0721  0.1157
 2049POPC   C1A24845  15.420  28.096   6.820  0.0728 -0.2585  0.1878
 2049POPC   D2A24846  15.672  28.052   6.430 -0.1192  0.3203 -0.3495
 2049POPC   C3A24847  16.112  27.984   6.287 -0.0617 -0.2029  0.1088
 2049POPC   C4A24848  16.517  28.063   6.032  0.4233  0.0894  0.1611
 2049POPC   C1B24849  14.973  28.274   6.661 -0.0085 -0.3412  0.0879
 2049POPC   C2B24850  14.804  28.326   6.170 -0.0187 -0.1338  0.0851
 2049POPC   C3B24851  14.660  28.502   5.779 -0.3406  0.2778  0.3170
 2049POPC   C4B24852  14.510  28.683   5.428 -0.0156 -0.2186  0.3716
 2050POPC   NC324853   6.428  18.496   7.825 -0.1126  0.1335 -0.0425
 2050POPC   PO424854   6.071  18.607   7.722  0.2133  0.0669  0.1631
 2050POPC   GL124855   6.041  18.778   7.383  0.1575  0.2752 -0.0341
 2050POPC   GL224856   5.771  18.862   7.265  0.2804 -0.0997  0.0204
 2050POPC   C1A24857   6.126  18.671   6.919 -0.0549 -0.2385  0.1976
 2050POPC   D2A24858   5.994  18.720   6.485  0.1066  0.2351 -0.0771
 2050POPC   C3A24859   6.155  19.090   6.236 -0.1461 -0.0517 -0.3266
 2050POPC   C4A24860   5.993  19.185   5.805  0.1714  0.1402 -0.1572
 2050POPC   C1B24861   5.677  19.206   6.974  0.0905 -0.3317  0.0330
 2050POPC   C2B24862   5.711  19.493   6.602  0.3437  0.0624  0.3100
 2050POPC   C3B24863   5.788  19.552   6.122 -0.1059 -0.2139 -0.0099
 2050POPC   C4B24864   5.964  19.701   5.726  0.1097  0.1355 -0.2392
 2051POPC   NC324865   0.703  12.246   7.796 -0.3452 -0.1417  0.1022
 2051POPC   PO424866   1.081  12.250   7.836 -0.1864  0.1208 -0.0197
 2051POPC   GL124867   1.051  12.341   7.465 -0.2907 -0.0150  0.2038
 2051POPC   GL224868   1.268  12.558   7.394 -0.0398  0.0091  0.3729
 2051POPC   C1A24869   1.236  12.064   7.188 -0.4385  0.1746  0.1875
 2051POPC   D2A24870   1.379  11.815   6.774 -0.1044  0.1299  0.1035
 2051POPC   C3A24871   1.384  11.897   6.350 -0.0715 -0.4171 -0.0652
 2051POPC   C4A24872   1.346  12.154   5.973  0.1034 -0.0597  0.1475
 2051POPC   C1B24873   1.409  12.734   7.003 -0.0617 -0.2515  0.1163
 2051POPC   C2B24874   1.341  12.678   6.572  0.3404  0.0645  0.3654
 2051POPC   C3B24875   1.488  12.657   6.121 -0.1537 -0.1570  0.0862
 2051POPC   C4B24876   1.801  12.459   5.863 -0.0406 -0.0457 -0.2015
 2052POPC   NC324877  15.057  11.626   8.340 -0.3982 -0.1199  0.0399
 2052POPC   PO424878  15.132  11.282   8.108  0.0820 -0.1797  0.1069
 2052POPC   GL124879  14.862  11.258   7.754 -0.0313  0.1392 -0.1040
 2052POPC   GL224880  14.602  11.161   7.769  0.1145 -0.2252 -0.0308
 2052POPC   C1A24881  14.810  11.241   7.307  0.0103  0.1828 -0.1911
 2052POPC   D2A24882  14.656  11.217   6.847  0.0786 -0.0789 -0.0254
 2052POPC   C3A24883  14.256  11.107   6.713 -0.1436 -0.2426 -0.2400
 2052POPC   C4A24884  13.898  11.245   6.452 -0.1797 -0.0638  0.2510
 2052POPC   C1B24885  14.489  10.912   7.405  0.2768 -0.0035  0.2124
 2052POPC   C2B24886  14.722  10.717   7.043  0.1302  0.1997 -0.2019
 2052POPC   C3B24887  14.616  10.774   6.604 -0.0647  0.3392  0.1942
 2052POPC   C4B24888  14.485  11.119   6.262  0.0953  0.2869  0.0344
 2053POPC   NC324889   0.117   9.681   7.846 -0.2172  0.1015 -0.1463
 2053POPC   PO424890  -0.310   9.642   7.938 -0.0857  0.3909 -0.0021
 2053POPC   GL124891  -0.333   9.439   7.528 -0.2116 -0.0642  0.1646
 2053POPC   GL224892  -0.548   9.209   7.651 -0.2005  0.0720 -0.0428
 2053POPC   C1A24893  -0.223   9.614   7.088 -0.0912  0.1180  0.3412
 2053POPC   D2A24894  -0.463   9.698   6.693  0.1236  0.2796  0.1979
 2053POPC   C3A24895  -0.368   9.881   6.299  0.2229 -0.1781 -0.1576
 2053POPC   C4A24896  -0.379  10.080   5.879 -0.0955 -0.1568 -0.0640
 2053POPC   C1B24897  -0.802   9.322   7.347  0.3377  0.1638  0.2773
 2053POPC   C2B24898  -0.796   9.462   6.965  0.1336  0.1403  0.0940
 2053POPC   C3B24899  -0.980   9.798   6.728  0.0185  0.4376 -0.3571
 2053POPC   C4B24900  -1.182   9.878   6.314 -0.0087  0.0117  0.0990
 2054POPC   NC324901  12.775  23.632   7.384  0.0201  0.2500 -0.1067
 2054POPC   PO424902  12.678  23.927   7.614 -0.0357 -0.2558  0.2795
 2054POPC   GL124903  12.381  23.853   7.311 -0.4174  0.0329 -0.1679
 2054POPC   GL224904  12.436  23.753   7.011  0.3018  0.0837 -0.2789
 2054POPC   C1A24905  12.025  24.038   7.150 -0.3671  0.2177  0.2060
 2054POPC   D2A24906  11.623  24.037   6.997 -0.0168  0.2177 -0.1602
 2054POPC   C3A24907  11.524  24.365   6.768  0.1821  0.0113 -0.1838
 2054POPC   C4A24908  11.516  24.648   6.420 -0.0059 -0.0202  0.2548
 2054POPC   C1B24909  12.707  23.965   6.693  0.0320 -0.0169 -0.1809
 2054POPC   C2B24910  13.002  23.841   6.365 -0.1008  0.0717 -0.3120
 2054POPC   C3B24911  13.108  24.086   5.960 -0.0986  0.0993  0.0220
 2054POPC   C4B24912  12.786  23.948   5.612 -0.2793 -0.0324 -0.0579
 2055POPC   NC324913  10.453   7.719   7.709 -0.0533  0.1526 -0.0573
 2055POPC   PO424914  10.191   8.024   7.725 -0.0979  0.0589  0.1173
 2055POPC   GL124915  10.470   8.194   7.498  0.3926 -0.1383  0.0903
 2055POPC   GL224916  10.436   7.991   7.247 -0.2931  0.1201 -0.2866
 2055POPC   C1A24917  10.384   8.513   7.171 -0.0917 -0.0401 -0.1494
 2055POPC   D2A24918  10.125   8.661   6.795  0.1347 -0.4119  0.0263
 2055POPC   C3A24919  10.059   8.680   6.422 -0.0726 -0.1789  0.0208
 2055POPC   C4A24920  10.039   8.884   5.976  0.2456 -0.1476  0.0269
 2055POPC   C1B24921  10.341   8.054   6.751  0.2012  0.1819 -0.0404
 2055POPC   C2B24922  10.420   8.345   6.353  0.2311 -0.0041 -0.2014
 2055POPC   C3B24923  10.585   8.613   6.035 -0.1737  0.0275 -0.2850
 2055POPC   C4B24924  10.567   9.046   5.920 -0.4195 -0.0567  0.0394
 2056POPC   NC324925  11.894  23.537   7.276  0.1590 -0.0050  0.0379
 2056POPC   PO424926  12.217  23.429   7.422  0.1093  0.1377  0.0404
 2056POPC   GL124927  12.128  23.221   7.069 -0.3846  0.1025  0.0263
 2056POPC   GL224928  12.212  22.934   7.058 -0.0088 -0.0328  0.1084
 2056POPC   C1A24929  12.245  23.420   6.675  0.0062 -0.0269 -0.1407
 2056POPC   D2A24930  12.317  23.833   6.381  0.0357 -0.4185 -0.0795
 2056POPC   C3A24931  12.607  24.122   6.086 -0.0649  0.0616 -0.1755
 2056POPC   C4A24932  12.604  24.380   5.701  0.2576  0.1633  0.1552
 2056POPC   C1B24933  12.332  22.909   6.602 -0.1120 -0.4908  0.0500
 2056POPC   C2B24934  12.554  22.534   6.389 -0.1339 -0.0078  0.1765
 2056POPC   C3B24935  12.891  22.252   6.433  0.1399  0.1267 -0.1122
 2056POPC   C4B24936  13.367  22.271   6.579 -0.1667  0.3417 -0.0349
 2057POPC   NC324937   3.767  23.526   8.111 -0.0605  0.0617 -0.2848
 2057POPC   PO424938   3.919  23.300   7.822  0.2770 -0.0675  0.2029
 2057POPC   GL124939   3.997  23.142   7.401 -0.2588 -0.0514  0.1254
 2057POPC   GL224940   3.883  22.871   7.369  0.0710  0.4539 -0.0708
 2057POPC   C1A24941   3.994  23.090   6.943 -0.2770  0.0640  0.0135
 2057POPC   D2A24942   3.812  22.999   6.506 -0.0027  0.0025 -0.2359
 2057POPC   C3A24943   3.577  23.350   6.308  0.0155 -0.0299  0.1387
 2057POPC   C4A24944   3.796  23.653   6.039 -0.0402  0.0894  0.0883
 2057POPC   C1B24945   3.651  22.695   7.011  0.1692 -0.0871 -0.2022
 2057POPC   C2B24946   3.480  22.528   6.639 -0.0822 -0.1838 -0.0547
 2057POPC   C3B24947   3.258  22.230   6.363  0.1092 -0.2092  0.1673
 2057POPC   C4B24948   2.897  22.028   6.106  0.0007  0.2095 -0.1775
 2058POPC   NC324949   0.386   5.036   7.645  0.0060 -0.3029 -0.0055
 2058POPC   PO424950   0.565   4.870   8.017  0.0292 -0.3717  0.1189
 2058POPC   GL124951   0.394   4.582   7.699  0.1483 -0.0444 -0.1730
 2058POPC   GL224952   0.643   4.544   7.562 -0.1395 -0.0407  0.2281
 2058POPC   C1A24953   0.111   4.717   7.354 -0.2788  0.2916 -0.0367
 2058POPC   D2A24954  -0.130   4.709   6.932  0.0436 -0.1429  0.0122
 2058POPC   C3A24955  -0.244   4.319   6.708 -0.2680  0.0682  0.2078
 2058POPC   C4A24956  -0.672   4.249   6.729  0.2254 -0.2237  0.0302
 2058POPC   C1B24957   0.614   4.718   7.122 -0.1836  0.1223 -0.1926
 2058POPC   C2B24958   0.644   4.530   6.649 -0.0750  0.0520 -0.0582
 2058POPC   C3B24959   0.674   4.543   6.197 -0.0038 -0.3475  0.0926
 2058POPC   C4B24960   0.488   4.704   5.781  0.0154  0.1503 -0.1525
 2059POPC   NC324961  10.202   1.594   7.780 -0.2883  0.3128 -0.0707
 2059POPC   PO424962   9.918   1.825   7.659  0.2906 -0.1441  0.1420
 2059POPC   GL124963   9.948   1.462   7.414  0.4149  0.0471  0.0525
 2059POPC   GL224964  10.273   1.447   7.276  0.1107  0.1888 -0.4169
 2059POPC   C1A24965   9.740   1.352   7.059  0.1597 -0.0459 -0.0066
 2059POPC   D2A24966   9.776   1.360   6.644  0.3613  0.0583 -0.0697
 2059POPC   C3A24967  10.119   1.171   6.401 -0.2977 -0.3501  0.4794
 2059POPC   C4A24968  10.487   1.150   6.169  0.0152  0.0498  0.0369
 2059POPC   C1B24969  10.081   1.737   6.989 -0.3660 -0.3018  0.1105
 2059POPC   C2B24970  10.128   1.734   6.514 -0.2064  0.0963 -0.2142
 2059POPC   C3B24971  10.269   1.569   6.100 -0.1801 -0.0754  0.0476
 2059POPC   C4B24972  10.385   1.359   5.715 -0.4408  0.0054 -0.0690
 2060POPC   NC324973  12.275  10.121   7.986 -0.1745  0.0032 -0.0203
 2060POPC   PO424974  11.935  10.306   7.941  0.0942  0.0900 -0.0465
 2060POPC   GL124975  12.001  10.161   7.501  0.2471 -0.1195  0.1579
 2060POPC   GL224976  12.028  10.375   7.368 -0.2025  0.1926 -0.0582
 2060POPC   C1A24977  11.974   9.902   7.129  0.2954  0.3050 -0.1112
 2060POPC   D2A24978  11.953   9.504   6.923  0.2198  0.3756 -0.0284
 2060POPC   C3A24979  12.305   9.537   6.585  0.2128 -0.0756  0.2968
 2060POPC   C4A24980  12.231   9.607   6.136 -0.3831  0.2180 -0.0273
 2060POPC   C1B24981  12.021  10.398   6.924 -0.1002 -0.0240 -0.0751
 2060POPC   C2B24982  12.066  10.171   6.517 -0.0989 -0.2018 -0.1207
 2060POPC   C3B24983  12.179  10.231   6.085 -0.0165 -0.3265  0.1626
 2060POPC   C4B24984  12.228  10.378   5.624 -0.1772 -0.0060 -0.0104
 2061POPC   NC324985   9.437   1.237   7.520 -0.0459  0.3417 -0.1650
 2061POPC   PO424986   9.023   1.289   7.537  0.1582  0.1949  0.0410
 2061POPC   GL124987   9.072   1.351   7.155  0.1654 -0.2804  0.1400
 2061POPC   GL224988   9.278   1.181   7.067  0.1667 -0.0970 -0.0116
 2061POPC   C1A24989   8.849   1.568   6.848  0.3652  0.1702 -0.3178
 2061POPC   D2A24990   8.742   1.691   6.405 -0.2117 -0.2441  0.0184
 2061POPC   C3A24991   8.497   1.534   6.076  0.3733 -0.1586 -0.1024
 2061POPC   C4A24992   8.205   1.688   5.744 -0.4235  0.0047 -0.3621
 2061POPC   C1B24993   9.286   1.081   6.651  0.1366 -0.0498 -0.0903
 2061POPC   C2B24994   8.964   1.101   6.326  0.1196  0.1242  0.1574
 2061POPC   C3B24995   8.917   1.343   5.920  0.1294  0.1787  0.0246
 2061POPC   C4B24996   8.612   1.321   5.542  0.2930  0.2477 -0.0343
 2062POPC   NC324997  12.581  21.012   7.288  0.2687  0.1092  0.3298
 2062POPC   PO424998  12.472  20.629   7.285  0.0255 -0.1524 -0.2305
 2062POPC   GL124999  12.486  20.686   6.899  0.3571  0.2618 -0.1855
 2062POPC   GL225000  12.759  20.673   6.800  0.2505  0.0547 -0.0879
 2062POPC   C1A25001  12.510  21.131   6.705 -0.0242  0.2994 -0.0453
 2062POPC   D2A25002  12.664  21.365   6.348 -0.0668 -0.0621  0.1044
 2062POPC   C3A25003  12.693  21.315   5.865 -0.1231 -0.0227  0.0943
 2062POPC   C4A25004  12.496  21.080   5.512  0.4821 -0.0654 -0.0519
 2062POPC   C1B25005  12.663  20.778   6.357 -0.1267  0.1788  0.0457
 2062POPC   C2B25006  12.343  20.988   6.115 -0.0239  0.1249 -0.1213
 2062POPC   C3B25007  12.025  21.188   6.381 -0.0796  0.1043  0.0379
 2062POPC   C4B25008  11.721  20.991   6.666  0.0776  0.1226 -0.0087
 2063POPC   NC325009  11.061  23.064   7.451  0.2756 -0.2358  0.0612
 2063POPC   PO425010  11.353  22.822   7.538  0.2694  0.0229  0.2217
 2063POPC   GL125011  11.278  22.696   7.213 -0.0373 -0.2040 -0.2007
 2063POPC   GL225012  11.298  22.371   7.200  0.0619 -0.2877  0.2116
 2063POPC   C1A25013  11.101  22.822   6.782  0.1354 -0.3618  0.0329
 2063POPC   D2A25014  10.645  22.874   6.548 -0.1600  0.2316  0.1451
 2063POPC   C3A25015  10.699  22.535   6.259 -0.0588 -0.2799 -0.2151
 2063POPC   C4A25016  10.594  22.329   5.904 -0.0443  0.3110  0.0521
 2063POPC   C1B25017  11.486  22.515   6.830  0.0604  0.1271 -0.0998
 2063POPC   C2B25018  11.381  22.613   6.413 -0.0144  0.3063  0.2263
 2063POPC   C3B25019  11.255  22.639   5.960 -0.1727 -0.1571 -0.2511
 2063POPC   C4B25020  11.288  22.579   5.513  0.0518 -0.2808 -0.0542
 2064POPC   NC325021   0.666   6.684   7.926  0.1224  0.5294 -0.1058
 2064POPC   PO425022   0.323   6.707   7.769  0.0115  0.2071 -0.0149
 2064POPC   GL125023   0.256   7.007   7.570 -0.3192 -0.0907 -0.0187
 2064POPC   GL225024   0.412   7.222   7.556  0.2162 -0.0792 -0.0864
 2064POPC   C1A25025   0.089   6.904   7.172  0.3630 -0.1491  0.0678
 2064POPC   D2A25026   0.380   6.703   6.874 -0.0574 -0.3253  0.0945
 2064POPC   C3A25027   0.369   6.815   6.443 -0.1081  0.0442 -0.1279
 2064POPC   C4A25028   0.436   6.963   5.978 -0.0602 -0.1435  0.0849
 2064POPC   C1B25029   0.251   7.383   7.157  0.0163  0.2121 -0.3182
 2064POPC   C2B25030   0.126   7.426   6.749  0.1255  0.3444  0.4687
 2064POPC   C3B25031  -0.267   7.502   6.522 -0.1479  0.1507 -0.0712
 2064POPC   C4B25032  -0.640   7.484   6.239 -0.1665  0.0236  0.1171
 2065POPC   NC325033   4.609  18.266   7.479  0.1861 -0.1523  0.0569
 2065POPC   PO425034   4.858  18.077   7.273  0.1346 -0.0325  0.1044
 2065POPC   GL125035   4.862  18.084   6.900  0.3074 -0.0992  0.1686
 2065POPC   GL225036   4.770  18.301   6.778  0.2144 -0.2704  0.1217
 2065POPC   C1A25037   4.628  17.858   6.584  0.1901 -0.1692  0.0493
 2065POPC   D2A25038   4.572  17.794   6.133  0.0521 -0.0246 -0.2361
 2065POPC   C3A25039   4.366  18.142   5.915 -0.1326 -0.0193  0.1609
 2065POPC   C4A25040   4.212  18.505   5.725 -0.2727  0.0472  0.0672
 2065POPC   C1B25041   5.010  18.651   6.634 -0.0938  0.0021 -0.0690
 2065POPC   C2B25042   5.021  18.859   6.244 -0.2022 -0.0225  0.0203
 2065POPC   C3B25043   4.921  19.221   5.893  0.0142 -0.2049  0.1537
 2065POPC   C4B25044   4.612  19.516   5.798 -0.0347 -0.3554 -0.1135
 2066POPC   NC325045  13.026   1.265   8.098  0.2723  0.1275 -0.2767
 2066POPC   PO425046  13.247   0.950   8.042  0.0357 -0.0536  0.3236
 2066POPC   GL125047  12.950   1.051   7.633  0.0041  0.1355  0.3198
 2066POPC   GL225048  13.206   1.212   7.554 -0.3230 -0.1066 -0.0041
 2066POPC   C1A25049  12.780   1.081   7.205 -0.0197 -0.3376 -0.0800
 2066POPC   D2A25050  12.886   1.062   6.767 -0.0100  0.2438  0.0561
 2066POPC   C3A25051  12.543   0.883   6.453  0.0717  0.0139  0.0849
 2066POPC   C4A25052  12.391   0.379   6.302 -0.3784  0.1235 -0.0930
 2066POPC   C1B25053  13.052   1.534   7.226 -0.1172  0.2701 -0.0010
 2066POPC   C2B25054  13.043   1.575   6.751  0.0470 -0.1207  0.0066
 2066POPC   C3B25055  13.101   1.576   6.269 -0.0344  0.1286  0.1335
 2066POPC   C4B25056  13.379   1.744   5.925 -0.0364  0.4463 -0.0676
 2067POPC   NC325057   9.930  13.594   7.560  0.0772 -0.1138 -0.1776
 2067POPC   PO425058   9.733  13.556   7.270  0.0126  0.2598  0.2053
 2067POPC   GL125059   9.499  13.253   6.944  0.2334  0.1292  0.1150
 2067POPC   GL225060   9.350  12.959   7.058 -0.3678 -0.0128  0.1301
 2067POPC   C1A25061   9.465  13.449   6.500 -0.3443 -0.5463  0.0956
 2067POPC   D2A25062   9.459  13.607   6.089  0.2862  0.1368 -0.1842
 2067POPC   C3A25063   9.735  13.489   5.754  0.1842  0.0607  0.4082
 2067POPC   C4A25064  10.057  13.515   5.390 -0.1190  0.2715 -0.1440
 2067POPC   C1B25065   9.095  13.052   6.715 -0.0068  0.0939  0.2360
 2067POPC   C2B25066   8.922  12.918   6.309  0.2226 -0.0614  0.0820
 2067POPC   C3B25067   9.010  13.231   6.004 -0.0738  0.0971  0.2695
 2067POPC   C4B25068   8.709  13.493   5.809  0.3179  0.2646  0.1213
 2068POPC   NC325069  11.100   5.621   7.422 -0.1485 -0.0202 -0.0982
 2068POPC   PO425070  11.232   5.934   7.641  0.0282 -0.2132 -0.4365
 2068POPC   GL125071  11.484   5.998   7.403  0.2879 -0.1130 -0.4300
 2068POPC   GL225072  11.770   6.119   7.370  0.1122 -0.5405 -0.0164
 2068POPC   C1A25073  11.303   5.885   6.981 -0.1683 -0.0204 -0.0839
 2068POPC   D2A25074  11.608   5.665   6.698 -0.0162  0.2074 -0.0955
 2068POPC   C3A25075  11.477   5.402   6.308  0.0037  0.1159  0.0423
 2068POPC   C4A25076  11.530   5.112   5.999  0.2908 -0.0985 -0.2898
 2068POPC   C1B25077  11.733   6.210   6.919  0.1683  0.2134 -0.3305
 2068POPC   C2B25078  11.550   6.148   6.517  0.3546 -0.1294 -0.1607
 2068POPC   C3B25079  11.685   5.867   6.190 -0.0693  0.2857 -0.1563
 2068POPC   C4B25080  11.736   5.581   5.900 -0.2222 -0.0909 -0.0620
 2069POPC   NC325081   9.653  31.478   7.719  0.2038 -0.0285  0.0552
 2069POPC   PO425082   9.411  31.642   7.511  0.1951  0.2696  0.1611
 2069POPC   GL125083   9.384  31.526   7.223 -0.3336  0.1516  0.1139
 2069POPC   GL225084   9.557  31.570   6.993  0.2548 -0.1627 -0.2499
 2069POPC   C1A25085   9.113  31.481   6.761  0.0257  0.0186 -0.0847
 2069POPC   D2A25086   9.149  31.196   6.434 -0.1099  0.1909  0.0144
 2069POPC   C3A25087   9.318  31.516   6.150  0.2729 -0.0371 -0.0769
 2069POPC   C4A25088   9.655  31.841   6.117  0.0612  0.1452  0.0819
 2069POPC   C1B25089   9.952  31.635   6.756 -0.2615  0.1033 -0.0301
 2069POPC   C2B25090  10.209  31.620   6.358  0.2835  0.0901 -0.1028
 2069POPC   C3B25091  10.127  32.039   6.177 -0.0254  0.0501  0.1425
 2069POPC   C4B25092   9.852  32.354   6.047  0.4851 -0.1298 -0.0156
 2070POPC   NC325093  13.602  19.660   7.789  0.1793  0.1588  0.2309
 2070POPC   PO425094  13.814  19.308   7.728  0.1970  0.1608 -0.1212
 2070POPC   GL125095  13.902  19.406   7.434  0.0886  0.2188 -0.3220
 2070POPC   GL225096  13.822  19.183   7.219  0.2337  0.2172  0.1139
 2070POPC   C1A25097  14.175  19.552   7.145  0.0304  0.2477 -0.1131
 2070POPC   D2A25098  14.253  19.828   6.816 -0.0743 -0.0397 -0.0990
 2070POPC   C3A25099  14.259  19.669   6.415 -0.1486 -0.1881  0.0462
 2070POPC   C4A25100  14.422  19.596   6.035  0.2635 -0.0621  0.0562
 2070POPC   C1B25101  13.673  19.434   6.880 -0.0336  0.0150  0.1170
 2070POPC   C2B25102  13.800  19.550   6.414  0.1356  0.2710 -0.3032
 2070POPC   C3B25103  13.782  19.763   6.032 -0.1950 -0.2749 -0.5351
 2070POPC   C4B25104  13.812  19.644   5.607 -0.1614 -0.2716  0.2856
 2071POPC   NC325105   8.199   0.165   7.464  0.0735 -0.2252 -0.5727
 2071POPC   PO425106   8.123  -0.218   7.542  0.0998 -0.0210  0.0286
 2071POPC   GL125107   7.873  -0.266   7.249 -0.0717  0.0433  0.1804
 2071POPC   GL225108   7.990  -0.159   7.014  0.1341 -0.0160  0.0836
 2071POPC   C1A25109   7.578  -0.482   6.955 -0.2067  0.2266  0.2389
 2071POPC   D2A25110   7.567  -0.700   6.551 -0.0085  0.1576  0.0278
 2071POPC   C3A25111   7.958  -0.763   6.332 -0.3461  0.1034 -0.2829
 2071POPC   C4A25112   8.247  -0.877   6.044  0.1251  0.0861  0.1621
 2071POPC   C1B25113   7.838   0.161   6.626  0.0255  0.4602 -0.1495
 2071POPC   C2B25114   8.035   0.179   6.259  0.0566 -0.1901  0.0681
 2071POPC   C3B25115   7.866   0.115   5.887 -0.0651  0.2469  0.1030
 2071POPC   C4B25116   7.560   0.292   5.586  0.1500 -0.2179  0.1083
 2072POPC   NC325117  14.543  17.820   7.349 -0.0726  0.2226  0.0514
 2072POPC   PO425118  14.553  18.204   7.288  0.1306  0.2014 -0.4409
 2072POPC   GL125119  14.455  18.215   6.950  0.2363 -0.1686 -0.1462
 2072POPC   GL225120  14.649  18.514   6.839 -0.2230 -0.0082 -0.0754
 2072POPC   C1A25121  14.811  18.082   6.693  0.1819 -0.4389  0.1307
 2072POPC   D2A25122  15.192  18.037   6.387  0.1266  0.2889  0.4267
 2072POPC   C3A25123  15.170  17.573   6.212  0.0534 -0.1333  0.2113
 2072POPC   C4A25124  15.453  17.339   6.002 -0.1170 -0.0420  0.2553
 2072POPC   C1B25125  14.890  18.496   6.472  0.1659 -0.1726  0.2949
 2072POPC   C2B25126  15.003  18.461   6.024 -0.0335  0.1930  0.2308
 2072POPC   C3B25127  15.193  18.537   5.633 -0.1253  0.1838 -0.2314
 2072POPC   C4B25128  15.276  18.588   5.201 -0.0033 -0.0993  0.0629
 2073POPC   NC325129   2.096  16.808   8.658 -0.1368  0.1239  0.0688
 2073POPC   PO425130   1.911  17.126   8.580  0.4481 -0.1548  0.1844
 2073POPC   GL125131   1.828  17.226   8.236 -0.1903  0.0301  0.4558
 2073POPC   GL225132   2.067  17.298   8.058 -0.2876  0.2473  0.0281
 2073POPC   C1A25133   1.519  17.497   8.029 -0.2154 -0.6829 -0.1029
 2073POPC   D2A25134   1.199  17.815   7.940  0.0259 -0.1048  0.0458
 2073POPC   C3A25135   0.754  17.698   7.836 -0.2550  0.1036  0.0366
 2073POPC   C4A25136   0.306  17.572   7.818 -0.4267 -0.2929 -0.1766
 2073POPC   C1B25137   1.800  17.312   7.669 -0.3972  0.2395  0.2736
 2073POPC   C2B25138   1.639  17.537   7.313  0.1646 -0.1146  0.0717
 2073POPC   C3B25139   1.340  17.662   6.981 -0.0060  0.0628 -0.0415
 2073POPC   C4B25140   0.920  17.741   6.872  0.2976 -0.0101  0.2733
 2074POPC   NC325141   7.518  13.305   7.955  0.1755 -0.0367 -0.0457
 2074POPC   PO425142   7.405  13.676   7.918  0.1495 -0.3087  0.3397
 2074POPC   GL125143   7.277  13.476   7.578  0.1899  0.1944 -0.2840
 2074POPC   GL225144   7.052  13.355   7.730 -0.0526 -0.2823 -0.3438
 2074POPC   C1A25145   7.094  13.157   7.233 -0.0759 -0.2775  0.1444
 2074POPC   D2A25146   6.839  12.920   6.932  0.1390 -0.1103 -0.2371
 2074POPC   C3A25147   6.908  12.855   6.499 -0.1239  0.2949 -0.1184
 2074POPC   C4A25148   6.987  12.597   6.063 -0.0095  0.1052  0.0449
 2074POPC   C1B25149   6.887  13.584   7.392  0.3107  0.1268 -0.1049
 2074POPC   C2B25150   6.881  13.460   6.958  0.1032  0.0240  0.1355
 2074POPC   C3B25151   6.729  13.605   6.560 -0.0944  0.0174 -0.0237
 2074POPC   C4B25152   6.525  13.721   6.159 -0.0181 -0.1665 -0.1089
 2075POPC   NC325153  14.061   1.601   8.015 -0.0637  0.0683 -0.2489
 2075POPC   PO425154  14.150   1.677   7.625  0.1234  0.0134  0.0382
 2075POPC   GL125155  14.251   1.399   7.317 -0.1129 -0.0039 -0.0249
 2075POPC   GL225156  14.025   1.444   7.133 -0.2095  0.2360 -0.1119
 2075POPC   C1A25157  14.470   1.605   6.940 -0.2276  0.0556  0.0782
 2075POPC   D2A25158  14.638   1.576   6.520  0.0684  0.1714  0.1118
 2075POPC   C3A25159  14.340   1.771   6.276  0.0239 -0.1101 -0.0633
 2075POPC   C4A25160  13.916   1.758   6.055  0.0330 -0.0231 -0.2357
 2075POPC   C1B25161  14.115   1.423   6.638  0.1793 -0.2721 -0.1327
 2075POPC   C2B25162  14.058   1.292   6.213 -0.0012 -0.1063  0.1864
 2075POPC   C3B25163  13.969   0.970   5.926  0.0805 -0.0010  0.4381
 2075POPC   C4B25164  13.612   1.037   5.655 -0.1007 -0.2468  0.1190
 2076POPC   NC325165   1.276   6.133   7.216 -0.3816  0.0407  0.2580
 2076POPC   PO425166   1.619   6.345   7.284  0.1357 -0.0070  0.2208
 2076POPC   GL125167   1.617   6.149   6.889 -0.3496 -0.2443  0.0583
 2076POPC   GL225168   1.747   6.387   6.762  0.2388  0.1013 -0.0406
 2076POPC   C1A25169   1.565   6.138   6.420 -0.0847 -0.0215 -0.0888
 2076POPC   D2A25170   1.590   6.032   5.986 -0.0630 -0.0610  0.1032
 2076POPC   C3A25171   1.222   5.996   5.799  0.1296 -0.0972 -0.0793
 2076POPC   C4A25172   1.188   5.787   5.418 -0.0190 -0.3120  0.5685
 2076POPC   C1B25173   1.526   6.679   6.439 -0.2732 -0.2779 -0.1618
 2076POPC   C2B25174   1.501   6.696   5.997  0.1448 -0.2131  0.1071
 2076POPC   C3B25175   1.586   6.425   5.659 -0.0088  0.1332  0.1568
 2076POPC   C4B25176   1.524   6.129   5.309 -0.0480  0.2893 -0.0317
 2077POPC   NC325177   4.664  17.158   7.344 -0.0100 -0.0670 -0.4394
 2077POPC   PO425178   4.793  17.559   7.213  0.0888  0.1542 -0.0785
 2077POPC   GL125179   4.536  17.470   6.853  0.2845 -0.4246 -0.3670
 2077POPC   GL225180   4.347  17.221   6.871  0.1109  0.1691 -0.0894
 2077POPC   C1A25181   4.624  17.373   6.377  0.1902  0.1096  0.0961
 2077POPC   D2A25182   4.536  17.370   5.893  0.1001  0.0322  0.1632
 2077POPC   C3A25183   4.715  17.729   5.631 -0.0047  0.0948 -0.2998
 2077POPC   C4A25184   4.540  18.162   5.408 -0.2456 -0.2451 -0.1412
 2077POPC   C1B25185   4.180  17.147   6.468  0.0384 -0.0205  0.2801
 2077POPC   C2B25186   4.061  17.206   5.997  0.0596 -0.0518 -0.0894
 2077POPC   C3B25187   4.050  17.259   5.541  0.1394 -0.1278 -0.0737
 2077POPC   C4B25188   3.876  16.955   5.235 -0.1867  0.1302  0.1346
 2078POPC   NC325189   3.878  27.410   7.959 -0.1492  0.2198  0.0559
 2078POPC   PO425190   3.681  27.769   7.834 -0.1059 -0.3084  0.0928
 2078POPC   GL125191   3.978  27.720   7.494 -0.2425  0.0655 -0.1265
 2078POPC   GL225192   4.159  27.986   7.425 -0.1211 -0.1608  0.0156
 2078POPC   C1A25193   3.904  27.696   7.086  0.0321 -0.2652  0.0042
 2078POPC   D2A25194   3.999  27.533   6.725 -0.0898  0.0104 -0.2314
 2078POPC   C3A25195   3.790  27.262   6.433  0.0709  0.0814 -0.0260
 2078POPC   C4A25196   3.633  27.217   6.019  0.1640 -0.2708  0.1674
 2078POPC   C1B25197   4.052  28.214   7.104 -0.1631  0.0161  0.0956
 2078POPC   C2B25198   4.072  28.182   6.696  0.0283 -0.2459  0.0867
 2078POPC   C3B25199   4.075  27.919   6.366 -0.1959  0.1786  0.0846
 2078POPC   C4B25200   4.105  27.529   6.113 -0.2292 -0.1802  0.0074
 2079POPC   NC325201   8.775   0.833   7.681  0.1635  0.0089 -0.2413
 2079POPC   PO425202   8.474   0.583   7.565  0.1526  0.0717  0.0443
 2079POPC   GL125203   8.315   0.533   7.189  0.0854  0.0740 -0.0810
 2079POPC   GL225204   8.489   0.330   7.001 -0.0292 -0.3436  0.2213
 2079POPC   C1A25205   7.924   0.319   7.058  0.1102 -0.0469 -0.1898
 2079POPC   D2A25206   7.526   0.054   6.987 -0.0452  0.1415  0.4738
 2079POPC   C3A25207   7.466  -0.123   6.542  0.0552  0.1730  0.0098
 2079POPC   C4A25208   7.353   0.073   6.173 -0.1001  0.2555 -0.0086
 2079POPC   C1B25209   8.367   0.447   6.563 -0.0718 -0.5027  0.1364
 2079POPC   C2B25210   8.550   0.164   6.211  0.0794 -0.1964  0.0281
 2079POPC   C3B25211   8.432   0.039   5.806  0.0617 -0.0341  0.0378
 2079POPC   C4B25212   8.451   0.024   5.313 -0.1273 -0.0386 -0.2313
 2080POPC   NC325213  10.432  22.445   7.463  0.4025  0.1741 -0.1141
 2080POPC   PO425214  10.125  22.601   7.664  0.0120  0.1549 -0.0657
 2080POPC   GL125215  10.024  22.677   7.266 -0.2399 -0.1409  0.0302
 2080POPC   GL225216  10.161  22.927   7.219  0.2295 -0.2787 -0.0468
 2080POPC   C1A25217   9.708  22.883   6.980 -0.2420 -0.0426  0.4807
 2080POPC   D2A25218   9.620  22.891   6.561  0.3751  0.1230 -0.2753
 2080POPC   C3A25219   9.737  22.977   6.102  0.0397  0.2120  0.3609
 2080POPC   C4A25220  10.056  22.839   5.844 -0.1097 -0.1609 -0.0641
 2080POPC   C1B25221  10.157  22.796   6.760  0.2099  0.0267 -0.0981
 2080POPC   C2B25222  10.227  22.731   6.330 -0.2015 -0.2875  0.0935
 2080POPC   C3B25223  10.502  23.038   6.121  0.3205 -0.1736  0.1164
 2080POPC   C4B25224  10.604  23.413   5.836  0.1231 -0.1221 -0.0418
 2081POPC   NC325225   3.962  30.162   7.513 -0.0695 -0.0264 -0.0173
 2081POPC   PO425226   3.726  30.016   7.773  0.0249 -0.1101  0.0080
 2081POPC   GL125227   3.442  29.786   8.024 -0.0938  0.4036  0.1561
 2081POPC   GL225228   3.247  29.824   7.735  0.0535 -0.4316 -0.0451
 2081POPC   C1A25229   2.996  29.844   8.181  0.3559  0.2422  0.1959
 2081POPC   D2A25230   2.528  30.026   8.191 -0.4528 -0.1333  0.2506
 2081POPC   C3A25231   2.306  30.400   8.264  0.2072  0.1633 -0.0145
 2081POPC   C4A25232   2.191  30.376   8.788 -0.1758  0.1522 -0.1956
 2081POPC   C1B25233   3.221  29.412   7.538  0.1488 -0.0040  0.2070
 2081POPC   C2B25234   3.235  29.142   7.119 -0.0842  0.0085 -0.2872
 2081POPC   C3B25235   3.278  28.900   6.730 -0.2938  0.0496 -0.2727
 2081POPC   C4B25236   3.474  28.784   6.338 -0.2158  0.1117 -0.0776
 2082POPC   NC325237  13.056  16.888   7.769 -0.1393  0.0692 -0.0286
 2082POPC   PO425238  12.699  16.881   7.923 -0.2635 -0.1838 -0.0373
 2082POPC   GL125239  12.604  16.698   7.554  0.1641  0.5308 -0.1246
 2082POPC   GL225240  12.335  16.714   7.568 -0.1021 -0.2198  0.0614
 2082POPC   C1A25241  12.428  16.345   7.267 -0.0661  0.1232 -0.3353
 2082POPC   D2A25242  12.358  16.246   6.859  0.0219  0.1338  0.2066
 2082POPC   C3A25243  12.384  16.459   6.371 -0.1957  0.1437 -0.4336
 2082POPC   C4A25244  12.616  16.637   6.069 -0.0662 -0.3557  0.1030
 2082POPC   C1B25245  11.988  16.635   7.245 -0.0215  0.2026 -0.2071
 2082POPC   C2B25246  11.880  16.680   6.773  0.0487 -0.0926  0.0403
 2082POPC   C3B25247  11.911  16.749   6.363  0.2573 -0.0444 -0.0312
 2082POPC   C4B25248  11.906  16.856   5.905  0.0606 -0.0096 -0.2503
 2083POPC   NC325249   7.902  12.575   8.193 -0.0642 -0.1222 -0.0683
 2083POPC   PO425250   7.817  12.707   7.817  0.1426  0.0113  0.0259
 2083POPC   GL125251   7.646  12.405   7.525  0.0601  0.0976  0.1509
 2083POPC   GL225252   7.794  12.374   7.305 -0.1903  0.1974  0.0420
 2083POPC   C1A25253   7.247  12.537   7.345  0.1388 -0.5579 -0.0887
 2083POPC   D2A25254   7.090  12.487   6.915  0.0150 -0.0163 -0.2729
 2083POPC   C3A25255   7.338  12.580   6.520  0.0543  0.2105  0.0431
 2083POPC   C4A25256   7.597  12.598   6.108  0.0701  0.2731 -0.1519
 2083POPC   C1B25257   7.732  12.781   7.104  0.1878 -0.0848  0.1508
 2083POPC   C2B25258   7.818  13.070   6.781  0.1196 -0.1435  0.0480
 2083POPC   C3B25259   7.687  13.478   6.584 -0.2110  0.0940 -0.2067
 2083POPC   C4B25260   7.502  13.552   6.181  0.3248 -0.0492 -0.2235
 2084POPC   NC325261   4.163   0.628   7.733  0.3213 -0.0643 -0.1253
 2084POPC   PO425262   4.551   0.763   7.717 -0.0407  0.1666  0.3592
 2084POPC   GL125263   4.487   0.515   7.353 -0.1495 -0.1928 -0.1791
 2084POPC   GL225264   4.447   0.805   7.209 -0.1073 -0.0138  0.0410
 2084POPC   C1A25265   4.397   0.433   6.869 -0.0622  0.2155  0.1396
 2084POPC   D2A25266   4.476   0.669   6.446  0.0755  0.2078 -0.3021
 2084POPC   C3A25267   4.823   0.619   6.147 -0.2335 -0.1199 -0.0389
 2084POPC   C4A25268   4.999   0.672   5.734  0.2109 -0.1102  0.1486
 2084POPC   C1B25269   4.234   0.936   6.804  0.0118 -0.2067  0.0138
 2084POPC   C2B25270   4.237   1.134   6.378  0.0104  0.3506  0.2589
 2084POPC   C3B25271   4.432   1.074   5.925 -0.4295 -0.1345 -0.1009
 2084POPC   C4B25272   4.184   0.979   5.529  0.2379 -0.0562  0.2021
 2085POPC   NC325273   7.726   7.722   7.948 -0.3283 -0.0917  0.1893
 2085POPC   PO425274   7.457   7.851   7.752 -0.0329  0.0362  0.1397
 2085POPC   GL125275   7.417   7.970   7.379  0.0502 -0.3529 -0.0158
 2085POPC   GL225276   7.525   7.787   7.194 -0.2846 -0.0026  0.1361
 2085POPC   C1A25277   7.341   8.179   6.965  0.1503  0.0901  0.1715
 2085POPC   D2A25278   7.380   8.157   6.540  0.2533 -0.0070  0.0588
 2085POPC   C3A25279   7.001   8.218   6.261 -0.1723 -0.1490 -0.1570
 2085POPC   C4A25280   6.592   8.153   6.349 -0.0255 -0.0357 -0.5893
 2085POPC   C1B25281   7.672   7.797   6.738  0.0598 -0.0478 -0.0674
 2085POPC   C2B25282   7.556   7.685   6.326  0.0681 -0.0886  0.2037
 2085POPC   C3B25283   7.283   7.870   5.999  0.0280  0.2020 -0.3292
 2085POPC   C4B25284   6.817   7.830   5.956  0.5244 -0.0319 -0.1364
 2086POPC   NC325285   2.057  20.884   8.288 -0.2308  0.0862 -0.2266
 2086POPC   PO425286   2.098  20.717   7.948 -0.0222  0.0378  0.0684
 2086POPC   GL125287   2.373  20.670   7.581 -0.1515 -0.0074 -0.0097
 2086POPC   GL225288   2.519  20.797   7.402  0.2546 -0.1151 -0.0095
 2086POPC   C1A25289   2.103  20.686   7.144 -0.0763 -0.1377  0.2057
 2086POPC   D2A25290   2.034  20.497   6.645  0.2310  0.1039  0.2205
 2086POPC   C3A25291   2.282  20.226   6.418  0.2197 -0.0223 -0.0465
 2086POPC   C4A25292   2.489  20.365   6.023 -0.0259 -0.3186 -0.1528
 2086POPC   C1B25293   2.460  21.138   7.087 -0.2051 -0.2163 -0.4278
 2086POPC   C2B25294   2.240  20.929   6.686  0.0053 -0.0492  0.1428
 2086POPC   C3B25295   2.239  20.881   6.239  0.1165 -0.0499  0.0998
 2086POPC   C4B25296   2.008  20.523   5.997 -0.0573 -0.0105  0.1754
 2087POPC   NC325297   4.288  23.954   7.525  0.0592 -0.1889 -0.2971
 2087POPC   PO425298   4.092  23.727   7.707 -0.2247 -0.2817 -0.4007
 2087POPC   GL125299   4.150  23.549   7.401 -0.0337 -0.1774  0.0325
 2087POPC   GL225300   3.949  23.640   7.160 -0.1695 -0.0703 -0.0067
 2087POPC   C1A25301   4.452  23.246   7.182  0.2050  0.0360 -0.6197
 2087POPC   D2A25302   4.558  23.043   6.748  0.0148 -0.1008 -0.0510
 2087POPC   C3A25303   4.315  23.060   6.343 -0.0593 -0.3611  0.0950
 2087POPC   C4A25304   4.011  23.184   5.990 -0.0141  0.1464  0.2474
 2087POPC   C1B25305   4.364  23.643   6.917 -0.1874 -0.1371 -0.2850
 2087POPC   C2B25306   4.665  23.650   6.578 -0.2821  0.1813 -0.1177
 2087POPC   C3B25307   5.162  23.645   6.482  0.0515 -0.0044  0.0853
 2087POPC   C4B25308   5.513  23.772   6.224  0.2186 -0.1627 -0.0368
 2088POPC   NC325309   4.314  22.779   7.610 -0.0830 -0.0297  0.1605
 2088POPC   PO425310   4.068  22.510   7.704  0.1747  0.3257  0.0371
 2088POPC   GL125311   4.115  22.373   7.320  0.6413  0.1639 -0.3419
 2088POPC   GL225312   4.230  22.563   7.162  0.1672 -0.0991  0.3513
 2088POPC   C1A25313   3.871  22.209   6.944 -0.1250  0.0112 -0.2420
 2088POPC   D2A25314   3.840  22.111   6.451 -0.0586 -0.1990  0.1180
 2088POPC   C3A25315   3.679  22.436   6.154  0.0568 -0.1201 -0.4886
 2088POPC   C4A25316   3.688  22.405   5.706  0.1860 -0.4037 -0.3784
 2088POPC   C1B25317   4.169  22.597   6.676 -0.1151  0.2139 -0.1577
 2088POPC   C2B25318   4.151  22.520   6.225 -0.2050 -0.0084 -0.3293
 2088POPC   C3B25319   4.249  22.764   5.824 -0.1622 -0.5031  0.0071
 2088POPC   C4B25320   4.159  23.049   5.529  0.1354  0.1071  0.1896
 2089POPC   NC325321  11.302  25.086   8.155  0.0613 -0.2821 -0.0481
 2089POPC   PO425322  11.150  25.388   7.921  0.1459 -0.1825  0.3335
 2089POPC   GL125323  11.217  25.480   7.563  0.4309 -0.3084  0.0685
 2089POPC   GL225324  11.085  25.746   7.503 -0.3151  0.1807  0.0896
 2089POPC   C1A25325  10.828  25.441   7.213 -0.1981  0.0740 -0.1260
 2089POPC   D2A25326  10.940  25.574   6.766  0.0941 -0.1029 -0.0857
 2089POPC   C3A25327  10.912  25.331   6.359 -0.1234  0.0719  0.0203
 2089POPC   C4A25328  11.002  25.233   5.953 -0.0330  0.2315 -0.2266
 2089POPC   C1B25329  11.324  25.612   7.106 -0.0891  0.4685 -0.0251
 2089POPC   C2B25330  11.370  25.306   6.778 -0.0811  0.0401  0.2209
 2089POPC   C3B25331  11.312  25.088   6.332 -0.1370  0.0139 -0.0417
 2089POPC   C4B25332  11.324  24.802   5.977 -0.3137 -0.1027  0.0279
 2090POPC   NC325333   0.382   0.294   7.973 -0.1264  0.2175  0.0516
 2090POPC   PO425334   0.684   0.452   7.811  0.3760  0.1426 -0.0821
 2090POPC   GL125335   1.018   0.176   7.642  0.3390 -0.1332 -0.2794
 2090POPC   GL225336   1.208   0.271   7.838  0.0183  0.1434  0.3169
 2090POPC   C1A25337   1.276   0.161   7.323 -0.1517  0.3534 -0.0279
 2090POPC   D2A25338   1.194  -0.204   7.010  0.2366  0.1012  0.0455
 2090POPC   C3A25339   1.530  -0.251   6.703 -0.1332  0.0886 -0.1235
 2090POPC   C4A25340   1.877   0.081   6.730 -0.0120  0.2251 -0.0567
 2090POPC   C1B25341   1.663   0.195   7.825 -0.1821 -0.0647 -0.2869
 2090POPC   C2B25342   1.875   0.197   7.373 -0.1155 -0.2829 -0.0007
 2090POPC   C3B25343   2.133   0.529   7.145 -0.0707 -0.1883  0.0033
 2090POPC   C4B25344   2.173   0.644   6.731 -0.3120 -0.0798  0.1690
 2091POPC   NC325345  10.058  10.706   7.619  0.0727 -0.0750 -0.2805
 2091POPC   PO425346   9.749  10.929   7.699 -0.1108 -0.1402  0.1238
 2091POPC   GL125347   9.773  11.172   7.399 -0.2017  0.1347 -0.0977
 2091POPC   GL225348  10.094  11.189   7.332 -0.0737 -0.0133 -0.0682
 2091POPC   C1A25349   9.464  11.184   7.047  0.4665  0.0196 -0.0119
 2091POPC   D2A25350   9.507  11.350   6.641 -0.1798  0.0563  0.2563
 2091POPC   C3A25351   9.568  11.445   6.148  0.0233  0.1138 -0.0997
 2091POPC   C4A25352   9.503  11.651   5.739  0.1498 -0.0696  0.1020
 2091POPC   C1B25353   9.963  11.210   6.878  0.1897 -0.0248  0.1665
 2091POPC   C2B25354  10.038  11.271   6.393 -0.0228 -0.1277  0.1594
 2091POPC   C3B25355   9.999  11.505   5.955  0.0555  0.1060  0.0762
 2091POPC   C4B25356  10.274  11.836   5.831  0.1533 -0.0908  0.0574
 2092POPC   NC325357   4.368  17.835   7.098 -0.1503 -0.0671 -0.0131
 2092POPC   PO425358   4.080  17.570   7.185 -0.2594  0.0709  0.1247
 2092POPC   GL125359   4.067  17.608   6.763  0.1558  0.0386  0.1803
 2092POPC   GL225360   3.754  17.667   6.750  0.0186  0.0993 -0.1076
 2092POPC   C1A25361   4.126  17.614   6.276 -0.0863 -0.1077  0.6354
 2092POPC   D2A25362   4.144  17.731   5.795 -0.0100 -0.0882  0.1467
 2092POPC   C3A25363   3.964  18.136   5.590  0.0489 -0.1963 -0.2194
 2092POPC   C4A25364   3.772  18.560   5.430  0.0852 -0.0760 -0.0257
 2092POPC   C1B25365   3.614  17.956   6.396 -0.2500  0.3271  0.4444
 2092POPC   C2B25366   3.293  17.808   6.124 -0.2485 -0.0622  0.0835
 2092POPC   C3B25367   2.937  17.912   5.812 -0.2114  0.0003 -0.1448
 2092POPC   C4B25368   2.898  18.044   5.376  0.1557 -0.0261  0.0762
 2093POPC   NC325369   0.505  21.820   7.814  0.1867  0.1252 -0.0699
 2093POPC   PO425370   0.544  21.631   7.491  0.1170  0.0194  0.0428
 2093POPC   GL125371   0.519  21.589   7.017  0.0168 -0.6199 -0.2757
 2093POPC   GL225372   0.196  21.561   6.949 -0.0377 -0.0793  0.0232
 2093POPC   C1A25373   0.478  21.405   6.571  0.2557 -0.0110 -0.1826
 2093POPC   D2A25374   0.459  21.105   6.211  0.0255  0.2808 -0.0192
 2093POPC   C3A25375   0.102  20.907   6.074  0.1936  0.1416 -0.0937
 2093POPC   C4A25376  -0.251  20.812   5.758  0.2190 -0.0485 -0.1868
 2093POPC   C1B25377   0.103  21.782   6.537 -0.0835  0.0940 -0.1729
 2093POPC   C2B25378   0.318  21.781   6.155  0.0288  0.0534 -0.1721
 2093POPC   C3B25379   0.565  21.953   5.777  0.1276 -0.1849  0.2196
 2093POPC   C4B25380   0.884  22.078   5.445  0.0103  0.0437 -0.1124
 2094POPC   NC325381  11.065  20.539   7.522 -0.5733  0.1721 -0.2324
 2094POPC   PO425382  10.682  20.433   7.533 -0.2162 -0.2268  0.0192
 2094POPC   GL125383  10.335  20.644   7.325 -0.3149  0.0864  0.2083
 2094POPC   GL225384  10.108  20.812   7.370  0.3594 -0.1458 -0.1407
 2094POPC   C1A25385  10.360  20.659   6.878 -0.1651  0.2341 -0.0271
 2094POPC   D2A25386  10.484  20.680   6.345  0.0477  0.0027 -0.0933
 2094POPC   C3A25387  10.510  20.242   6.153 -0.0456 -0.0783  0.2624
 2094POPC   C4A25388  10.806  20.033   6.015  0.0352 -0.1515 -0.0407
 2094POPC   C1B25389   9.839  20.756   7.044 -0.1915 -0.1742  0.1625
 2094POPC   C2B25390   9.920  20.703   6.641 -0.0884  0.0802  0.0737
 2094POPC   C3B25391   9.981  20.579   6.291  0.0957  0.2147 -0.0514
 2094POPC   C4B25392  10.242  20.653   5.866  0.1962 -0.0976 -0.0733
 2095POPC   NC325393   1.669  15.872   8.010 -0.0278 -0.0643 -0.0797
 2095POPC   PO425394   1.456  15.717   7.720  0.1762  0.2354  0.1791
 2095POPC   GL125395   1.559  15.623   7.289 -0.0004 -0.0737 -0.2915
 2095POPC   GL225396   1.780  15.820   7.274 -0.2113 -0.1397 -0.1298
 2095POPC   C1A25397   1.651  15.566   6.831 -0.0966 -0.1247  0.3970
 2095POPC   D2A25398   1.776  15.437   6.459 -0.3315  0.1597 -0.1872
 2095POPC   C3A25399   1.895  15.234   6.019 -0.4611  0.1331  0.0581
 2095POPC   C4A25400   1.764  15.114   5.621  0.1583  0.2109  0.1206
 2095POPC   C1B25401   1.421  15.944   7.008  0.2114  0.1425 -0.0501
 2095POPC   C2B25402   1.320  16.247   6.642  0.0055  0.2995  0.2901
 2095POPC   C3B25403   1.245  16.448   6.244 -0.3725 -0.0240  0.0369
 2095POPC   C4B25404   0.930  16.761   5.984  0.3294  0.2791  0.2745
 2096POPC   NC325405  15.102   8.492   7.819 -0.0263  0.1479  0.1598
 2096POPC   PO425406  15.027   8.096   7.842 -0.1723 -0.1523 -0.2660
 2096POPC   GL125407  15.181   8.271   7.398  0.2125 -0.3333  0.1256
 2096POPC   GL225408  15.431   8.357   7.253 -0.0617  0.1228  0.1498
 2096POPC   C1A25409  14.998   8.393   7.009  0.0413 -0.0958 -0.1844
 2096POPC   D2A25410  14.887   8.182   6.663  0.1228 -0.1142  0.1611
 2096POPC   C3A25411  15.312   7.969   6.432  0.6837  0.1241 -0.0223
 2096POPC   C4A25412  15.562   7.797   6.128  0.0602  0.3922  0.2124
 2096POPC   C1B25413  15.473   8.187   6.851  0.1599 -0.2026 -0.2366
 2096POPC   C2B25414  15.779   8.047   6.502 -0.3438  0.1992  0.2439
 2096POPC   C3B25415  16.045   7.758   6.213 -0.5825 -0.3351 -0.3833
 2096POPC   C4B25416  16.381   7.526   5.902 -0.5154  0.0933 -0.2440
 2097POPC   NC325417  13.372  12.175   7.799 -0.1035 -0.2596 -0.0756
 2097POPC   PO425418  13.288  12.571   7.720  0.1232  0.2122  0.3433
 2097POPC   GL125419  13.556  12.510   7.403  0.2743  0.0932 -0.2697
 2097POPC   GL225420  13.625  12.220   7.394  0.2168 -0.0414  0.0012
 2097POPC   C1A25421  13.572  12.651   6.951  0.2027 -0.0534 -0.1594
 2097POPC   D2A25422  13.764  12.825   6.527  0.2244  0.1116 -0.0206
 2097POPC   C3A25423  13.543  12.971   6.161 -0.1114  0.1903 -0.0542
 2097POPC   C4A25424  13.201  13.259   5.991  0.2772  0.1180 -0.3429
 2097POPC   C1B25425  13.579  12.111   6.958 -0.3297 -0.0448  0.0455
 2097POPC   C2B25426  13.692  12.258   6.561  0.1439  0.2424  0.3198
 2097POPC   C3B25427  13.621  12.478   6.215  0.0853  0.0773  0.0436
 2097POPC   C4B25428  13.616  12.519   5.765  0.0993  0.1343 -0.0204
 2098POPC   NC325429  13.560  17.073   7.842 -0.0028  0.1935 -0.2505
 2098POPC   PO425430  13.468  17.331   7.590 -0.2454 -0.1510 -0.1304
 2098POPC   GL125431  13.280  17.021   7.402 -0.2355 -0.1026  0.1014
 2098POPC   GL225432  12.993  17.121   7.343  0.1420  0.1081  0.0501
 2098POPC   C1A25433  13.324  16.816   6.949 -0.1496 -0.0072 -0.2763
 2098POPC   D2A25434  12.939  16.840   6.672  0.0674 -0.1802 -0.1096
 2098POPC   C3A25435  13.084  16.855   6.260 -0.0544 -0.0053  0.2772
 2098POPC   C4A25436  13.130  16.540   5.942 -0.2213 -0.1465  0.0474
 2098POPC   C1B25437  12.892  17.286   6.912  0.0035 -0.1402 -0.1405
 2098POPC   C2B25438  12.887  17.275   6.486 -0.2414 -0.2090  0.3501
 2098POPC   C3B25439  12.784  17.189   6.057 -0.3634  0.0541  0.2547
 2098POPC   C4B25440  12.785  17.340   5.613  0.1532 -0.4345 -0.1409
 2099POPC   NC325441  12.396  22.310   7.887 -0.2428 -0.1547 -0.3750
 2099POPC   PO425442  12.592  22.338   7.540  0.2228  0.3383  0.4556
 2099POPC   GL125443  12.373  22.224   7.151  0.1880  0.1423 -0.1585
 2099POPC   GL225444  12.315  22.467   7.107 -0.0043  0.1380 -0.0534
 2099POPC   C1A25445  12.346  22.165   6.695  0.1263 -0.2064 -0.1425
 2099POPC   D2A25446  12.190  22.186   6.250  0.2434  0.1182 -0.2146
 2099POPC   C3A25447  12.460  22.358   5.912 -0.1062  0.1740 -0.0154
 2099POPC   C4A25448  12.513  22.408   5.481  0.1542  0.2384  0.0735
 2099POPC   C1B25449  12.018  22.545   6.789 -0.2255  0.1427 -0.1811
 2099POPC   C2B25450  11.881  22.470   6.409  0.1771 -0.0322 -0.1156
 2099POPC   C3B25451  11.816  22.365   5.940  0.2133 -0.2072  0.0645
 2099POPC   C4B25452  11.661  22.275   5.525  0.1181  0.4478 -0.0649
 2100POPC   NC325453   8.984  19.660   7.431 -0.0101  0.0751  0.0635
 2100POPC   PO425454   8.753  19.434   7.675 -0.0258 -0.1293 -0.0608
 2100POPC   GL125455   8.523  19.348   7.459 -0.0583 -0.4356 -0.0421
 2100POPC   GL225456   8.266  19.389   7.442  0.0131  0.0652 -0.2156
 2100POPC   C1A25457   8.440  18.923   7.265  0.1966  0.2330 -0.1176
 2100POPC   D2A25458   8.455  18.510   7.031 -0.3461 -0.0174  0.1283
 2100POPC   C3A25459   8.794  18.339   6.728 -0.0482 -0.1848  0.2239
 2100POPC   C4A25460   8.771  17.976   6.375 -0.3226  0.2524 -0.1737
 2100POPC   C1B25461   8.283  19.268   6.987  0.2033 -0.0222  0.1514
 2100POPC   C2B25462   8.132  19.413   6.561 -0.2310 -0.0070 -0.2444
 2100POPC   C3B25463   8.129  19.362   6.113 -0.0459  0.3732  0.0327
 2100POPC   C4B25464   8.171  19.315   5.675  0.2048  0.2592  0.2678
 2101POPC   NC325465   2.885  28.110   8.562  0.2097 -0.1150  0.0553
 2101POPC   PO425466   3.243  28.133   8.393  0.2348  0.0003  0.0979
 2101POPC   GL125467   3.062  28.519   8.396  0.0683  0.0702  0.0247
 2101POPC   GL225468   3.121  28.713   8.180  0.3402  0.3855 -0.1081
 2101POPC   C1A25469   2.662  28.589   8.217 -0.2819  0.1920  0.1528
 2101POPC   D2A25470   2.347  28.776   7.895  0.0495 -0.1827 -0.2764
 2101POPC   C3A25471   2.307  29.236   8.098 -0.0324  0.3307  0.3172
 2101POPC   C4A25472   2.479  29.546   8.346 -0.1965 -0.0132  0.1433
 2101POPC   C1B25473   2.828  28.998   8.023  0.0287 -0.3313 -0.1580
 2101POPC   C2B25474   2.805  29.444   7.917 -0.0323 -0.3689  0.0470
 2101POPC   C3B25475   2.713  29.838   7.740 -0.1294 -0.4244  0.1788
 2101POPC   C4B25476   2.495  29.996   7.369 -0.0516  0.1336  0.0936
 2102POPC   NC325477  11.946  11.757   7.696  0.1469 -0.0264  0.0655
 2102POPC   PO425478  11.749  11.995   7.924 -0.0535 -0.0922 -0.0244
 2102POPC   GL125479  11.625  12.133   7.601 -0.3928 -0.2104  0.1171
 2102POPC   GL225480  11.520  12.336   7.607 -0.1572 -0.2501  0.0499
 2102POPC   C1A25481  11.720  11.994   7.162  0.1656  0.1586 -0.1109
 2102POPC   D2A25482  11.680  11.685   6.801  0.0115 -0.2213  0.1217
 2102POPC   C3A25483  11.753  11.748   6.342 -0.1675  0.0334  0.2031
 2102POPC   C4A25484  11.630  11.900   5.917  0.1557  0.2149 -0.0332
 2102POPC   C1B25485  11.460  12.462   7.151 -0.0806  0.0882  0.1846
 2102POPC   C2B25486  11.329  12.668   6.725 -0.0796  0.1155  0.0766
 2102POPC   C3B25487  11.337  12.915   6.340 -0.1140  0.0597 -0.2235
 2102POPC   C4B25488  11.273  13.189   5.977  0.3454 -0.0078  0.0207
 2103POPC   NC325489   2.189   5.159   7.659  0.0095 -0.0372 -0.1199
 2103POPC   PO425490   1.865   4.956   7.678  0.0802 -0.3107  0.3251
 2103POPC   GL125491   2.003   5.133   7.231  0.2152 -0.0132  0.0848
 2103POPC   GL225492   1.877   5.332   7.113 -0.0728 -0.2371 -0.2979
 2103POPC   C1A25493   2.013   5.035   6.758 -0.3247 -0.0353  0.0991
 2103POPC   D2A25494   2.395   5.080   6.484 -0.2018  0.0923  0.1411
 2103POPC   C3A25495   2.411   4.642   6.254  0.0507  0.1980 -0.1145
 2103POPC   C4A25496   2.601   4.590   5.805  0.2402 -0.0131 -0.0646
 2103POPC   C1B25497   1.576   5.259   6.776 -0.1426 -0.2559  0.1064
 2103POPC   C2B25498   1.213   5.329   6.452 -0.2722  0.4380 -0.0636
 2103POPC   C3B25499   0.839   5.444   6.253  0.0776  0.3392  0.1919
 2103POPC   C4B25500   0.464   5.620   6.083 -0.1524 -0.3706 -0.1992
 2104POPC   NC325501   2.587  10.167   7.641 -0.3397 -0.0504 -0.1177
 2104POPC   PO425502   2.617  10.532   7.852  0.0261 -0.0377  0.0665
 2104POPC   GL125503   2.518  10.563   7.443 -0.1282  0.2086  0.0089
 2104POPC   GL225504   2.724  10.635   7.308 -0.4064 -0.0667 -0.1958
 2104POPC   C1A25505   2.451  10.200   7.173  0.0696 -0.1095  0.1145
 2104POPC   D2A25506   2.296   9.893   6.881  0.1016  0.1189 -0.1652
 2104POPC   C3A25507   2.344   9.509   6.605 -0.1725  0.0721  0.1056
 2104POPC   C4A25508   1.987   9.285   6.398 -0.2366 -0.1118  0.2000
 2104POPC   C1B25509   2.827  10.577   6.901 -0.1156 -0.2089 -0.1012
 2104POPC   C2B25510   2.999  10.376   6.500 -0.2019  0.0559  0.0316
 2104POPC   C3B25511   3.047  10.493   6.007  0.2086  0.2042 -0.0683
 2104POPC   C4B25512   3.263  10.488   5.593 -0.1123  0.0960 -0.0449
 2105POPC   NC325513  13.515  28.891   7.401  0.0867  0.5118 -0.1484
 2105POPC   PO425514  13.449  29.247   7.301  0.0777 -0.1460  0.4513
 2105POPC   GL125515  13.480  29.207   6.873  0.1639 -0.0217 -0.1264
 2105POPC   GL225516  13.612  28.951   6.803  0.0741 -0.0766  0.0829
 2105POPC   C1A25517  13.715  29.351   6.523 -0.1286 -0.0035  0.0865
 2105POPC   D2A25518  13.475  29.629   6.220 -0.1672  0.0151  0.0867
 2105POPC   C3A25519  13.749  29.819   5.912 -0.1198  0.1627  0.1550
 2105POPC   C4A25520  13.963  30.065   5.574  0.1214 -0.1181  0.0700
 2105POPC   C1B25521  13.603  28.888   6.335  0.1517  0.0132 -0.4044
 2105POPC   C2B25522  13.447  28.755   5.933  0.1388  0.0963 -0.2158
 2105POPC   C3B25523  13.472  28.634   5.489  0.1100 -0.0712  0.0101
 2105POPC   C4B25524  13.614  28.531   5.095  0.0761 -0.0777  0.3722
 2106POPC   NC325525  15.534   2.281   8.016 -0.3696  0.0337 -0.0548
 2106POPC   PO425526  15.814   2.559   8.013  0.1397 -0.2531  0.0324
 2106POPC   GL125527  15.897   2.804   7.701 -0.1853 -0.1187 -0.4925
 2106POPC   GL225528  15.975   3.096   7.786  0.0626 -0.0734  0.4832
 2106POPC   C1A25529  16.166   2.831   7.318  0.0686  0.1051  0.1032
 2106POPC   D2A25530  16.316   3.172   6.995 -0.1007  0.2097  0.1360
 2106POPC   C3A25531  16.417   3.209   6.513  0.2290 -0.0752  0.0480
 2106POPC   C4A25532  16.473   3.356   6.106  0.1086  0.4076  0.0093
 2106POPC   C1B25533  15.598   3.194   7.514 -0.1785 -0.1963 -0.0865
 2106POPC   C2B25534  15.423   3.335   7.142  0.0743  0.1423  0.1294
 2106POPC   C3B25535  15.264   3.333   6.715 -0.1846  0.0603 -0.0911
 2106POPC   C4B25536  15.149   3.417   6.289 -0.2158  0.0284  0.2219
 2107POPC   NC325537   0.727  24.474   7.414  0.0278  0.1759  0.1483
 2107POPC   PO425538   1.111  24.373   7.337  0.2922 -0.0569 -0.2512
 2107POPC   GL125539   1.160  24.715   7.014 -0.0090 -0.3800 -0.2036
 2107POPC   GL225540   1.042  24.933   7.125  0.0466 -0.2891 -0.1253
 2107POPC   C1A25541   1.288  24.621   6.594 -0.0754 -0.0873  0.4650
 2107POPC   D2A25542   1.436  24.320   6.290 -0.1896 -0.3514 -0.1613
 2107POPC   C3A25543   1.669  23.880   6.458 -0.2008 -0.1365  0.1873
 2107POPC   C4A25544   1.737  23.447   6.449  0.0353  0.0690  0.2011
 2107POPC   C1B25545   0.885  24.872   6.685 -0.1692  0.0427  0.0381
 2107POPC   C2B25546   0.847  24.775   6.247 -0.0545 -0.0483  0.2566
 2107POPC   C3B25547   0.695  24.939   5.891  0.0122  0.1736  0.1416
 2107POPC   C4B25548   0.531  25.306   5.733 -0.3597  0.0434  0.0235
 2108POPC   NC325549  13.898  24.975   7.924  0.0748 -0.0759 -0.0157
 2108POPC   PO425550  13.906  25.363   7.962 -0.4814  0.2178  0.1261
 2108POPC   GL125551  14.140  25.577   7.608 -0.0896 -0.0996 -0.1800
 2108POPC   GL225552  13.951  25.437   7.431 -0.1075  0.1083 -0.0572
 2108POPC   C1A25553  14.492  25.680   7.387  0.0033  0.1096 -0.0508
 2108POPC   D2A25554  14.917  25.838   7.470 -0.0177 -0.1604  0.1010
 2108POPC   C3A25555  15.233  25.858   7.162 -0.0063  0.1690 -0.1209
 2108POPC   C4A25556  15.446  26.131   6.828  0.0214  0.0802 -0.1114
 2108POPC   C1B25557  14.137  25.594   6.993  0.0306 -0.3019 -0.2634
 2108POPC   C2B25558  14.315  25.884   6.707  0.1540 -0.0871 -0.0439
 2108POPC   C3B25559  14.529  26.271   6.563  0.1087  0.0188  0.0370
 2108POPC   C4B25560  14.773  26.654   6.435  0.1457 -0.0529 -0.0622
 2109POPC   NC325561  13.003   2.616   7.718  0.2497  0.1236 -0.0556
 2109POPC   PO425562  12.748   2.494   8.004  0.0268 -0.1248  0.1873
 2109POPC   GL125563  12.537   2.292   7.680  0.1115  0.1143 -0.0467
 2109POPC   GL225564  12.732   2.022   7.754 -0.2931  0.1097 -0.2437
 2109POPC   C1A25565  12.477   2.369   7.191 -0.0929  0.1198 -0.2367
 2109POPC   D2A25566  12.668   2.418   6.816 -0.2766 -0.2061  0.1707
 2109POPC   C3A25567  12.261   2.526   6.681  0.0931  0.0099 -0.0100
 2109POPC   C4A25568  12.060   2.811   6.366 -0.0786  0.2954 -0.0897
 2109POPC   C1B25569  12.749   1.964   7.258  0.0887  0.0133 -0.0398
 2109POPC   C2B25570  12.619   1.875   6.806  0.0212 -0.1228 -0.2070
 2109POPC   C3B25571  12.440   2.143   6.473 -0.0740 -0.0006 -0.0333
 2109POPC   C4B25572  12.454   2.111   6.000 -0.2456 -0.1126 -0.1604
 2110POPC   NC325573   6.311  15.878   7.559  0.1001 -0.2473 -0.1738
 2110POPC   PO425574   6.380  15.548   7.788  0.4207  0.1325  0.0548
 2110POPC   GL125575   6.178  15.433   7.408  0.1515 -0.1049  0.0847
 2110POPC   GL225576   6.422  15.221   7.373  0.0979  0.1783  0.1385
 2110POPC   C1A25577   6.248  15.670   7.022 -0.2501  0.1632 -0.2419
 2110POPC   D2A25578   6.633  15.650   6.795 -0.0328 -0.2721 -0.0169
 2110POPC   C3A25579   6.946  15.439   6.588 -0.2249 -0.1141 -0.1936
 2110POPC   C4A25580   7.025  15.124   6.304  0.4300 -0.2052 -0.3225
 2110POPC   C1B25581   6.622  15.106   6.947  0.1180  0.0181 -0.1333
 2110POPC   C2B25582   6.514  15.165   6.469  0.1274 -0.0795  0.0730
 2110POPC   C3B25583   6.541  15.023   6.011  0.0612 -0.0719  0.1829
 2110POPC   C4B25584   6.312  14.764   5.685  0.2060 -0.2661  0.1572
 2111POPC   NC325585   6.095  14.079   7.712  0.0809 -0.0501 -0.1097
 2111POPC   PO425586   5.864  13.765   7.798 -0.0941 -0.2377  0.0054
 2111POPC   GL125587   5.869  13.884   7.356 -0.0313 -0.0851  0.0313
 2111POPC   GL225588   6.100  14.003   7.220 -0.1057 -0.1561  0.2223
 2111POPC   C1A25589   5.785  13.688   6.953 -0.0175 -0.1479  0.3494
 2111POPC   D2A25590   5.896  13.397   6.612 -0.1742  0.2068 -0.2495
 2111POPC   C3A25591   6.037  13.638   6.272  0.0105  0.0493  0.1266
 2111POPC   C4A25592   6.103  13.656   5.813 -0.1667 -0.2003  0.0454
 2111POPC   C1B25593   6.052  14.362   6.900 -0.0873 -0.1363 -0.1696
 2111POPC   C2B25594   5.981  14.537   6.477  0.1523  0.0597  0.5017
 2111POPC   C3B25595   5.973  14.818   6.110  0.1455 -0.2062 -0.0222
 2111POPC   C4B25596   6.126  15.176   5.806  0.1824  0.4951  0.2561
 2112POPC   NC325597  14.555  30.148   7.312 -0.2398  0.1149 -0.1922
 2112POPC   PO425598  14.819  29.973   7.570 -0.0099 -0.0303 -0.2865
 2112POPC   GL125599  15.055  29.988   7.234  0.0375 -0.0007 -0.2262
 2112POPC   GL225600  15.027  30.335   7.291 -0.1515  0.0240  0.2022
 2112POPC   C1A25601  15.380  29.984   6.951  0.0863 -0.1875 -0.0188
 2112POPC   D2A25602  15.734  29.922   6.694  0.2391  0.3435 -0.0042
 2112POPC   C3A25603  16.022  30.106   6.402  0.1129 -0.2956  0.0308
 2112POPC   C4A25604  16.494  30.060   6.430 -0.1164  0.0985 -0.0202
 2112POPC   C1B25605  15.072  30.378   6.839  0.0264  0.1224  0.0699
 2112POPC   C2B25606  15.405  30.338   6.525  0.2439  0.0217 -0.1453
 2112POPC   C3B25607  15.491  30.046   6.160 -0.0064  0.0286  0.0144
 2112POPC   C4B25608  15.834  29.973   5.883 -0.3539 -0.0755  0.1355
 2113POPC   NC325609   5.187  26.576   7.898 -0.2226 -0.0727  0.0431
 2113POPC   PO425610   5.532  26.789   7.966 -0.0266  0.1707  0.0600
 2113POPC   GL125611   5.279  27.003   7.697 -0.2310 -0.0435 -0.0901
 2113POPC   GL225612   5.329  26.835   7.393  0.1963  0.3280 -0.0856
 2113POPC   C1A25613   5.119  27.270   7.307 -0.0098 -0.2586  0.0207
 2113POPC   D2A25614   4.799  27.178   7.082  0.1773 -0.0297 -0.2142
 2113POPC   C3A25615   4.803  27.076   6.635 -0.2787 -0.0108  0.0165
 2113POPC   C4A25616   4.714  26.928   6.239  0.0418 -0.0468  0.1970
 2113POPC   C1B25617   5.119  26.804   7.024 -0.0242 -0.3005 -0.0420
 2113POPC   C2B25618   4.970  26.570   6.614 -0.2623  0.0984  0.0424
 2113POPC   C3B25619   4.986  26.172   6.389  0.4551  0.1398  0.0051
 2113POPC   C4B25620   5.327  25.890   6.215 -0.0157  0.0893 -0.2115
 2114POPC   NC325621  13.662  29.623   7.025 -0.2677  0.2786  0.1685
 2114POPC   PO425622  13.571  29.801   7.340  0.0275 -0.2181  0.0287
 2114POPC   GL125623  13.734  30.137   7.076 -0.0063 -0.0549 -0.1919
 2114POPC   GL225624  13.733  30.401   7.290 -0.0480  0.2004 -0.0091
 2114POPC   C1A25625  14.115  30.165   6.825 -0.0766  0.4155  0.0770
 2114POPC   D2A25626  14.578  30.263   6.744 -0.0887  0.1511 -0.0220
 2114POPC   C3A25627  14.852  30.377   6.401  0.0691 -0.0418  0.0986
 2114POPC   C4A25628  15.017  30.341   5.970 -0.1932 -0.1179  0.1490
 2114POPC   C1B25629  13.695  30.475   6.814  0.1536  0.2894 -0.2941
 2114POPC   C2B25630  13.910  30.574   6.435 -0.0148  0.0942  0.2135
 2114POPC   C3B25631  14.158  30.826   6.207  0.1276 -0.1083  0.2260
 2114POPC   C4B25632  14.306  30.951   5.739  0.2144 -0.0558  0.1111
 2115POPC   NC325633   4.203  15.737   7.575 -0.0998 -0.0033 -0.0677
 2115POPC   PO425634   3.996  16.033   7.518 -0.0772  0.1627  0.0043
 2115POPC   GL125635   4.113  16.081   7.267 -0.2264 -0.1391  0.0142
 2115POPC   GL225636   4.419  16.031   7.233 -0.1834  0.0167 -0.1362
 2115POPC   C1A25637   4.094  16.085   6.765  0.3560  0.2304 -0.2515
 2115POPC   D2A25638   3.876  16.232   6.374 -0.1702 -0.4735  0.0988
 2115POPC   C3A25639   3.596  15.944   6.182 -0.0249  0.3160 -0.3593
 2115POPC   C4A25640   3.380  15.716   5.801  0.0174  0.1996  0.2197
 2115POPC   C1B25641   4.456  16.379   6.947  0.0171  0.0214 -0.0197
 2115POPC   C2B25642   4.297  16.590   6.521 -0.0332 -0.3026 -0.0673
 2115POPC   C3B25643   4.132  16.717   6.130  0.1998 -0.0768  0.1243
 2115POPC   C4B25644   3.818  16.832   5.809  0.1288 -0.1735  0.1542
 2116POPC   NC325645   0.213   1.655   7.558  0.3213  0.0750 -0.0405
 2116POPC   PO425646   0.536   1.482   7.635  0.1669  0.1573 -0.1715
 2116POPC   GL125647   0.695   1.592   7.259  0.3541  0.1669 -0.3256
 2116POPC   GL225648   0.444   1.400   7.211 -0.0924  0.1085 -0.4753
 2116POPC   C1A25649   0.713   1.612   6.783 -0.2687  0.4075 -0.1890
 2116POPC   D2A25650   0.532   1.519   6.339 -0.1441  0.2930  0.2916
 2116POPC   C3A25651   0.273   1.163   6.316 -0.1163 -0.2011  0.0841
 2116POPC   C4A25652   0.052   0.891   6.051 -0.2872  0.0791  0.3852
 2116POPC   C1B25653   0.427   1.213   6.808  0.0556  0.0843  0.0112
 2116POPC   C2B25654   0.707   1.081   6.458 -0.0335  0.0853  0.0078
 2116POPC   C3B25655   0.766   1.203   5.998  0.1687 -0.3740  0.0545
 2116POPC   C4B25656   1.132   1.175   5.679 -0.0713  0.3279  0.2414
 2117POPC   NC325657  10.302  29.796   8.299 -0.0394  0.0648 -0.1510
 2117POPC   PO425658  10.027  29.969   8.057 -0.0309  0.1824  0.1248
 2117POPC   GL125659   9.868  29.879   7.716 -0.1967 -0.2350 -0.0944
 2117POPC   GL225660   9.533  29.947   7.843  0.0021  0.1384  0.1462
 2117POPC   C1A25661  10.099  29.743   7.332  0.0660 -0.0416 -0.2548
 2117POPC   D2A25662  10.259  29.576   6.924 -0.2267 -0.0345 -0.1551
 2117POPC   C3A25663  10.253  29.215   6.663  0.1529 -0.0142  0.0721
 2117POPC   C4A25664  10.243  28.751   6.518  0.0255  0.1752 -0.1920
 2117POPC   C1B25665   9.170  29.760   7.514  0.1350  0.0122  0.0171
 2117POPC   C2B25666   8.909  29.392   7.548  0.1794 -0.3359 -0.0164
 2117POPC   C3B25667   8.545  29.069   7.484 -0.1612 -0.2598  0.1729
 2117POPC   C4B25668   8.433  28.652   7.578 -0.0177  0.2052 -0.0097
 2118POPC   NC325669  13.221  23.989   7.562 -0.0395  0.2815  0.5435
 2118POPC   PO425670  13.523  24.188   7.647  0.1084 -0.2606  0.4614
 2118POPC   GL125671  13.530  24.121   7.262 -0.2456 -0.0907 -0.1681
 2118POPC   GL225672  13.800  24.048   7.184  0.1162 -0.0898 -0.0947
 2118POPC   C1A25673  13.598  24.154   6.776 -0.3653 -0.1082 -0.2790
 2118POPC   D2A25674  13.523  24.147   6.334 -0.1148  0.1557  0.2489
 2118POPC   C3A25675  13.557  23.729   6.136 -0.1055  0.0634 -0.0249
 2118POPC   C4A25676  13.451  23.388   5.875  0.0574  0.0684  0.1004
 2118POPC   C1B25677  14.180  24.052   6.913 -0.0446 -0.3013  0.2172
 2118POPC   C2B25678  14.432  24.041   6.502  0.3123 -0.1899 -0.1773
 2118POPC   C3B25679  14.874  23.908   6.343  0.2522 -0.2344 -0.0327
 2118POPC   C4B25680  15.298  23.903   6.139  0.2339 -0.1999  0.2199
 2119POPC   NC325681   0.307  24.421   8.254  0.1198 -0.0096 -0.0633
 2119POPC   PO425682  -0.065  24.578   8.198 -0.1229  0.1689  0.1538
 2119POPC   GL125683   0.058  24.617   7.870  0.2048 -0.3246  0.2892
 2119POPC   GL225684  -0.162  24.841   7.800 -0.0407 -0.0460  0.0713
 2119POPC   C1A25685  -0.033  24.326   7.495  0.0121 -0.0356 -0.2521
 2119POPC   D2A25686  -0.077  24.064   7.141  0.0524  0.1346 -0.0418
 2119POPC   C3A25687   0.039  24.389   6.785 -0.0443 -0.1438  0.2733
 2119POPC   C4A25688  -0.304  24.596   6.541  0.0867 -0.0182 -0.1994
 2119POPC   C1B25689  -0.328  24.965   7.408 -0.0732 -0.1249 -0.3564
 2119POPC   C2B25690  -0.524  24.890   7.021 -0.0501  0.0593  0.3001
 2119POPC   C3B25691  -0.776  24.601   6.745  0.0866 -0.1933 -0.3213
 2119POPC   C4B25692  -1.085  24.278   6.754  0.0930 -0.1444 -0.0512
 2120POPC   NC325693  14.731  16.296   7.937 -0.2154  0.1328  0.0559
 2120POPC   PO425694  14.586  16.560   7.711 -0.1645 -0.1782 -0.0459
 2120POPC   GL125695  14.776  16.346   7.490 -0.1331 -0.0587 -0.3011
 2120POPC   GL225696  14.999  16.462   7.333  0.2552  0.1023 -0.0831
 2120POPC   C1A25697  14.704  16.128   7.085 -0.4685  0.0084  0.1162
 2120POPC   D2A25698  14.892  16.190   6.651  0.2176 -0.3317  0.2649
 2120POPC   C3A25699  15.060  16.313   6.219 -0.1443 -0.0117  0.0523
 2120POPC   C4A25700  15.288  16.529   5.929 -0.2602  0.3263  0.3366
 2120POPC   C1B25701  15.191  16.482   6.945  0.0937  0.0834 -0.0766
 2120POPC   C2B25702  15.488  16.478   6.498  0.0408  0.0864 -0.1082
 2120POPC   C3B25703  15.810  16.443   6.173  0.4062 -0.0855  0.1537
 2120POPC   C4B25704  16.203  16.654   6.087 -0.2179  0.1961 -0.3823
 2121POPC   NC325705   7.402   2.178   7.662  0.3059  0.1082  0.1145
 2121POPC   PO425706   7.062   2.361   7.522 -0.1894 -0.2099 -0.2504
 2121POPC   GL125707   7.211   2.322   7.146  0.0858 -0.1183  0.1278
 2121POPC   GL225708   7.422   2.239   7.077  0.1468 -0.0046 -0.2373
 2121POPC   C1A25709   7.244   2.384   6.679 -0.1043  0.0704 -0.2158
 2121POPC   D2A25710   7.352   2.500   6.237 -0.0657  0.1271 -0.1350
 2121POPC   C3A25711   7.591   2.250   5.962  0.0941  0.2722  0.4586
 2121POPC   C4A25712   7.694   1.884   5.731  0.2470  0.0765 -0.0394
 2121POPC   C1B25713   7.574   1.909   6.819  0.0748  0.0641 -0.2018
 2121POPC   C2B25714   7.557   1.602   6.449  0.1786  0.0773  0.0283
 2121POPC   C3B25715   7.509   1.523   6.019  0.1214  0.1856 -0.2524
 2121POPC   C4B25716   7.311   1.551   5.606 -0.0294  0.1799  0.2778
 2122POPC   NC325717  10.593  23.439   7.313 -0.3690 -0.0521  0.3030
 2122POPC   PO425718  10.550  23.073   7.514 -0.1031  0.0939  0.2163
 2122POPC   GL125719  10.721  22.821   7.265  0.1872  0.1397  0.2869
 2122POPC   GL225720  10.690  22.969   7.039 -0.0015 -0.0247 -0.1064
 2122POPC   C1A25721  10.703  22.425   6.971  0.0856  0.2135 -0.2360
 2122POPC   D2A25722  10.556  22.034   6.756 -0.0166  0.0487  0.3556
 2122POPC   C3A25723  10.316  22.175   6.428  0.3951 -0.1025  0.0654
 2122POPC   C4A25724  10.138  22.348   6.030  0.4938 -0.1442 -0.1443
 2122POPC   C1B25725  10.845  23.328   6.730 -0.0522 -0.2976 -0.0606
 2122POPC   C2B25726  10.989  23.595   6.387  0.1839 -0.2578  0.6433
 2122POPC   C3B25727  10.985  23.881   5.969 -0.2187 -0.1847  0.0295
 2122POPC   C4B25728  11.065  24.043   5.486 -0.1252 -0.0668 -0.3179
 2123POPC   NC325729   2.812   2.621   8.004  0.0732 -0.5158  0.1819
 2123POPC   PO425730   2.510   2.745   7.773 -0.0302 -0.2706 -0.2941
 2123POPC   GL125731   2.383   2.771   7.336  0.0177  0.0005  0.0112
 2123POPC   GL225732   2.358   2.520   7.323  0.2083  0.1947  0.0350
 2123POPC   C1A25733   2.223   2.843   6.923 -0.0951 -0.0245  0.2669
 2123POPC   D2A25734   2.038   2.750   6.517  0.0653  0.3823  0.0906
 2123POPC   C3A25735   2.328   2.419   6.448 -0.0219 -0.2527 -0.0065
 2123POPC   C4A25736   2.776   2.350   6.430  0.0107 -0.1547 -0.1067
 2123POPC   C1B25737   2.682   2.699   7.018  0.2483 -0.3635 -0.2578
 2123POPC   C2B25738   2.689   2.796   6.621  0.1406 -0.0362 -0.0241
 2123POPC   C3B25739   2.910   2.803   6.207 -0.3280  0.0227  0.1358
 2123POPC   C4B25740   2.958   2.942   5.726 -0.0800 -0.3229 -0.0577
 2124POPC   NC325741   0.481   3.113   8.220 -0.1842  0.2535 -0.0946
 2124POPC   PO425742   0.447   2.738   8.063 -0.2499  0.1845  0.1083
 2124POPC   GL125743   0.686   2.881   7.753 -0.1151  0.0099 -0.0946
 2124POPC   GL225744   0.694   2.681   7.595 -0.3382  0.1871 -0.1291
 2124POPC   C1A25745   0.853   3.075   7.335 -0.0282  0.0054  0.2341
 2124POPC   D2A25746   1.211   3.116   6.982  0.3470  0.1893 -0.2066
 2124POPC   C3A25747   1.335   3.572   6.953  0.1894  0.1229  0.0690
 2124POPC   C4A25748   1.221   4.014   7.065  0.0146  0.1004  0.4691
 2124POPC   C1B25749   0.823   2.587   7.160  0.2366 -0.0125  0.1499
 2124POPC   C2B25750   0.842   2.863   6.758  0.1567  0.1738 -0.3639
 2124POPC   C3B25751   0.690   2.765   6.358 -0.1129 -0.0015 -0.1911
 2124POPC   C4B25752   0.540   2.468   6.062 -0.1183  0.0150  0.2062
 2125POPC   NC325753   7.458   3.457   7.692  0.1255  0.1493  0.1404
 2125POPC   PO425754   7.733   3.246   7.584 -0.1842  0.2161  0.3033
 2125POPC   GL125755   7.618   2.975   7.247  0.2260  0.2597 -0.1143
 2125POPC   GL225756   7.337   3.113   7.243  0.1250  0.1294 -0.2132
 2125POPC   C1A25757   7.245   2.758   6.977 -0.1700 -0.0311  0.0177
 2125POPC   D2A25758   6.989   2.898   6.604 -0.1746  0.0773 -0.0000
 2125POPC   C3A25759   6.565   2.872   6.397 -0.0850  0.1444  0.0699
 2125POPC   C4A25760   6.182   2.635   6.502 -0.0056  0.3086  0.0547
 2125POPC   C1B25761   7.341   3.222   6.820  0.1974  0.1011  0.1409
 2125POPC   C2B25762   7.500   3.551   6.515 -0.0373 -0.0291  0.2348
 2125POPC   C3B25763   7.653   3.300   6.177  0.2299  0.0602  0.1898
 2125POPC   C4B25764   7.585   2.947   5.847 -0.1950  0.1869 -0.2517
 2126POPC   NC325765  13.888  17.236   7.260  0.1538 -0.1085 -0.0588
 2126POPC   PO425766  13.757  16.867   7.442  0.3633  0.1470  0.5402
 2126POPC   GL125767  13.780  16.805   7.034 -0.3501  0.2977 -0.2718
 2126POPC   GL225768  14.092  16.798   7.011  0.0111  0.2506 -0.1610
 2126POPC   C1A25769  13.725  16.412   6.729 -0.0779 -0.0492 -0.1761
 2126POPC   D2A25770  13.667  16.111   6.413 -0.1155  0.2190  0.0097
 2126POPC   C3A25771  13.653  16.161   5.980 -0.0677  0.1181 -0.1924
 2126POPC   C4A25772  13.715  16.147   5.490  0.1389 -0.1505  0.1738
 2126POPC   C1B25773  14.402  17.093   6.772  0.0031  0.6413 -0.0298
 2126POPC   C2B25774  14.775  17.181   6.521  0.1992  0.2320  0.0966
 2126POPC   C3B25775  15.084  17.027   6.249 -0.0548  0.0087  0.1066
 2126POPC   C4B25776  15.114  16.987   5.792 -0.3249 -0.3145  0.1436
 2127POPC   NC325777   7.393  17.514   7.856  0.2877 -0.0487  0.2086
 2127POPC   PO425778   7.656  17.205   7.881 -0.1007 -0.1729 -0.1344
 2127POPC   GL125779   7.670  17.260   7.493 -0.2916 -0.1496  0.0650
 2127POPC   GL225780   7.811  17.035   7.309  0.2036  0.0478  0.1902
 2127POPC   C1A25781   7.816  17.637   7.281 -0.1051 -0.3652 -0.1353
 2127POPC   D2A25782   7.677  17.892   6.891 -0.0951 -0.0747  0.1119
 2127POPC   C3A25783   7.804  18.113   6.505 -0.2251  0.2511 -0.2293
 2127POPC   C4A25784   7.999  18.258   6.139  0.2779 -0.3942 -0.0511
 2127POPC   C1B25785   7.786  16.881   6.806  0.0281 -0.0698 -0.1121
 2127POPC   C2B25786   7.700  17.010   6.370  0.0937 -0.0406  0.2154
 2127POPC   C3B25787   7.709  17.056   5.935 -0.0948  0.1758 -0.0655
 2127POPC   C4B25788   7.870  17.206   5.490 -0.0216 -0.0693 -0.3738
 2128POPC   NC325789   2.105   0.918   8.192 -0.0203  0.1766 -0.0486
 2128POPC   PO425790   1.793   1.103   8.330  0.0229 -0.1044 -0.1568
 2128POPC   GL125791   1.782   1.060   7.915 -0.1090 -0.2321 -0.0251
 2128POPC   GL225792   1.676   1.208   7.738 -0.1881 -0.2196  0.2443
 2128POPC   C1A25793   2.023   0.933   7.512 -0.0430  0.0187 -0.2232
 2128POPC   D2A25794   1.935   0.982   7.107 -0.1668  0.0331 -0.0936
 2128POPC   C3A25795   2.029   1.118   6.667 -0.1121 -0.0122 -0.3093
 2128POPC   C4A25796   2.141   1.225   6.289  0.1028  0.2820 -0.0373
 2128POPC   C1B25797   1.722   1.430   7.313  0.0432 -0.0686  0.3102
 2128POPC   C2B25798   1.522   1.467   6.880 -0.1113  0.2619  0.0589
 2128POPC   C3B25799   1.610   1.261   6.432  0.0823  0.0654  0.1036
 2128POPC   C4B25800   1.767   1.204   5.961  0.1490  0.0736 -0.3266
 2129POPC   NC325801   7.313   6.399   7.860  0.3026 -0.1628 -0.1301
 2129POPC   PO425802   7.598   6.171   7.710 -0.0147 -0.2652  0.1191
 2129POPC   GL125803   7.504   6.119   7.312 -0.4058  0.1696 -0.0452
 2129POPC   GL225804   7.282   6.302   7.305  0.1475  0.2537  0.0621
 2129POPC   C1A25805   7.676   5.934   6.898 -0.0932 -0.3845 -0.2909
 2129POPC   D2A25806   7.901   5.759   6.497  0.1344 -0.3901  0.2523
 2129POPC   C3A25807   8.242   5.807   6.114 -0.1235  0.0379 -0.0637
 2129POPC   C4A25808   8.534   5.924   5.776  0.0601  0.1574 -0.0839
 2129POPC   C1B25809   7.155   6.053   6.874  0.0595 -0.1096  0.3780
 2129POPC   C2B25810   7.250   5.699   6.624 -0.2148 -0.1008  0.1056
 2129POPC   C3B25811   7.457   5.574   6.208 -0.1324 -0.2074 -0.3352
 2129POPC   C4B25812   7.914   5.415   6.069  0.0083 -0.1584  0.0810
 2130POPC   NC325813  11.636  27.754   8.356  0.1553 -0.0084 -0.2468
 2130POPC   PO425814  11.556  27.507   8.109 -0.2646  0.1016  0.1162
 2130POPC   GL125815  11.357  27.391   7.723  0.2800  0.2099  0.3633
 2130POPC   GL225816  11.167  27.489   7.846  0.1862 -0.1866 -0.0045
 2130POPC   C1A25817  11.270  27.450   7.243 -0.3091  0.0580 -0.0640
 2130POPC   D2A25818  11.074  27.581   6.883  0.1190  0.2338 -0.2223
 2130POPC   C3A25819  10.756  27.477   6.595 -0.0289  0.0852  0.0020
 2130POPC   C4A25820  10.509  27.326   6.268  0.1672  0.1371  0.0027
 2130POPC   C1B25821  11.286  27.852   7.527 -0.1116  0.1835  0.1232
 2130POPC   C2B25822  11.135  28.036   7.140 -0.3301  0.2808 -0.1499
 2130POPC   C3B25823  11.209  28.371   6.895  0.0962 -0.0319  0.0437
 2130POPC   C4B25824  11.221  28.555   6.489  0.1246 -0.1099 -0.0159
 2131POPC   NC325825   5.131   7.166   7.727  0.2793  0.0358 -0.3978
 2131POPC   PO425826   5.365   7.469   7.701 -0.1055 -0.0035 -0.0402
 2131POPC   GL125827   5.218   7.471   7.379  0.0939 -0.1204 -0.2497
 2131POPC   GL225828   5.250   7.783   7.202 -0.2518  0.0465  0.2972
 2131POPC   C1A25829   5.144   7.216   7.018  0.1096 -0.1915  0.0381
 2131POPC   D2A25830   5.028   7.080   6.628  0.1442 -0.2124  0.2598
 2131POPC   C3A25831   4.949   7.376   6.254 -0.3179 -0.2024  0.1058
 2131POPC   C4A25832   5.026   7.175   5.849  0.2209 -0.1076  0.5522
 2131POPC   C1B25833   5.122   7.680   6.804  0.0137 -0.0518  0.1357
 2131POPC   C2B25834   5.139   7.798   6.379  0.0771 -0.3205 -0.2642
 2131POPC   C3B25835   5.136   8.102   6.087 -0.0242 -0.0226 -0.1260
 2131POPC   C4B25836   5.240   8.564   6.123 -0.4346  0.1528 -0.0939
 2132POPC   NC325837   9.844  15.137   8.055 -0.2662 -0.0189  0.3353
 2132POPC   PO425838  10.251  15.222   8.015 -0.2909 -0.2264  0.0872
 2132POPC   GL125839   9.957  15.387   7.702 -0.0007 -0.1236  0.2950
 2132POPC   GL225840  10.021  15.146   7.546  0.0873  0.0433  0.0882
 2132POPC   C1A25841   9.850  15.840   7.690 -0.1795 -0.0635  0.2219
 2132POPC   D2A25842   9.808  16.296   7.741  0.1282  0.2947  0.2313
 2132POPC   C3A25843   9.562  16.284   7.338 -0.1457 -0.1990 -0.0003
 2132POPC   C4A25844   9.425  16.677   7.043  0.0309  0.0981 -0.0602
 2132POPC   C1B25845   9.740  15.311   7.210  0.1552 -0.3032  0.3369
 2132POPC   C2B25846   9.671  15.395   6.788 -0.1859  0.1029 -0.0732
 2132POPC   C3B25847   9.634  15.586   6.451  0.2390 -0.0746  0.0759
 2132POPC   C4B25848   9.935  15.656   6.088 -0.2557 -0.2275  0.2167
 2133POPC   NC325849   6.214  29.613   7.490  0.0452  0.1980  0.1079
 2133POPC   PO425850   5.897  29.417   7.656  0.2498  0.0604  0.0916
 2133POPC   GL125851   5.857  29.287   7.335 -0.0248 -0.1335  0.0269
 2133POPC   GL225852   5.769  29.489   7.133 -0.2368 -0.1231 -0.0452
 2133POPC   C1A25853   5.453  29.018   7.225 -0.1092  0.0219  0.2090
 2133POPC   D2A25854   5.167  28.798   7.029  0.0589  0.0940  0.0018
 2133POPC   C3A25855   5.230  28.690   6.547  0.2181  0.1414 -0.2610
 2133POPC   C4A25856   5.325  28.505   6.098  0.1213  0.0326  0.0476
 2133POPC   C1B25857   5.594  29.325   6.763  0.1211  0.2898  0.0725
 2133POPC   C2B25858   5.118  29.181   6.645  0.0633 -0.0886 -0.0279
 2133POPC   C3B25859   4.908  29.010   6.258  0.1360 -0.0456 -0.2325
 2133POPC   C4B25860   4.953  28.802   5.876 -0.0633 -0.0541 -0.0701
 2134POPC   NC325861  11.439  15.858   7.633 -0.3377 -0.1384 -0.2499
 2134POPC   PO425862  11.161  15.724   7.869 -0.1904 -0.3191  0.1379
 2134POPC   GL125863  10.937  15.768   7.493  0.2724 -0.0611  0.0504
 2134POPC   GL225864  11.152  15.652   7.339  0.0460 -0.0808 -0.0342
 2134POPC   C1A25865  10.739  15.908   7.090  0.0297  0.1724 -0.2701
 2134POPC   D2A25866  10.716  16.073   6.691  0.1827 -0.0272  0.2663
 2134POPC   C3A25867  11.120  16.199   6.488 -0.1351 -0.1732  0.0189
 2134POPC   C4A25868  11.190  16.424   6.132 -0.3549 -0.0725  0.0244
 2134POPC   C1B25869  10.779  15.465   7.237 -0.0251  0.0883  0.0099
 2134POPC   C2B25870  10.595  15.396   6.800  0.0317 -0.1966  0.0731
 2134POPC   C3B25871  10.439  15.089   6.437 -0.1373  0.1373 -0.1286
 2134POPC   C4B25872  10.061  14.819   6.233 -0.2621  0.2410 -0.2157
 2135POPC   NC325873   6.964  19.534   8.299  0.0966 -0.2065  0.0155
 2135POPC   PO425874   6.623  19.718   8.233 -0.3228 -0.1015 -0.3552
 2135POPC   GL125875   6.521  19.827   7.898 -0.0175  0.1164  0.2411
 2135POPC   GL225876   6.418  19.519   7.747  0.0654 -0.0791 -0.0333
 2135POPC   C1A25877   6.829  19.762   7.533 -0.2827 -0.0097  0.2487
 2135POPC   D2A25878   6.948  19.822   7.094  0.0159 -0.2699 -0.1757
 2135POPC   C3A25879   7.401  19.674   6.938 -0.0895 -0.0276  0.0393
 2135POPC   C4A25880   7.630  19.404   6.617 -0.3548  0.0027 -0.1831
 2135POPC   C1B25881   6.319  19.703   7.387 -0.0984 -0.1888 -0.1563
 2135POPC   C2B25882   6.173  20.067   7.103  0.2237  0.0452 -0.0767
 2135POPC   C3B25883   6.183  20.254   6.688 -0.1175 -0.1662  0.0759
 2135POPC   C4B25884   5.809  20.450   6.436  0.2970  0.2657  0.0042
 2136POPC   NC325885   8.312   7.936   8.043 -0.1733  0.2100  0.0964
 2136POPC   PO425886   8.167   7.577   7.912 -0.2276  0.0360 -0.0589
 2136POPC   GL125887   8.527   7.797   7.629  0.1209 -0.3006  0.0112
 2136POPC   GL225888   8.424   7.997   7.390 -0.2367  0.1075  0.3058
 2136POPC   C1A25889   8.886   7.574   7.480 -0.0299  0.0133 -0.0634
 2136POPC   D2A25890   9.104   7.539   7.106  0.0276  0.2192  0.0289
 2136POPC   C3A25891   9.148   7.640   6.631  0.0548  0.0743 -0.2259
 2136POPC   C4A25892   9.112   7.827   6.226  0.1940  0.4580  0.2850
 2136POPC   C1B25893   8.428   8.147   6.935  0.1431 -0.1427 -0.0858
 2136POPC   C2B25894   8.714   8.326   6.589 -0.1753  0.0761 -0.1218
 2136POPC   C3B25895   8.706   8.578   6.178 -0.0173 -0.1607 -0.3296
 2136POPC   C4B25896   8.567   8.483   5.789  0.2190  0.0354 -0.1958
 2137POPC   NC325897  11.717  15.089   7.826  0.2296 -0.2477  0.0898
 2137POPC   PO425898  11.503  15.352   7.636 -0.1168  0.0538  0.0587
 2137POPC   GL125899  11.523  14.959   7.426 -0.1431  0.0295  0.2496
 2137POPC   GL225900  11.448  15.195   7.161 -0.1847  0.1211  0.2175
 2137POPC   C1A25901  11.371  14.704   7.103  0.1599 -0.0556 -0.0185
 2137POPC   D2A25902  11.160  14.706   6.656  0.1678  0.3301 -0.0881
 2137POPC   C3A25903  11.423  14.843   6.250 -0.2980 -0.2098  0.0519
 2137POPC   C4A25904  11.658  15.001   5.889 -0.0658 -0.1418 -0.2581
 2137POPC   C1B25905  11.548  15.032   6.745  0.0146  0.0210 -0.3266
 2137POPC   C2B25906  11.465  15.317   6.365  0.0954  0.0065  0.3101
 2137POPC   C3B25907  11.402  15.541   5.999  0.0500  0.0709  0.1677
 2137POPC   C4B25908  10.964  15.808   5.878  0.1375  0.0805 -0.2086
 2138POPC   NC325909  15.102  27.026   7.683  0.3986 -0.2351  0.1147
 2138POPC   PO425910  14.809  27.266   7.770 -0.0357  0.2125 -0.0499
 2138POPC   GL125911  14.964  27.431   7.461  0.2184  0.2072 -0.0219
 2138POPC   GL225912  15.033  27.695   7.514  0.0803 -0.3635  0.1899
 2138POPC   C1A25913  15.003  27.221   7.064 -0.2558 -0.0081 -0.1371
 2138POPC   D2A25914  15.179  27.253   6.610  0.2537  0.2397 -0.2433
 2138POPC   C3A25915  15.153  26.962   6.285  0.3284 -0.1554 -0.0063
 2138POPC   C4A25916  15.456  26.642   6.050  0.1575  0.1066 -0.0409
 2138POPC   C1B25917  15.137  27.738   7.082 -0.0555 -0.1815  0.1635
 2138POPC   C2B25918  15.165  27.771   6.574  0.1903  0.0460 -0.0816
 2138POPC   C3B25919  15.192  28.037   6.163 -0.0329  0.2568  0.1671
 2138POPC   C4B25920  15.089  28.064   5.679  0.0178  0.1277 -0.1173
 2139POPC   NC325921  15.757  23.758   7.647  0.0555 -0.0098  0.0863
 2139POPC   PO425922  15.775  23.428   7.861  0.2941 -0.0032  0.3114
 2139POPC   GL125923  16.084  23.402   7.614  0.1561  0.2113  0.1578
 2139POPC   GL225924  16.227  23.653   7.687  0.0528  0.2366  0.0533
 2139POPC   C1A25925  15.986  23.469   7.210 -0.1740  0.1372  0.0376
 2139POPC   D2A25926  15.816  23.619   6.797 -0.2377  0.1989  0.1588
 2139POPC   C3A25927  15.828  23.612   6.309 -0.1773  0.1360 -0.1676
 2139POPC   C4A25928  16.021  23.576   5.875  0.2914 -0.0634  0.0624
 2139POPC   C1B25929  16.325  23.996   7.444 -0.1201  0.2399  0.4128
 2139POPC   C2B25930  16.323  24.109   7.024 -0.2585 -0.1017  0.0551
 2139POPC   C3B25931  16.090  23.942   6.651  0.1652  0.1018 -0.0324
 2139POPC   C4B25932  15.837  24.134   6.360  0.1046 -0.2138  0.0231
 2140POPC   NC325933  13.381  15.375   8.051 -0.0030  0.0184 -0.0787
 2140POPC   PO425934  13.251  15.629   7.767 -0.3840  0.0108 -0.0825
 2140POPC   GL125935  13.175  15.974   7.496  0.1877 -0.0766 -0.0210
 2140POPC   GL225936  13.176  15.730   7.252  0.3004 -0.0630 -0.1204
 2140POPC   C1A25937  12.861  16.125   7.196 -0.0234  0.0914 -0.1451
 2140POPC   D2A25938  12.822  16.363   6.828  0.0076  0.0047 -0.1407
 2140POPC   C3A25939  13.178  16.397   6.487  0.1247  0.0701  0.1888
 2140POPC   C4A25940  13.559  16.612   6.285 -0.0668 -0.2627  0.0280
 2140POPC   C1B25941  12.836  15.654   6.957  0.0292  0.0406 -0.0063
 2140POPC   C2B25942  12.609  15.892   6.703  0.0770 -0.2416  0.0067
 2140POPC   C3B25943  12.731  16.143   6.315 -0.1524  0.2347  0.2985
 2140POPC   C4B25944  12.904  16.116   5.891 -0.0663 -0.1644 -0.0382
 2141POPC   NC325945   3.585  18.268   7.485 -0.1864  0.0975  0.4050
 2141POPC   PO425946   3.429  17.884   7.456  0.3691 -0.0966  0.3322
 2141POPC   GL125947   3.377  18.080   7.092 -0.1423 -0.3085 -0.1031
 2141POPC   GL225948   3.370  17.895   6.953 -0.2097 -0.1039  0.2102
 2141POPC   C1A25949   3.355  18.275   6.617 -0.0226  0.3235 -0.0031
 2141POPC   D2A25950   3.019  18.182   6.312  0.1127 -0.0982  0.2087
 2141POPC   C3A25951   2.686  18.156   6.585 -0.3276 -0.1795 -0.0326
 2141POPC   C4A25952   2.258  18.147   6.752 -0.0540 -0.0144 -0.0390
 2141POPC   C1B25953   3.202  17.745   6.586 -0.0351  0.1580 -0.1036
 2141POPC   C2B25954   2.880  17.710   6.333 -0.0907 -0.0500 -0.0805
 2141POPC   C3B25955   2.475  17.628   6.056 -0.2727  0.0746  0.1224
 2141POPC   C4B25956   1.979  17.694   5.934 -0.5023 -0.0756  0.2392
 2142POPC   NC325957   4.652  29.064   8.064 -0.1534  0.0857 -0.0798
 2142POPC   PO425958   4.605  28.619   8.066  0.0270  0.4192  0.0140
 2142POPC   GL125959   4.686  28.668   7.767 -0.0088  0.1428  0.1142
 2142POPC   GL225960   4.559  28.854   7.579  0.2772 -0.3351 -0.1298
 2142POPC   C1A25961   4.889  28.511   7.376  0.1288  0.0155  0.1136
 2142POPC   D2A25962   5.007  28.284   7.027 -0.1289 -0.1221  0.0141
 2142POPC   C3A25963   5.066  28.226   6.585  0.2845 -0.0038  0.1187
 2142POPC   C4A25964   5.000  28.039   6.144  0.0187 -0.3031 -0.1669
 2142POPC   C1B25965   4.604  28.808   7.095  0.0299 -0.1816 -0.1452
 2142POPC   C2B25966   4.716  28.727   6.663  0.0827  0.0135  0.4731
 2142POPC   C3B25967   4.738  28.504   6.273  0.0842 -0.0269 -0.0140
 2142POPC   C4B25968   4.694  28.355   5.867 -0.0967 -0.0099  0.0430
 2143POPC   NC325969  10.795  18.844   7.696  0.3909 -0.0888 -0.0785
 2143POPC   PO425970  10.494  18.597   7.615 -0.0276 -0.0813  0.3857
 2143POPC   GL125971  10.424  18.751   7.234  0.2843 -0.1707 -0.1749
 2143POPC   GL225972  10.205  18.541   7.141  0.2024 -0.2165 -0.1449
 2143POPC   C1A25973  10.734  18.848   6.888  0.5210  0.0628 -0.0845
 2143POPC   D2A25974  10.833  18.616   6.503  0.4341  0.0125 -0.0151
 2143POPC   C3A25975  10.751  18.613   6.052  0.0457  0.4199 -0.1525
 2143POPC   C4A25976  10.663  18.947   5.706  0.0179 -0.1707  0.0764
 2143POPC   C1B25977  10.444  18.455   6.744 -0.3536 -0.1196 -0.2183
 2143POPC   C2B25978  10.374  18.334   6.291 -0.0399  0.0794  0.0331
 2143POPC   C3B25979  10.254  18.287   5.797  0.0265  0.0074 -0.2491
 2143POPC   C4B25980  10.177  18.329   5.359 -0.2369 -0.2612 -0.0937
 2144POPC   NC325981  14.244  12.915   7.705  0.1256 -0.1704 -0.2370
 2144POPC   PO425982  14.474  12.592   7.788  0.3409 -0.0619 -0.2040
 2144POPC   GL125983  14.706  12.394   7.564  0.1070 -0.0828  0.1565
 2144POPC   GL225984  14.656  12.125   7.516 -0.3341  0.0539 -0.0977
 2144POPC   C1A25985  15.176  12.265   7.434  0.1684 -0.2167  0.2944
 2144POPC   D2A25986  15.350  12.054   7.088 -0.4191 -0.0565  0.0802
 2144POPC   C3A25987  15.246  11.883   6.698  0.1299  0.0453 -0.1271
 2144POPC   C4A25988  15.572  11.755   6.339 -0.0395  0.0914  0.1740
 2144POPC   C1B25989  14.318  12.025   7.243 -0.1073 -0.1609  0.4041
 2144POPC   C2B25990  14.376  11.928   6.765  0.3395 -0.0700  0.0587
 2144POPC   C3B25991  14.303  11.530   6.456  0.1417 -0.0402  0.2361
 2144POPC   C4B25992  14.175  11.494   6.039 -0.0597 -0.0169 -0.0960
 2145POPC   NC325993   6.026  18.252   7.197  0.1961  0.1099 -0.1430
 2145POPC   PO425994   5.715  18.390   7.422 -0.0211  0.1549  0.2492
 2145POPC   GL125995   5.592  18.448   7.032 -0.1536  0.1121  0.2115
 2145POPC   GL225996   5.428  18.294   6.824  0.0659 -0.1949 -0.5190
 2145POPC   C1A25997   5.547  18.777   6.677 -0.3668 -0.0888 -0.2444
 2145POPC   D2A25998   5.613  19.083   6.313  0.0422 -0.0625  0.3690
 2145POPC   C3A25999   5.269  19.377   6.187  0.0137 -0.3023  0.0828
 2145POPC   C4A26000   5.093  19.680   5.850 -0.1758  0.1094 -0.0216
 2145POPC   C1B26001   5.360  18.443   6.360  0.0308 -0.1840 -0.0191
 2145POPC   C2B26002   5.292  18.635   5.907 -0.0633  0.3760  0.1981
 2145POPC   C3B26003   5.170  18.907   5.572  0.3990 -0.2771  0.3444
 2145POPC   C4B26004   4.831  19.218   5.416 -0.1653  0.0259 -0.2095
 2146POPC   NC326005  11.870   3.358   7.948 -0.0250 -0.1206 -0.1819
 2146POPC   PO426006  11.613   3.602   7.755  0.2127  0.2286  0.0630
 2146POPC   GL126007  11.668   3.566   7.391 -0.3441  0.0974  0.1575
 2146POPC   GL226008  11.737   3.328   7.262 -0.1544 -0.1730 -0.1137
 2146POPC   C1A26009  11.716   3.717   6.919  0.0311  0.1591  0.0377
 2146POPC   D2A26010  11.827   3.669   6.471 -0.0185  0.0986  0.0836
 2146POPC   C3A26011  12.155   3.683   6.178 -0.0189 -0.0606 -0.2195
 2146POPC   C4A26012  12.630   3.894   6.164  0.1129  0.1995 -0.3399
 2146POPC   C1B26013  12.069   3.353   6.953  0.2891  0.0540  0.1481
 2146POPC   C2B26014  12.157   3.272   6.535 -0.0151  0.1507  0.0179
 2146POPC   C3B26015  12.368   3.185   6.121 -0.0459 -0.1735  0.2209
 2146POPC   C4B26016  12.770   3.104   5.921  0.2192 -0.0710  0.0361
 2147POPC   NC326017   4.083  15.277   7.328 -0.1757 -0.1313  0.2694
 2147POPC   PO426018   3.812  15.120   7.614 -0.0014 -0.1976 -0.1312
 2147POPC   GL126019   3.718  15.044   7.256  0.1375 -0.0318  0.0578
 2147POPC   GL226020   3.583  15.262   7.110  0.1788  0.1322  0.1713
 2147POPC   C1A26021   3.860  14.777   6.894 -0.1428 -0.1262 -0.1622
 2147POPC   D2A26022   3.760  14.851   6.464  0.0815  0.0667  0.0990
 2147POPC   C3A26023   3.602  14.810   6.003 -0.1349  0.1771 -0.1828
 2147POPC   C4A26024   3.248  14.662   5.840 -0.1610 -0.2506 -0.0555
 2147POPC   C1B26025   3.870  15.275   6.813 -0.3729 -0.0636  0.1154
 2147POPC   C2B26026   4.078  15.285   6.425 -0.1713  0.0788 -0.0094
 2147POPC   C3B26027   4.270  15.415   6.020  0.0362 -0.2164  0.0278
 2147POPC   C4B26028   4.518  15.061   5.869  0.0343 -0.1555  0.0134
 2148POPC   NC326029  15.768   7.951   7.910  0.3116 -0.2766  0.0550
 2148POPC   PO426030  15.508   8.189   7.742 -0.1412 -0.1294  0.0313
 2148POPC   GL126031  15.399   7.909   7.491 -0.1610 -0.1276  0.1032
 2148POPC   GL226032  15.703   7.778   7.420 -0.1267  0.1038  0.1974
 2148POPC   C1A26033  15.086   7.916   7.140  0.2176  0.2714 -0.2023
 2148POPC   D2A26034  14.609   7.808   6.996 -0.5219  0.2401  0.1670
 2148POPC   C3A26035  14.371   7.839   6.626  0.1576 -0.2543  0.0992
 2148POPC   C4A26036  14.128   8.132   6.379  0.2828 -0.2068 -0.1500
 2148POPC   C1B26037  15.546   7.653   7.029 -0.0459 -0.0519  0.4369
 2148POPC   C2B26038  15.232   7.640   6.764  0.3379 -0.3455  0.1055
 2148POPC   C3B26039  14.849   7.638   6.488 -0.2628 -0.1293 -0.1540
 2148POPC   C4B26040  14.582   7.752   6.170  0.0843  0.1877 -0.0119
 2149POPC   NC326041   7.852  21.534   7.703  0.2474  0.0154 -0.0083
 2149POPC   PO426042   8.123  21.743   7.550 -0.1497  0.1550 -0.1914
 2149POPC   GL126043   8.028  21.702   7.189 -0.1303 -0.2257 -0.0016
 2149POPC   GL226044   7.780  21.586   7.222  0.1605 -0.1757 -0.0905
 2149POPC   C1A26045   7.993  22.065   6.826 -0.0736  0.2043  0.1205
 2149POPC   D2A26046   7.941  22.304   6.372 -0.1516  0.1314  0.1464
 2149POPC   C3A26047   7.756  22.110   5.993 -0.0785 -0.0304 -0.2086
 2149POPC   C4A26048   7.708  21.973   5.548 -0.1355  0.1643 -0.1051
 2149POPC   C1B26049   7.656  21.322   6.882 -0.1701  0.1672 -0.0109
 2149POPC   C2B26050   7.860  21.195   6.498  0.0345 -0.1530  0.3203
 2149POPC   C3B26051   7.934  20.985   6.041 -0.1080 -0.0469  0.1869
 2149POPC   C4B26052   8.051  20.621   5.757  0.1158  0.1800  0.0277
 2150POPC   NC326053   4.943   1.392   7.829  0.5158  0.0674  0.1105
 2150POPC   PO426054   5.139   1.495   7.521 -0.1438 -0.0002 -0.0188
 2150POPC   GL126055   5.058   1.845   7.691 -0.0234  0.2564  0.0007
 2150POPC   GL226056   5.249   1.986   7.504 -0.1268  0.1509  0.4239
 2150POPC   C1A26057   4.976   2.336   7.646 -0.1180 -0.3600 -0.1004
 2150POPC   D2A26058   5.075   2.764   7.768 -0.1884  0.0782  0.0046
 2150POPC   C3A26059   5.541   2.885   7.805  0.2980 -0.2031  0.2367
 2150POPC   C4A26060   5.808   3.183   8.012 -0.1842  0.2096 -0.1874
 2150POPC   C1B26061   4.915   2.142   7.195  0.1773  0.0458  0.1135
 2150POPC   C2B26062   4.887   2.468   6.849 -0.0589  0.2181  0.2065
 2150POPC   C3B26063   5.144   2.809   6.841 -0.0199 -0.1578  0.0956
 2150POPC   C4B26064   5.473   3.139   6.974 -0.0952 -0.0873  0.1248
 2151POPC   NC326065   0.536   9.355   7.791  0.0042 -0.0441 -0.2229
 2151POPC   PO426066   0.795   9.643   7.778  0.0934 -0.2734  0.1663
 2151POPC   GL126067   0.714   9.468   7.433  0.0989 -0.2521 -0.1112
 2151POPC   GL226068   0.451   9.685   7.406 -0.1506 -0.1555  0.1570
 2151POPC   C1A26069   0.566   9.273   7.014 -0.0629  0.0659 -0.1499
 2151POPC   D2A26070   0.654   9.215   6.555  0.0463  0.0570 -0.1517
 2151POPC   C3A26071   0.591   9.596   6.304  0.0951  0.2221 -0.0825
 2151POPC   C4A26072   0.692   9.858   5.972  0.1708 -0.1330  0.1877
 2151POPC   C1B26073   0.305   9.677   7.038  0.0109 -0.1036  0.2398
 2151POPC   C2B26074   0.076   9.660   6.611 -0.2539 -0.0315 -0.0534
 2151POPC   C3B26075   0.118   9.757   6.164  0.0663 -0.0102 -0.2280
 2151POPC   C4B26076   0.119  10.075   5.795  0.2593 -0.2721 -0.1384
 2152POPC   NC326077   2.193  16.505   7.821 -0.0423 -0.1342  0.0450
 2152POPC   PO426078   2.531  16.465   7.604 -0.0859 -0.2116  0.0352
 2152POPC   GL126079   2.201  16.521   7.256  0.2961 -0.0148 -0.0944
 2152POPC   GL226080   2.403  16.704   7.096 -0.1499 -0.0651 -0.3289
 2152POPC   C1A26081   1.949  16.789   6.969  0.0770  0.0454  0.1327
 2152POPC   D2A26082   1.744  17.161   6.959  0.3014  0.0462 -0.3756
 2152POPC   C3A26083   1.766  17.280   6.521  0.3128  0.0183 -0.0815
 2152POPC   C4A26084   2.160  17.246   6.262  0.1886 -0.0282 -0.0336
 2152POPC   C1B26085   2.382  16.392   6.794 -0.1046 -0.0047 -0.0438
 2152POPC   C2B26086   2.188  16.318   6.348  0.2487 -0.0066  0.0538
 2152POPC   C3B26087   1.843  16.247   6.097  0.0013 -0.4161  0.1163
 2152POPC   C4B26088   1.426  16.050   5.975 -0.2290  0.0018 -0.0299
 2153POPC   NC326089   4.592   2.990   8.547  0.0027  0.1904 -0.1466
 2153POPC   PO426090   4.456   2.708   8.316 -0.1544  0.1282 -0.3226
 2153POPC   GL126091   4.592   2.812   7.978  0.0077 -0.4126  0.3771
 2153POPC   GL226092   4.605   2.612   7.765 -0.2214 -0.1790 -0.2163
 2153POPC   C1A26093   4.726   3.137   7.654 -0.0477  0.2911  0.1540
 2153POPC   D2A26094   4.759   3.541   7.472  0.4228 -0.0211  0.0701
 2153POPC   C3A26095   4.616   3.950   7.631  0.0871 -0.0175 -0.0168
 2153POPC   C4A26096   4.586   4.390   7.694  0.3996 -0.1215  0.1176
 2153POPC   C1B26097   4.801   2.750   7.367 -0.2312  0.1216  0.1694
 2153POPC   C2B26098   4.981   3.143   7.140 -0.5167 -0.0105  0.3267
 2153POPC   C3B26099   5.048   3.339   6.694  0.4069  0.0804  0.1734
 2153POPC   C4B26100   5.320   3.622   6.406 -0.1552  0.1361  0.1236
 2154POPC   NC326101   8.864  16.083   7.920 -0.0906  0.0608  0.0125
 2154POPC   PO426102   9.000  16.327   8.196 -0.0506  0.3490  0.1797
 2154POPC   GL126103   8.844  16.605   7.991 -0.1600 -0.1805 -0.0561
 2154POPC   GL226104   8.998  16.866   7.823 -0.1707 -0.1689 -0.0572
 2154POPC   C1A26105   8.760  16.548   7.538  0.4194  0.4316 -0.1403
 2154POPC   D2A26106   8.953  16.668   7.115  0.0608 -0.0470  0.2637
 2154POPC   C3A26107   8.936  16.638   6.645  0.1110  0.1311 -0.4965
 2154POPC   C4A26108   8.652  16.682   6.291  0.1731  0.1238  0.0854
 2154POPC   C1B26109   8.706  17.044   7.426 -0.3056 -0.0293 -0.0189
 2154POPC   C2B26110   8.644  17.110   6.999  0.2816  0.1250 -0.0552
 2154POPC   C3B26111   8.706  17.091   6.512  0.2272 -0.3325 -0.1609
 2154POPC   C4B26112   8.742  17.079   6.021 -0.1439 -0.0256  0.0487
 2155POPC   NC326113   4.189  10.411   7.492  0.1850 -0.1823 -0.2150
 2155POPC   PO426114   4.414  10.687   7.547  0.0573  0.1709  0.1515
 2155POPC   GL126115   4.384  10.670   7.168  0.0297 -0.1181  0.2501
 2155POPC   GL226116   4.120  10.724   7.048 -0.0238  0.0125  0.0584
 2155POPC   C1A26117   4.768  10.626   6.872  0.1081  0.4070 -0.0391
 2155POPC   D2A26118   4.855  10.422   6.454 -0.0831 -0.0100 -0.0969
 2155POPC   C3A26119   5.106  10.563   6.087  0.0383 -0.3226 -0.1660
 2155POPC   C4A26120   5.440  10.859   5.892  0.3802  0.1145 -0.1184
 2155POPC   C1B26121   4.330  10.765   6.680  0.3277  0.0888  0.3238
 2155POPC   C2B26122   4.400  10.624   6.266 -0.1813 -0.1031 -0.3193
 2155POPC   C3B26123   4.659  10.431   5.956 -0.1887 -0.0353 -0.1485
 2155POPC   C4B26124   4.929  10.629   5.619 -0.0570  0.0564 -0.1608
 2156POPC   NC326125   8.217  19.000   7.742  0.0183 -0.0296 -0.0816
 2156POPC   PO426126   7.883  18.874   7.829 -0.1191 -0.3610  0.3279
 2156POPC   GL126127   7.823  18.839   7.428  0.0859  0.0522 -0.2175
 2156POPC   GL226128   8.022  18.646   7.408  0.0132 -0.2441 -0.4510
 2156POPC   C1A26129   7.800  19.176   7.098  0.0258 -0.1137 -0.0835
 2156POPC   D2A26130   7.890  19.572   7.231 -0.1140  0.2677  0.0576
 2156POPC   C3A26131   8.048  19.808   6.815  0.0828  0.1653  0.2094
 2156POPC   C4A26132   8.342  19.809   6.461 -0.0476 -0.2034  0.0318
 2156POPC   C1B26133   7.938  18.687   6.992 -0.0916 -0.1763  0.0145
 2156POPC   C2B26134   8.139  18.902   6.641 -0.0781  0.0617 -0.0932
 2156POPC   C3B26135   8.171  18.849   6.112  0.3138 -0.2921  0.0556
 2156POPC   C4B26136   8.005  18.741   5.687  0.3466 -0.1768 -0.1544
 2157POPC   NC326137   2.082   1.699   7.705  0.1102 -0.2027 -0.3362
 2157POPC   PO426138   1.830   2.013   7.703 -0.2083  0.1218  0.0825
 2157POPC   GL126139   1.887   1.828   7.314  0.1601 -0.2552  0.1356
 2157POPC   GL226140   1.941   2.067   7.207 -0.3916  0.0962 -0.3049
 2157POPC   C1A26141   1.974   1.638   6.946 -0.0066  0.2306  0.2384
 2157POPC   D2A26142   2.294   1.561   6.605  0.0458 -0.2583 -0.1404
 2157POPC   C3A26143   2.435   1.934   6.398  0.0908  0.2453  0.0417
 2157POPC   C4A26144   2.606   2.135   5.972 -0.0189  0.3200  0.0490
 2157POPC   C1B26145   1.778   2.431   7.063  0.1014 -0.1649 -0.0687
 2157POPC   C2B26146   1.602   2.654   6.709  0.2874 -0.0243  0.1181
 2157POPC   C3B26147   1.569   2.815   6.326 -0.2302  0.2976  0.0281
 2157POPC   C4B26148   1.538   2.819   5.857  0.2128  0.0051 -0.0612
 2158POPC   NC326149  15.367  11.418   7.682  0.3833  0.0645 -0.0363
 2158POPC   PO426150  15.748  11.246   7.798  0.0272  0.4758  0.1744
 2158POPC   GL126151  15.749  11.361   7.450 -0.0185  0.1503 -0.1685
 2158POPC   GL226152  16.101  11.399   7.516  0.1362 -0.2057  0.1707
 2158POPC   C1A26153  15.375  11.255   7.128  0.4207 -0.0112 -0.3929
 2158POPC   D2A26154  15.104  11.016   6.896 -0.0328 -0.1363  0.2804
 2158POPC   C3A26155  14.972  11.104   6.461  0.0642  0.2068 -0.0387
 2158POPC   C4A26156  15.186  10.975   6.105  0.0658 -0.2650  0.1159
 2158POPC   C1B26157  16.331  11.455   7.099 -0.0599  0.2602 -0.1912
 2158POPC   C2B26158  16.366  11.476   6.630  0.0233  0.0067  0.0288
 2158POPC   C3B26159  16.242  11.519   6.191  0.0225 -0.1630 -0.2722
 2158POPC   C4B26160  15.926  11.582   5.816 -0.2906  0.1204 -0.3138
 2159POPC   NC326161   5.469   1.416   7.159 -0.0368 -0.2595 -0.0658
 2159POPC   PO426162   5.653   1.728   7.363 -0.1119  0.1170 -0.0851
 2159POPC   GL126163   5.528   2.038   7.139 -0.0102  0.0398  0.1555
 2159POPC   GL226164   5.264   1.870   7.033 -0.0925  0.1545  0.1509
 2159POPC   C1A26165   5.643   2.086   6.694  0.0834 -0.0162 -0.2515
 2159POPC   D2A26166   5.805   2.387   6.385 -0.3234  0.0429  0.3417
 2159POPC   C3A26167   5.829   2.852   6.222  0.1104  0.0562  0.1843
 2159POPC   C4A26168   5.712   3.249   5.999  0.0152 -0.0728  0.0569
 2159POPC   C1B26169   5.103   2.012   6.649  0.1026 -0.0934 -0.1763
 2159POPC   C2B26170   4.912   2.100   6.226 -0.2037 -0.0523 -0.1448
 2159POPC   C3B26171   4.666   2.079   5.883  0.0147 -0.0139 -0.0878
 2159POPC   C4B26172   4.625   2.038   5.407  0.2048  0.0980 -0.0459
 2160POPC   NC326173   4.655  25.460   7.959  0.3814 -0.1561 -0.0514
 2160POPC   PO426174   4.985  25.343   7.766 -0.1748  0.3853  0.0768
 2160POPC   GL126175   4.999  25.323   7.330 -0.3628  0.0417 -0.0747
 2160POPC   GL226176   4.742  25.469   7.250 -0.2880 -0.1059  0.3868
 2160POPC   C1A26177   5.373  25.059   7.175 -0.0233  0.2303  0.0507
 2160POPC   D2A26178   5.567  24.746   7.351 -0.2979  0.0401 -0.2275
 2160POPC   C3A26179   5.627  24.569   6.920 -0.1385 -0.2865  0.0071
 2160POPC   C4A26180   5.939  24.218   6.729 -0.1265  0.0291 -0.0032
 2160POPC   C1B26181   4.703  25.382   6.776  0.1668 -0.0100  0.0604
 2160POPC   C2B26182   4.632  25.248   6.330  0.1031 -0.1463 -0.3800
 2160POPC   C3B26183   4.792  25.087   5.948  0.2836  0.2427 -0.1676
 2160POPC   C4B26184   4.782  24.747   5.619 -0.4634 -0.3023  0.3334
 2161POPC   NC326185   4.984  27.902   8.447 -0.0434  0.2044  0.1366
 2161POPC   PO426186   4.784  28.093   8.144  0.0162  0.0357  0.1468
 2161POPC   GL126187   4.693  28.071   7.704 -0.1375 -0.1990 -0.3162
 2161POPC   GL226188   4.459  28.290   7.653  0.0649 -0.1918  0.1665
 2161POPC   C1A26189   5.106  28.034   7.480  0.4563 -0.1295 -0.1649
 2161POPC   D2A26190   5.409  28.319   7.350  0.0145 -0.1403 -0.0639
 2161POPC   C3A26191   5.538  28.467   6.907  0.2690  0.0540  0.2093
 2161POPC   C4A26192   5.665  28.445   6.449  0.1358 -0.1365  0.2074
 2161POPC   C1B26193   4.632  28.094   7.281 -0.0274  0.1988 -0.0068
 2161POPC   C2B26194   4.568  28.253   6.878  0.1179 -0.0078 -0.0927
 2161POPC   C3B26195   4.531  28.037   6.432 -0.0484 -0.1196 -0.5334
 2161POPC   C4B26196   4.483  27.898   6.025 -0.1063  0.0055 -0.1171
 2162POPC   NC326197   3.497  24.478   7.899 -0.0170 -0.1461  0.0613
 2162POPC   PO426198   3.812  24.673   7.731  0.2335  0.1086 -0.1434
 2162POPC   GL126199   4.078  24.862   7.389 -0.1929  0.0024  0.1965
 2162POPC   GL226200   4.118  24.564   7.192  0.2470 -0.0773 -0.0330
 2162POPC   C1A26201   3.831  25.055   6.978 -0.0534  0.0423  0.0265
 2162POPC   D2A26202   3.729  24.687   6.658 -0.0847  0.0846  0.2606
 2162POPC   C3A26203   3.866  24.601   6.227 -0.1738 -0.0512  0.2794
 2162POPC   C4A26204   3.955  24.833   5.818 -0.1733 -0.1357 -0.2774
 2162POPC   C1B26205   4.134  24.446   6.737  0.2647  0.1490  0.3597
 2162POPC   C2B26206   4.112  24.180   6.371  0.2826 -0.0375 -0.0843
 2162POPC   C3B26207   4.131  23.999   5.936  0.2362 -0.1461  0.1613
 2162POPC   C4B26208   3.871  23.919   5.502 -0.0523 -0.1147 -0.2627
 2163POPC   NC326209   7.415  29.106   7.766  0.1135  0.2174 -0.0534
 2163POPC   PO426210   7.286  29.479   7.721 -0.3128 -0.4027  0.1864
 2163POPC   GL126211   7.504  29.555   7.459  0.0183  0.1682 -0.0815
 2163POPC   GL226212   7.516  29.829   7.379  0.1451 -0.2104  0.1759
 2163POPC   C1A26213   7.944  29.542   7.231  0.1050  0.0893 -0.1647
 2163POPC   D2A26214   8.193  29.580   6.843  0.1185 -0.6914  0.1648
 2163POPC   C3A26215   8.473  29.477   6.484 -0.1272 -0.0291 -0.0150
 2163POPC   C4A26216   8.960  29.487   6.487  0.0291 -0.0827 -0.1200
 2163POPC   C1B26217   7.553  29.631   6.947  0.1857 -0.0396 -0.0867
 2163POPC   C2B26218   7.774  29.521   6.577  0.4483 -0.2134 -0.0744
 2163POPC   C3B26219   8.068  29.353   6.250 -0.0757 -0.0751  0.1111
 2163POPC   C4B26220   8.185  29.114   5.853 -0.1571  0.1583 -0.0250
 2164POPC   NC326221   7.141  25.869   7.758 -0.1167  0.3265  0.2182
 2164POPC   PO426222   7.316  26.174   7.949  0.1816 -0.0763 -0.0668
 2164POPC   GL126223   7.364  26.282   7.677  0.4647 -0.2004 -0.1569
 2164POPC   GL226224   7.455  26.503   7.545 -0.0357 -0.0108 -0.0725
 2164POPC   C1A26225   7.374  25.945   7.338 -0.2067  0.1710 -0.0296
 2164POPC   D2A26226   7.683  25.890   6.973  0.2914 -0.0361  0.0127
 2164POPC   C3A26227   7.754  25.961   6.504 -0.0062 -0.0790  0.0959
 2164POPC   C4A26228   7.741  25.848   6.061  0.1161  0.0773  0.0676
 2164POPC   C1B26229   7.440  26.418   7.094  0.0439  0.3168 -0.2246
 2164POPC   C2B26230   7.388  26.639   6.740 -0.2512 -0.3346 -0.0042
 2164POPC   C3B26231   7.211  26.821   6.344 -0.2764  0.0596 -0.0662
 2164POPC   C4B26232   7.285  27.007   5.909 -0.1706 -0.0638  0.1762
 2165POPC   NC326233   4.953  29.704   7.506  0.1661  0.0303  0.0195
 2165POPC   PO426234   5.201  30.032   7.612  0.3946  0.3083 -0.2272
 2165POPC   GL126235   5.055  30.214   7.191 -0.2487  0.1560  0.0472
 2165POPC   GL226236   5.149  30.095   7.023 -0.1162  0.1802  0.0142
 2165POPC   C1A26237   4.699  30.330   6.924 -0.5417 -0.1896  0.0831
 2165POPC   D2A26238   4.658  30.415   6.424 -0.1250 -0.1421 -0.4798
 2165POPC   C3A26239   4.696  30.202   6.019  0.2638  0.0774  0.1040
 2165POPC   C4A26240   4.431  29.940   5.696  0.0821  0.0960 -0.3004
 2165POPC   C1B26241   5.103  30.263   6.617  0.0779  0.2778  0.0814
 2165POPC   C2B26242   5.125  30.420   6.207  0.1181 -0.3915  0.1103
 2165POPC   C3B26243   5.093  30.615   5.762 -0.1136 -0.2217 -0.0295
 2165POPC   C4B26244   5.039  30.658   5.340  0.1661 -0.2049  0.2556
 2166POPC   NC326245   5.217  28.836   7.621 -0.0573 -0.1102  0.0736
 2166POPC   PO426246   5.020  29.150   7.735  0.1063 -0.3292 -0.2404
 2166POPC   GL126247   4.934  29.216   7.417 -0.1789  0.0103 -0.1032
 2166POPC   GL226248   4.635  29.363   7.404  0.0384 -0.1561 -0.2332
 2166POPC   C1A26249   5.163  29.505   7.095  0.0534 -0.0610  0.0771
 2166POPC   D2A26250   5.051  29.746   6.668 -0.0982  0.0824 -0.5181
 2166POPC   C3A26251   5.180  29.499   6.299 -0.0832  0.3035 -0.0630
 2166POPC   C4A26252   5.224  29.342   5.868 -0.1804 -0.1401 -0.0573
 2166POPC   C1B26253   4.646  29.325   6.947 -0.0632  0.0652  0.3109
 2166POPC   C2B26254   4.681  29.375   6.499 -0.1199  0.0413  0.0953
 2166POPC   C3B26255   4.431  29.041   6.250 -0.0749  0.3528 -0.1800
 2166POPC   C4B26256   4.425  28.746   5.894 -0.1849  0.0282 -0.3012
 2167POPC   NC326257   0.926   5.120   7.541  0.1195  0.1501 -0.0270
 2167POPC   PO426258   0.694   5.330   7.288  0.0309  0.1135 -0.2682
 2167POPC   GL126259   0.479   5.495   6.951 -0.0226  0.0759 -0.1885
 2167POPC   GL226260   0.198   5.705   7.027 -0.0178  0.4688  0.1117
 2167POPC   C1A26261   0.244   5.414   6.515 -0.0996  0.2200  0.1630
 2167POPC   D2A26262  -0.069   5.565   6.218  0.0064  0.0488 -0.2236
 2167POPC   C3A26263  -0.269   5.599   5.803 -0.2196  0.2019 -0.1907
 2167POPC   C4A26264  -0.262   5.784   5.363  0.0940 -0.0819 -0.1637
 2167POPC   C1B26265  -0.094   5.761   6.699 -0.3337 -0.1141 -0.1294
 2167POPC   C2B26266  -0.494   5.759   6.487  0.0456  0.2698  0.2470
 2167POPC   C3B26267  -0.950   5.796   6.379 -0.1978  0.2034 -0.1577
 2167POPC   C4B26268  -1.282   5.516   6.518 -0.3072  0.0640  0.0475
 2168POPC   NC326269  10.512   2.405   7.518  0.1260 -0.0347  0.0357
 2168POPC   PO426270  10.292   2.708   7.504  0.0346 -0.3175 -0.0356
 2168POPC   GL126271  10.151   2.824   7.159  0.4046 -0.2484 -0.3031
 2168POPC   GL226272  10.369   3.026   7.087  0.2684 -0.4035  0.4169
 2168POPC   C1A26273   9.945   2.976   6.796  0.0424 -0.1134 -0.0595
 2168POPC   D2A26274  10.028   3.035   6.332  0.1624 -0.2158  0.2483
 2168POPC   C3A26275   9.878   3.454   6.155  0.2563  0.3074  0.1347
 2168POPC   C4A26276   9.860   3.713   5.729  0.1037 -0.3529 -0.0276
 2168POPC   C1B26277  10.370   3.192   6.624 -0.0798  0.0005 -0.0210
 2168POPC   C2B26278  10.586   3.193   6.238  0.3136 -0.1125  0.0998
 2168POPC   C3B26279  10.890   3.387   5.954 -0.1768 -0.2708  0.1237
 2168POPC   C4B26280  11.231   3.545   5.664  0.1335  0.0413 -0.2089
 2169POPC   NC326281  13.497  26.864   7.457  0.3090  0.0002 -0.1070
 2169POPC   PO426282  13.882  26.932   7.515  0.1126  0.0877  0.1679
 2169POPC   GL126283  13.957  26.912   7.105  0.0875  0.1926 -0.0381
 2169POPC   GL226284  14.211  26.946   7.062  0.1510  0.1707  0.0262
 2169POPC   C1A26285  13.539  27.087   6.978 -0.2218 -0.2161  0.2125
 2169POPC   D2A26286  13.333  26.974   6.558 -0.1701  0.0284  0.0947
 2169POPC   C3A26287  13.528  27.119   6.155 -0.0966  0.1246  0.3254
 2169POPC   C4A26288  13.472  27.134   5.743 -0.4597 -0.2070 -0.4953
 2169POPC   C1B26289  14.590  27.064   6.755  0.2373  0.1439 -0.1755
 2169POPC   C2B26290  14.735  27.177   6.372  0.2837 -0.1351 -0.0962
 2169POPC   C3B26291  15.086  27.447   6.173 -0.1792 -0.0420  0.5699
 2169POPC   C4B26292  15.444  27.723   5.906 -0.0356 -0.0106  0.1402
 2170POPC   NC326293   6.952  14.513   7.899  0.0414  0.2004 -0.1046
 2170POPC   PO426294   7.252  14.304   8.017  0.0667  0.0122  0.0063
 2170POPC   GL126295   7.396  14.021   7.666 -0.1525  0.2665  0.2360
 2170POPC   GL226296   7.226  13.902   7.469 -0.0709 -0.1911  0.1470
 2170POPC   C1A26297   7.636  13.890   7.292  0.3428 -0.2323  0.0354
 2170POPC   D2A26298   7.371  13.730   6.996  0.1647 -0.1474 -0.0171
 2170POPC   C3A26299   7.332  13.801   6.541  0.1827  0.1603 -0.2617
 2170POPC   C4A26300   7.012  13.717   6.207 -0.3388 -0.1049 -0.1332
 2170POPC   C1B26301   6.952  13.965   7.032  0.0675 -0.0113 -0.2444
 2170POPC   C2B26302   7.085  14.247   6.670 -0.3162  0.2751 -0.3457
 2170POPC   C3B26303   7.277  14.238   6.271  0.3294 -0.0455 -0.3255
 2170POPC   C4B26304   6.979  14.322   5.926 -0.0555  0.0187 -0.0615
 2171POPC   NC326305   6.659   2.320   7.745  0.0517 -0.2194  0.3213
 2171POPC   PO426306   6.577   2.644   7.845  0.3980  0.1815  0.0831
 2171POPC   GL126307   6.320   2.660   7.541  0.1331  0.3409  0.1773
 2171POPC   GL226308   6.095   2.892   7.657 -0.1940 -0.0512  0.1517
 2171POPC   C1A26309   6.239   2.448   7.178 -0.0339  0.3981  0.0360
 2171POPC   D2A26310   5.872   2.442   6.874  0.2088 -0.1097 -0.1314
 2171POPC   C3A26311   5.725   2.827   6.698 -0.0412 -0.0989  0.0167
 2171POPC   C4A26312   5.431   3.085   6.452  0.1788 -0.3307  0.0953
 2171POPC   C1B26313   5.981   2.922   7.151 -0.2392  0.0580  0.0521
 2171POPC   C2B26314   5.971   3.384   7.018 -0.1709 -0.0599 -0.2358
 2171POPC   C3B26315   6.134   3.784   6.809 -0.1038 -0.1712 -0.0726
 2171POPC   C4B26316   6.048   4.144   6.503 -0.2082  0.0420 -0.1197
 2172POPC   NC326317   1.243  15.295   7.897  0.4116  0.1585 -0.1828
 2172POPC   PO426318   1.062  15.572   8.042 -0.0335  0.1422  0.1007
 2172POPC   GL126319   0.814  15.793   7.795  0.0784  0.0382  0.1806
 2172POPC   GL226320   1.005  15.756   7.573  0.1142 -0.1217 -0.4269
 2172POPC   C1A26321   0.436  15.922   7.628  0.1587 -0.1722 -0.1815
 2172POPC   D2A26322   0.284  15.990   7.171 -0.0151 -0.4652  0.1078
 2172POPC   C3A26323   0.543  16.240   6.874  0.1004  0.0869  0.1283
 2172POPC   C4A26324   0.961  16.374   7.022 -0.1724  0.0705  0.0494
 2172POPC   C1B26325   0.810  16.174   7.451  0.1752 -0.1817 -0.0522
 2172POPC   C2B26326   0.472  16.459   7.366 -0.3060 -0.3514  0.4027
 2172POPC   C3B26327   0.118  16.457   7.115  0.1227  0.2309  0.2917
 2172POPC   C4B26328  -0.225  16.226   6.870  0.0619  0.0883  0.2553
 2173POPC   NC326329  14.026   2.542   7.821 -0.0467  0.2508 -0.2243
 2173POPC   PO426330  14.136   2.194   7.972 -0.0384  0.0859 -0.0579
 2173POPC   GL126331  14.107   2.167   7.584 -0.3490 -0.0591  0.0071
 2173POPC   GL226332  13.751   2.257   7.595 -0.1078  0.2622 -0.2958
 2173POPC   C1A26333  14.054   2.056   7.140  0.1820 -0.2620  0.0794
 2173POPC   D2A26334  14.170   2.012   6.664  0.2144 -0.0334  0.1423
 2173POPC   C3A26335  14.316   2.358   6.426  0.2599 -0.0032  0.1429
 2173POPC   C4A26336  14.335   2.650   6.055 -0.1046 -0.1781 -0.1254
 2173POPC   C1B26337  13.620   2.262   7.156 -0.1127  0.3139 -0.2692
 2173POPC   C2B26338  13.478   2.284   6.699  0.0389  0.1635 -0.0058
 2173POPC   C3B26339  13.794   2.330   6.361 -0.1543  0.0372  0.1112
 2173POPC   C4B26340  14.082   2.240   6.023 -0.1438  0.3595 -0.2140
 2174POPC   NC326341   6.151  28.948   7.638  0.1785 -0.0301 -0.1484
 2174POPC   PO426342   6.446  29.218   7.644 -0.0410  0.1326  0.2572
 2174POPC   GL126343   6.613  28.975   7.366  0.3067 -0.1016  0.2074
 2174POPC   GL226344   6.429  29.035   7.150 -0.1014  0.1005 -0.0214
 2174POPC   C1A26345   6.901  28.970   6.921 -0.0871  0.1332 -0.1681
 2174POPC   D2A26346   7.029  29.039   6.450  0.5586  0.1707 -0.0751
 2174POPC   C3A26347   6.895  29.389   6.202  0.2604  0.0931 -0.3992
 2174POPC   C4A26348   6.959  29.841   6.077  0.1145  0.2104  0.1870
 2174POPC   C1B26349   6.465  28.942   6.666  0.2355 -0.0492  0.0136
 2174POPC   C2B26350   6.564  28.909   6.235  0.0783 -0.0306 -0.0326
 2174POPC   C3B26351   6.923  28.922   5.978  0.2036  0.1552  0.2241
 2174POPC   C4B26352   7.253  29.200   5.964 -0.1844 -0.1509 -0.2094
 2175POPC   NC326353  14.865  17.726   7.662 -0.1106 -0.0700 -0.0674
 2175POPC   PO426354  14.652  18.042   7.799  0.2008 -0.2689 -0.2545
 2175POPC   GL126355  14.951  18.064   7.377  0.0641  0.2380  0.2809
 2175POPC   GL226356  15.076  18.329   7.281  0.0902  0.1383  0.1335
 2175POPC   C1A26357  15.170  17.925   6.953 -0.4534 -0.0585 -0.3774
 2175POPC   D2A26358  15.564  18.000   6.692  0.1112  0.0661 -0.3146
 2175POPC   C3A26359  16.005  17.873   6.724  0.1614  0.0519  0.4056
 2175POPC   C4A26360  16.414  18.039   6.836 -0.5315  0.0471 -0.1426
 2175POPC   C1B26361  15.207  18.464   6.835  0.2958  0.0534  0.4212
 2175POPC   C2B26362  15.451  18.516   6.462  0.1640 -0.3594 -0.0394
 2175POPC   C3B26363  15.429  18.306   6.059  0.0262  0.0450  0.0779
 2175POPC   C4B26364  15.562  18.214   5.607  0.1461 -0.4340 -0.2186
 2176POPC   NC326365   3.326  28.178   7.896 -0.0444  0.4776  0.3598
 2176POPC   PO426366   3.142  27.795   7.780  0.0190  0.4341  0.1491
 2176POPC   GL126367   2.938  28.004   7.647  0.1983 -0.2423  0.3980
 2176POPC   GL226368   2.793  27.914   7.389 -0.0187  0.2394  0.1269
 2176POPC   C1A26369   3.193  28.344   7.426  0.3206  0.0343  0.4448
 2176POPC   D2A26370   3.129  28.555   7.042  0.3451 -0.0653 -0.1115
 2176POPC   C3A26371   3.178  28.357   6.643 -0.4987  0.3931 -0.1176
 2176POPC   C4A26372   3.089  28.458   6.182 -0.0714  0.2503  0.0730
 2176POPC   C1B26373   2.891  28.140   7.047 -0.0769 -0.0460  0.0798
 2176POPC   C2B26374   2.667  28.099   6.629 -0.1047  0.1575  0.1950
 2176POPC   C3B26375   2.621  28.093   6.164 -0.3058  0.0426  0.0903
 2176POPC   C4B26376   2.544  28.113   5.740  0.2596  0.1299 -0.0139
 2177POPC   NC326377  12.880   7.323   7.852  0.0391  0.1882 -0.2299
 2177POPC   PO426378  12.492   7.291   7.772 -0.0692 -0.1406 -0.0404
 2177POPC   GL126379  12.400   7.329   7.416  0.0596 -0.1668  0.2571
 2177POPC   GL226380  12.620   7.428   7.252  0.1339 -0.0199  0.3614
 2177POPC   C1A26381  12.123   7.129   7.123  0.1402  0.4388 -0.0425
 2177POPC   D2A26382  11.969   7.111   6.658 -0.4417  0.2435 -0.2647
 2177POPC   C3A26383  12.137   7.363   6.355 -0.0984 -0.2649 -0.0221
 2177POPC   C4A26384  12.058   7.529   5.926  0.0356 -0.5401  0.0229
 2177POPC   C1B26385  12.689   7.113   6.995  0.2465 -0.1835 -0.1220
 2177POPC   C2B26386  12.411   6.809   6.732 -0.1531 -0.3111  0.1436
 2177POPC   C3B26387  12.441   6.430   6.456 -0.1382 -0.0325 -0.0824
 2177POPC   C4B26388  12.531   6.026   6.286  0.0601 -0.2457 -0.1273
 2178POPC   NC326389   2.957   8.119   7.923 -0.3326  0.3705 -0.1632
 2178POPC   PO426390   2.750   8.478   7.974 -0.2161  0.1476 -0.2584
 2178POPC   GL126391   2.550   8.412   7.570  0.2951  0.2251 -0.0974
 2178POPC   GL226392   2.451   8.693   7.509 -0.1861  0.0664 -0.0352
 2178POPC   C1A26393   2.461   8.146   7.192 -0.2510  0.3820 -0.0744
 2178POPC   D2A26394   2.549   7.844   6.820 -0.2268  0.0226  0.3548
 2178POPC   C3A26395   2.690   8.026   6.445  0.0043 -0.0520  0.3738
 2178POPC   C4A26396   2.615   8.213   6.013  0.3124  0.1581  0.2252
 2178POPC   C1B26397   2.583   8.749   7.105  0.1932  0.1077  0.1655
 2178POPC   C2B26398   2.626   9.102   6.781  0.1315  0.1071  0.4009
 2178POPC   C3B26399   2.496   9.097   6.333  0.2226  0.0146  0.0607
 2178POPC   C4B26400   2.500   8.745   6.104 -0.0065  0.3070 -0.0092
 2179POPC   NC326401  10.563  28.345   8.323  0.1381  0.1220 -0.0439
 2179POPC   PO426402  10.323  28.100   8.565  0.2290  0.2360  0.1888
 2179POPC   GL126403  10.030  28.194   8.185  0.2341 -0.0485 -0.2455
 2179POPC   GL226404  10.095  27.950   8.064 -0.1657 -0.0749 -0.1222
 2179POPC   C1A26405   9.596  28.292   8.097 -0.1148 -0.0564 -0.1285
 2179POPC   D2A26406   9.378  28.527   7.759  0.1093  0.1878 -0.0415
 2179POPC   C3A26407   9.290  28.570   7.320  0.3493  0.0123 -0.2324
 2179POPC   C4A26408   9.303  28.536   6.855  0.0867  0.1391  0.0455
 2179POPC   C1B26409   9.886  28.113   7.701  0.4259 -0.3147 -0.0126
 2179POPC   C2B26410   9.798  27.954   7.290 -0.1995 -0.1806  0.3392
 2179POPC   C3B26411   9.810  27.895   6.818  0.1524 -0.0927  0.2923
 2179POPC   C4B26412   9.458  28.055   6.576 -0.0548  0.1322 -0.1040
 2180POPC   NC326413   1.564  22.567   7.589  0.0481  0.0616  0.0135
 2180POPC   PO426414   1.237  22.761   7.699  0.2762 -0.0399  0.0291
 2180POPC   GL126415   1.382  22.876   7.357  0.1691 -0.0672 -0.1884
 2180POPC   GL226416   1.545  23.173   7.335  0.2251  0.1367 -0.1688
 2180POPC   C1A26417   1.330  22.980   6.890 -0.3120  0.0476  0.1605
 2180POPC   D2A26418   1.273  22.987   6.426  0.1797  0.0236 -0.1358
 2180POPC   C3A26419   1.404  23.352   6.113  0.1963 -0.3653 -0.0837
 2180POPC   C4A26420   1.823  23.298   5.861  0.1175  0.0052  0.1572
 2180POPC   C1B26421   1.779  23.127   7.027 -0.1542 -0.0622 -0.2242
 2180POPC   C2B26422   1.906  22.880   6.655 -0.3062  0.0163 -0.0476
 2180POPC   C3B26423   1.713  22.832   6.215 -0.3753  0.0677 -0.0477
 2180POPC   C4B26424   1.611  22.838   5.748  0.1749  0.1026 -0.0384
 2181POPC   NC326425   1.388  26.199   7.440  0.1563  0.0400  0.0187
 2181POPC   PO426426   1.063  26.178   7.650  0.1822  0.0846 -0.1431
 2181POPC   GL126427   0.917  25.930   7.261  0.2282  0.0646  0.0201
 2181POPC   GL226428   1.133  25.928   6.952  0.0406  0.1286  0.1971
 2181POPC   C1A26429   0.663  25.950   6.872 -0.0231  0.1817  0.1935
 2181POPC   D2A26430   0.577  25.820   6.443  0.1365 -0.2745 -0.2312
 2181POPC   C3A26431   0.788  26.009   6.099  0.2101  0.0546 -0.0843
 2181POPC   C4A26432   0.805  26.313   5.776  0.1989  0.0387 -0.2158
 2181POPC   C1B26433   1.092  26.147   6.536  0.0422  0.0602  0.0839
 2181POPC   C2B26434   1.232  26.174   6.085 -0.1879  0.0435  0.1134
 2181POPC   C3B26435   1.632  25.974   6.074  0.1442  0.2176 -0.0459
 2181POPC   C4B26436   2.063  26.208   6.121 -0.4489 -0.1066  0.1591
 2182POPC   NC326437  10.456  23.547   7.749 -0.2446 -0.2558  0.1084
 2182POPC   PO426438  10.155  23.404   7.565  0.1991 -0.0338 -0.0797
 2182POPC   GL126439  10.052  23.363   7.250 -0.3684 -0.0379  0.2276
 2182POPC   GL226440   9.738  23.287   7.288  0.2526  0.4053  0.3691
 2182POPC   C1A26441  10.318  23.273   6.862  0.1620  0.2328  0.0471
 2182POPC   D2A26442  10.453  23.464   6.426 -0.1345 -0.2708 -0.2191
 2182POPC   C3A26443  10.462  23.770   6.140 -0.1459 -0.3414 -0.1384
 2182POPC   C4A26444  10.521  24.029   5.738  0.1636  0.3004  0.1103
 2182POPC   C1B26445   9.766  23.368   6.824 -0.3179 -0.0302  0.1129
 2182POPC   C2B26446  10.032  23.223   6.440  0.1601 -0.2277 -0.1147
 2182POPC   C3B26447  10.162  23.361   6.006  0.0019  0.0293 -0.1648
 2182POPC   C4B26448  10.062  23.647   5.684 -0.1535  0.1282 -0.0979
 2183POPC   NC326449   6.526  29.891   8.142  0.0389  0.0452  0.1161
 2183POPC   PO426450   6.517  29.554   7.984  0.1969  0.1082  0.0835
 2183POPC   GL126451   6.681  29.602   7.602  0.1035  0.0668  0.2856
 2183POPC   GL226452   6.887  29.706   7.614 -0.0699 -0.1328  0.1492
 2183POPC   C1A26453   6.636  29.476   7.126  0.0964 -0.0252  0.1793
 2183POPC   D2A26454   6.731  29.367   6.705  0.0359  0.0157 -0.0030
 2183POPC   C3A26455   6.413  29.368   6.376  0.3020  0.1275 -0.0178
 2183POPC   C4A26456   6.115  29.122   6.086 -0.1510  0.0470  0.0752
 2183POPC   C1B26457   7.031  29.763   7.210 -0.0796  0.1004 -0.1747
 2183POPC   C2B26458   7.092  29.738   6.741  0.3808 -0.1113  0.1652
 2183POPC   C3B26459   7.327  29.484   6.384  0.0327 -0.1985 -0.1603
 2183POPC   C4B26460   7.619  29.576   6.081 -0.2383  0.2383  0.3548
 2184POPC   NC326461   0.185  21.075   7.980 -0.1112 -0.0467  0.2040
 2184POPC   PO426462   0.244  21.428   7.861 -0.0753 -0.1874 -0.2575
 2184POPC   GL126463   0.279  21.138   7.552  0.0927  0.0773 -0.0273
 2184POPC   GL226464   0.037  21.075   7.424 -0.1458 -0.0270 -0.5746
 2184POPC   C1A26465   0.391  21.101   7.063  0.3223 -0.2485  0.1642
 2184POPC   D2A26466   0.691  21.027   6.748 -0.1197 -0.2260  0.2164
 2184POPC   C3A26467   0.805  20.597   6.641 -0.0843 -0.0724 -0.2370
 2184POPC   C4A26468   0.901  20.192   6.472  0.0645  0.3370  0.1575
 2184POPC   C1B26469  -0.159  21.226   6.993  0.0074 -0.0556  0.0684
 2184POPC   C2B26470   0.017  21.190   6.555 -0.1148 -0.4388 -0.0271
 2184POPC   C3B26471   0.061  21.379   6.190  0.2768 -0.1537 -0.1083
 2184POPC   C4B26472  -0.108  21.367   5.713 -0.0890  0.0635 -0.4383
 2185POPC   NC326473   4.379  23.255   7.718  0.0119  0.1281 -0.0450
 2185POPC   PO426474   4.722  23.030   7.876  0.2967 -0.1999 -0.0118
 2185POPC   GL126475   4.742  23.023   7.505 -0.3312 -0.2104  0.2344
 2185POPC   GL226476   5.058  22.935   7.464  0.0242  0.0113 -0.1168
 2185POPC   C1A26477   4.665  22.781   7.148 -0.1011 -0.1063 -0.2900
 2185POPC   D2A26478   4.774  22.574   6.761 -0.2662  0.0317  0.1566
 2185POPC   C3A26479   4.745  22.772   6.327 -0.0970  0.2000  0.1737
 2185POPC   C4A26480   4.795  22.662   5.886  0.0872  0.0110 -0.2520
 2185POPC   C1B26481   5.133  22.875   7.023 -0.1739  0.1237 -0.2644
 2185POPC   C2B26482   5.184  22.776   6.583 -0.1641  0.1902 -0.2558
 2185POPC   C3B26483   5.084  22.481   6.281  0.3104  0.0504  0.0343
 2185POPC   C4B26484   4.689  22.282   6.180  0.1503  0.1360 -0.0667
 2186POPC   NC326485  14.357  30.888   7.724 -0.0415 -0.0617 -0.0200
 2186POPC   PO426486  14.330  31.294   7.702 -0.0525  0.1630 -0.0432
 2186POPC   GL126487  14.260  31.587   7.339  0.1355 -0.0939  0.4537
 2186POPC   GL226488  14.070  31.803   7.443 -0.0911  0.0620  0.1350
 2186POPC   C1A26489  14.315  31.937   7.018  0.2616 -0.0546 -0.2640
 2186POPC   D2A26490  14.245  32.116   6.628 -0.1690  0.0166  0.1715
 2186POPC   C3A26491  13.860  32.017   6.434 -0.0501 -0.2724 -0.0008
 2186POPC   C4A26492  13.738  32.286   6.085 -0.1822  0.0793 -0.1732
 2186POPC   C1B26493  13.661  31.799   7.254 -0.0177  0.0942  0.0450
 2186POPC   C2B26494  13.345  32.033   7.352 -0.4645 -0.0958  0.0769
 2186POPC   C3B26495  12.912  31.968   7.574  0.1822  0.0800 -0.4603
 2186POPC   C4B26496  12.485  31.992   7.577  0.0766  0.2107 -0.1872
 2187POPC   NC326497   0.316   8.552   7.735  0.0405  0.3202 -0.1130
 2187POPC   PO426498   0.305   8.876   7.985 -0.1072  0.1411  0.0275
 2187POPC   GL126499   0.221   8.980   7.564 -0.1084  0.0551  0.3179
 2187POPC   GL226500   0.099   9.289   7.532  0.2483  0.3810 -0.0995
 2187POPC   C1A26501   0.151   8.607   7.221 -0.2599 -0.2939 -0.0776
 2187POPC   D2A26502   0.139   8.303   6.904 -0.0134  0.1741  0.1242
 2187POPC   C3A26503  -0.036   8.526   6.535 -0.1829 -0.4627 -0.1322
 2187POPC   C4A26504  -0.162   8.881   6.261  0.2860 -0.1763 -0.0587
 2187POPC   C1B26505   0.111   9.136   7.060 -0.1078 -0.0778 -0.1729
 2187POPC   C2B26506   0.156   9.107   6.583 -0.0057 -0.1389 -0.0348
 2187POPC   C3B26507   0.193   9.125   6.136  0.1034  0.1301  0.0763
 2187POPC   C4B26508   0.363   8.900   5.741 -0.2544 -0.2721  0.0630
 2188POPC   NC326509   8.974  15.248   7.913  0.1390 -0.2982 -0.1776
 2188POPC   PO426510   8.923  15.602   7.758 -0.1326  0.1204 -0.2038
 2188POPC   GL126511   8.927  15.558   7.373  0.0093  0.1195  0.2242
 2188POPC   GL226512   9.086  15.321   7.355  0.2612  0.3238 -0.1433
 2188POPC   C1A26513   8.695  15.751   7.038 -0.0533  0.2876  0.0274
 2188POPC   D2A26514   8.649  16.105   6.744  0.4355  0.4570 -0.3820
 2188POPC   C3A26515   8.903  16.188   6.409  0.0378 -0.0984 -0.0280
 2188POPC   C4A26516   9.123  16.469   6.142  0.0625  0.0071  0.3101
 2188POPC   C1B26517   9.182  15.547   6.953 -0.0374 -0.1910  0.0149
 2188POPC   C2B26518   9.226  15.810   6.591  0.1437  0.0188  0.2183
 2188POPC   C3B26519   9.408  16.036   6.218 -0.1587 -0.1854  0.2052
 2188POPC   C4B26520   9.636  16.037   5.820  0.0086 -0.3468  0.1042
 2189POPC   NC326521  11.972  20.777   7.802 -0.3029 -0.0362  0.1104
 2189POPC   PO426522  12.005  20.840   7.429 -0.0104  0.2084 -0.1167
 2189POPC   GL126523  12.064  20.718   7.067  0.1761  0.3094  0.3039
 2189POPC   GL226524  11.834  20.608   7.015  0.0670  0.2706 -0.0351
 2189POPC   C1A26525  12.166  20.759   6.642  0.1067  0.1552  0.1056
 2189POPC   D2A26526  12.172  20.563   6.233  0.6169 -0.2850  0.1152
 2189POPC   C3A26527  11.792  20.829   6.182 -0.2864  0.2182  0.1550
 2189POPC   C4A26528  11.404  20.808   6.358  0.1108  0.0898  0.0538
 2189POPC   C1B26529  12.017  20.318   6.657  0.0507  0.0352 -0.3301
 2189POPC   C2B26530  12.086  19.932   6.354 -0.0434  0.2755 -0.0107
 2189POPC   C3B26531  12.286  19.936   5.968  0.0820  0.0828  0.0047
 2189POPC   C4B26532  12.299  19.610   5.609  0.0433 -0.1609  0.0700
 2190POPC   NC326533  11.714   4.020   7.936  0.1388  0.2597  0.1889
 2190POPC   PO426534  12.065   3.835   7.880 -0.4384 -0.1934  0.0359
 2190POPC   GL126535  12.263   3.929   7.592 -0.1278 -0.0556 -0.0539
 2190POPC   GL226536  12.579   3.916   7.531 -0.1101 -0.0693  0.2798
 2190POPC   C1A26537  12.306   3.813   7.112  0.0036 -0.2296  0.0544
 2190POPC   D2A26538  12.270   3.750   6.702 -0.0888 -0.0640  0.1485
 2190POPC   C3A26539  12.620   3.526   6.466  0.0722  0.1533  0.2687
 2190POPC   C4A26540  12.968   3.239   6.377 -0.1764 -0.2784 -0.0755
 2190POPC   C1B26541  12.687   4.349   7.384 -0.2831  0.0670  0.0545
 2190POPC   C2B26542  13.055   4.471   7.059 -0.1491 -0.0810  0.2123
 2190POPC   C3B26543  13.237   4.576   6.674  0.2329  0.0752 -0.3615
 2190POPC   C4B26544  13.357   4.764   6.274  0.2051  0.0997  0.2455
 2191POPC   NC326545   3.642   7.834   8.324  0.0452  0.0828 -0.0468
 2191POPC   PO426546   3.289   7.973   8.232 -0.3127 -0.2059 -0.2850
 2191POPC   GL126547   3.312   7.898   7.806 -0.2850 -0.1381  0.0944
 2191POPC   GL226548   3.475   8.132   7.713 -0.1598 -0.1350 -0.0815
 2191POPC   C1A26549   3.118   7.898   7.362  0.1826 -0.0236 -0.0524
 2191POPC   D2A26550   2.999   8.049   6.973  0.0478 -0.0986 -0.0736
 2191POPC   C3A26551   3.104   7.811   6.655  0.0084  0.0161 -0.2004
 2191POPC   C4A26552   3.388   7.735   6.298 -0.1909  0.3195  0.2884
 2191POPC   C1B26553   3.467   8.404   7.354  0.2950 -0.5635  0.0281
 2191POPC   C2B26554   3.541   8.585   6.936  0.0909  0.0657 -0.1605
 2191POPC   C3B26555   3.376   8.713   6.572  0.1381  0.1271  0.2202
 2191POPC   C4B26556   3.347   8.737   6.152  0.2678  0.1009  0.3997
 2192POPC   NC326557   2.044  14.950   7.738  0.0239  0.1389 -0.0163
 2192POPC   PO426558   2.036  14.597   7.564 -0.2766 -0.0016  0.0243
 2192POPC   GL126559   2.051  14.571   7.210  0.0514  0.1389 -0.5151
 2192POPC   GL226560   2.352  14.693   7.133  0.0511  0.1706 -0.1275
 2192POPC   C1A26561   2.060  14.208   6.887  0.2414  0.1154 -0.1938
 2192POPC   D2A26562   2.194  13.825   6.679 -0.0154 -0.1082 -0.1991
 2192POPC   C3A26563   2.269  13.818   6.199  0.4919 -0.0985 -0.0063
 2192POPC   C4A26564   2.489  13.889   5.796 -0.0458  0.0646 -0.3170
 2192POPC   C1B26565   2.089  14.633   6.697 -0.3726  0.0466  0.2289
 2192POPC   C2B26566   2.096  14.618   6.257 -0.0975 -0.3922  0.1366
 2192POPC   C3B26567   1.739  14.724   5.929 -0.1376 -0.1116 -0.0307
 2192POPC   C4B26568   1.395  14.690   5.645  0.2372  0.2183  0.2175
 2193POPC   NC326569  11.220  24.003   7.251  0.1531 -0.2394 -0.2991
 2193POPC   PO426570  11.142  24.007   7.653  0.0659  0.1762  0.4342
 2193POPC   GL126571  10.716  24.139   7.421 -0.0905 -0.0201  0.0331
 2193POPC   GL226572  10.719  23.875   7.416  0.4096 -0.3608  0.1122
 2193POPC   C1A26573  10.493  24.255   7.052  0.0094  0.0058 -0.1088
 2193POPC   D2A26574  10.119  24.330   6.784  0.0189  0.0514 -0.0700
 2193POPC   C3A26575  10.152  24.396   6.321 -0.2942 -0.1579 -0.1487
 2193POPC   C4A26576   9.925  24.585   5.976  0.1654  0.2638 -0.1270
 2193POPC   C1B26577  10.689  23.746   6.954  0.1652 -0.2034  0.2006
 2193POPC   C2B26578  10.544  24.014   6.576 -0.0246 -0.0241 -0.0701
 2193POPC   C3B26579  10.651  24.292   6.199  0.0939 -0.0001  0.2429
 2193POPC   C4B26580  10.953  24.413   5.839  0.5102 -0.0909 -0.0346
 2194POPC   NC326581   5.852  11.907   7.975 -0.1754  0.2199 -0.0928
 2194POPC   PO426582   5.510  12.164   7.989  0.0184 -0.2234  0.0915
 2194POPC   GL126583   5.496  12.272   7.546 -0.2193  0.1281 -0.0908
 2194POPC   GL226584   5.754  12.152   7.461 -0.4220 -0.2482 -0.1241
 2194POPC   C1A26585   5.521  12.302   7.077 -0.1460  0.0661 -0.1833
 2194POPC   D2A26586   5.342  12.128   6.674  0.0980 -0.2860 -0.1385
 2194POPC   C3A26587   5.400  12.344   6.281 -0.1343 -0.2557  0.0855
 2194POPC   C4A26588   5.290  12.531   5.843  0.2844  0.1976  0.1616
 2194POPC   C1B26589   6.146  12.059   7.141  0.0166 -0.2183  0.0556
 2194POPC   C2B26590   6.272  12.004   6.685 -0.0687 -0.0584 -0.1222
 2194POPC   C3B26591   6.281  11.613   6.443  0.2898 -0.0595 -0.0139
 2194POPC   C4B26592   6.419  11.395   6.088 -0.1203  0.2209 -0.1379
 2195POPC   NC326593  10.954   8.414   7.630  0.0342  0.2317  0.0765
 2195POPC   PO426594  10.878   8.028   7.571 -0.0021 -0.1426  0.2181
 2195POPC   GL126595  10.886   8.106   7.257 -0.1498 -0.4315  0.2726
 2195POPC   GL226596  11.207   8.140   7.157  0.1573 -0.1897 -0.2248
 2195POPC   C1A26597  10.820   8.155   6.802  0.1187 -0.2046  0.0323
 2195POPC   D2A26598  10.937   8.119   6.342  0.1611  0.2038 -0.1367
 2195POPC   C3A26599  11.116   8.503   6.047 -0.1754 -0.3657 -0.2455
 2195POPC   C4A26600  10.995   8.850   5.739 -0.3024  0.1970 -0.0921
 2195POPC   C1B26601  11.167   7.828   6.899  0.0982  0.1757  0.0127
 2195POPC   C2B26602  11.102   7.435   6.691  0.0902  0.2875 -0.2859
 2195POPC   C3B26603  10.893   7.256   6.326  0.3456  0.1394  0.0017
 2195POPC   C4B26604  10.753   7.429   5.880  0.0289  0.0915  0.0325
 2196POPC   NC326605  11.516   1.449   8.172 -0.1147  0.0161  0.1027
 2196POPC   PO426606  11.532   1.161   7.927  0.0526 -0.0022 -0.0382
 2196POPC   GL126607  11.325   1.213   7.575  0.0118 -0.0777 -0.0589
 2196POPC   GL226608  11.549   1.333   7.332 -0.2241  0.3067  0.1372
 2196POPC   C1A26609  11.005   0.915   7.461  0.1969  0.1765  0.0990
 2196POPC   D2A26610  10.791   0.516   7.360 -0.0640 -0.1216 -0.0326
 2196POPC   C3A26611  10.740   0.450   6.881  0.0446 -0.1507 -0.2195
 2196POPC   C4A26612  10.657   0.723   6.480 -0.0560  0.1001 -0.0198
 2196POPC   C1B26613  11.399   0.933   7.108  0.0968  0.0040 -0.2316
 2196POPC   C2B26614  11.251   0.522   6.888  0.1708  0.2829  0.0915
 2196POPC   C3B26615  11.206   0.470   6.427 -0.0258  0.0347  0.1549
 2196POPC   C4B26616  11.244   0.602   5.984  0.0280 -0.0594  0.0549
 2197POPC   NC326617   0.815  13.979   7.985  0.0360 -0.3189 -0.2069
 2197POPC   PO426618   1.058  13.706   7.825 -0.0627 -0.1096 -0.1368
 2197POPC   GL126619   1.110  13.639   7.498  0.0825  0.0290 -0.1170
 2197POPC   GL226620   1.108  13.840   7.289  0.2058  0.2322  0.0633
 2197POPC   C1A26621   0.811  13.499   7.150 -0.0403  0.0143  0.3670
 2197POPC   D2A26622   0.498  13.288   6.849 -0.0205  0.0221  0.2240
 2197POPC   C3A26623   0.537  12.815   6.656 -0.1360 -0.1393  0.5312
 2197POPC   C4A26624   0.856  12.578   6.369  0.3754 -0.0429  0.2921
 2197POPC   C1B26625   1.158  13.710   6.826  0.0546  0.2093  0.0730
 2197POPC   C2B26626   1.219  13.522   6.390 -0.1423  0.2085 -0.3879
 2197POPC   C3B26627   1.344  13.409   5.998 -0.3190 -0.2132 -0.1233
 2197POPC   C4B26628   1.585  13.462   5.604 -0.0799 -0.1802 -0.0550
 2198POPC   NC326629   7.669   0.087   7.465 -0.0378 -0.2206  0.0381
 2198POPC   PO426630   7.679   0.421   7.661 -0.0506  0.0927 -0.1084
 2198POPC   GL126631   7.584   0.565   7.292 -0.1916  0.1328  0.1603
 2198POPC   GL226632   7.314   0.497   7.315  0.2688 -0.0270  0.1132
 2198POPC   C1A26633   7.503   0.526   6.822  0.0462  0.1015  0.0121
 2198POPC   D2A26634   7.610   0.464   6.346  0.2860  0.1427  0.3890
 2198POPC   C3A26635   7.353   0.616   5.980 -0.0811  0.0202 -0.0396
 2198POPC   C4A26636   7.086   0.660   5.573 -0.1093  0.2849  0.0195
 2198POPC   C1B26637   7.232   0.860   7.073  0.0780 -0.0504 -0.1533
 2198POPC   C2B26638   7.482   1.037   6.657  0.2779  0.0407  0.3787
 2198POPC   C3B26639   7.589   1.042   6.200  0.2015 -0.0454  0.2960
 2198POPC   C4B26640   7.469   1.091   5.791  0.2636 -0.3695  0.1478
 2199POPC   NC326641   2.859   2.434   7.554 -0.0007  0.2479  0.2730
 2199POPC   PO426642   2.961   2.122   7.755 -0.2963 -0.0379 -0.2284
 2199POPC   GL126643   3.141   2.115   7.298  0.0758 -0.0741  0.0800
 2199POPC   GL226644   3.386   2.131   7.450  0.2543 -0.0655 -0.1501
 2199POPC   C1A26645   3.210   2.556   7.178  0.0973  0.0719 -0.0109
 2199POPC   D2A26646   3.541   2.873   7.224  0.0396 -0.0001 -0.1011
 2199POPC   C3A26647   3.551   3.158   6.862  0.0052  0.1064  0.0210
 2199POPC   C4A26648   3.351   3.133   6.443 -0.0841  0.0709 -0.0915
 2199POPC   C1B26649   3.537   2.237   7.029 -0.4103  0.0170 -0.1883
 2199POPC   C2B26650   3.670   2.340   6.581 -0.2267  0.2634 -0.3296
 2199POPC   C3B26651   3.736   2.674   6.300  0.0294  0.2243  0.2958
 2199POPC   C4B26652   3.947   2.953   5.954 -0.1004  0.0785  0.1522
 2200POPC   NC326653   3.409  27.399   7.925 -0.3703 -0.1663  0.0504
 2200POPC   PO426654   3.033  27.269   7.982 -0.0234 -0.4767  0.4209
 2200POPC   GL126655   2.926  27.187   7.596  0.5179  0.0515 -0.3544
 2200POPC   GL226656   2.979  27.447   7.493 -0.0553 -0.1337  0.1146
 2200POPC   C1A26657   3.059  27.133   7.147 -0.0160 -0.0692  0.1669
 2200POPC   D2A26658   2.918  27.320   6.755 -0.0024  0.0942  0.0637
 2200POPC   C3A26659   3.264  27.364   6.418 -0.0689  0.1324 -0.0955
 2200POPC   C4A26660   3.254  27.484   5.979  0.2429  0.0273  0.2663
 2200POPC   C1B26661   3.047  27.677   7.053 -0.3853  0.1217  0.1106
 2200POPC   C2B26662   3.084  27.875   6.652 -0.1858 -0.0466  0.0873
 2200POPC   C3B26663   3.194  27.966   6.214 -0.1198 -0.2529 -0.1147
 2200POPC   C4B26664   3.250  28.148   5.805  0.0122 -0.2723  0.2682
 2201POPC   NC326665  10.381   0.023   7.697  0.0977 -0.0957  0.0894
 2201POPC   PO426666  10.092   0.274   7.783  0.2249 -0.0031 -0.0496
 2201POPC   GL126667  10.044   0.522   7.499 -0.3915  0.1528 -0.3499
 2201POPC   GL226668  10.306   0.495   7.357 -0.2303  0.0485 -0.0353
 2201POPC   C1A26669   9.958   0.311   7.026  0.0106 -0.1349 -0.1932
 2201POPC   D2A26670   9.810   0.365   6.600  0.2363  0.1587 -0.1949
 2201POPC   C3A26671   9.442   0.085   6.631  0.0393 -0.1444 -0.1540
 2201POPC   C4A26672   9.112   0.196   6.346 -0.2079 -0.1776 -0.0072
 2201POPC   C1B26673  10.315   0.646   6.951 -0.0903  0.2844  0.2509
 2201POPC   C2B26674  10.175   0.734   6.496  0.3026  0.0425  0.0488
 2201POPC   C3B26675  10.374   0.699   6.086 -0.5419  0.0219 -0.2319
 2201POPC   C4B26676  10.322   0.877   5.668  0.0240  0.0671  0.1324
 2202POPC   NC326677   8.323  22.586   7.434  0.1843 -0.1366  0.1818
 2202POPC   PO426678   8.127  22.266   7.580  0.0551 -0.1456 -0.0298
 2202POPC   GL126679   8.212  22.167   7.263 -0.1436 -0.0216 -0.1141
 2202POPC   GL226680   8.402  22.041   7.216 -0.0752 -0.0106 -0.0871
 2202POPC   C1A26681   8.388  22.322   6.846 -0.2664 -0.0859  0.2952
 2202POPC   D2A26682   8.408  22.116   6.429 -0.0346  0.0366  0.1290
 2202POPC   C3A26683   8.375  22.458   6.069 -0.0585  0.0314  0.0309
 2202POPC   C4A26684   8.019  22.543   5.785  0.1272  0.1834  0.2823
 2202POPC   C1B26685   8.337  21.722   6.898  0.0148  0.2945 -0.3277
 2202POPC   C2B26686   8.162  21.711   6.460  0.3208 -0.2078  0.0534
 2202POPC   C3B26687   8.143  21.840   6.028 -0.0722  0.1809  0.0096
 2202POPC   C4B26688   8.269  22.110   5.694  0.0377  0.2264  0.1890
 2203POPC   NC326689  11.147  16.229   8.238 -0.0089  0.4528  0.0402
 2203POPC   PO426690  11.485  16.016   8.130 -0.1347 -0.0378  0.0797
 2203POPC   GL126691  11.486  16.253   7.829  0.0271  0.2946  0.3726
 2203POPC   GL226692  11.752  16.369   7.662  0.2202 -0.1539  0.0710
 2203POPC   C1A26693  11.387  16.683   7.649 -0.0498 -0.1261  0.0367
 2203POPC   D2A26694  11.347  17.115   7.731  0.0839 -0.0209  0.0498
 2203POPC   C3A26695  11.127  17.199   7.358 -0.1927 -0.1788  0.3237
 2203POPC   C4A26696  11.233  17.300   6.928 -0.2479 -0.0515 -0.0594
 2203POPC   C1B26697  11.576  16.357   7.231  0.3126  0.1302  0.1139
 2203POPC   C2B26698  11.308  16.413   6.865  0.0070  0.0696 -0.1106
 2203POPC   C3B26699  11.432  16.705   6.556  0.0665 -0.0492  0.0811
 2203POPC   C4B26700  11.469  16.964   6.131 -0.0748  0.2478 -0.0067
 2204POPC   NC326701  12.856  12.729   7.541 -0.0287  0.1757 -0.3784
 2204POPC   PO426702  12.521  12.948   7.571  0.3114 -0.0481  0.0031
 2204POPC   GL126703  12.460  12.909   7.247 -0.2155 -0.1165 -0.0453
 2204POPC   GL226704  12.173  12.962   7.187 -0.0957 -0.3753  0.1976
 2204POPC   C1A26705  12.451  12.618   6.902 -0.0367 -0.0772  0.0100
 2204POPC   D2A26706  12.228  12.583   6.489 -0.2400  0.2093 -0.0268
 2204POPC   C3A26707  12.528  12.534   6.154  0.3063 -0.3703 -0.1308
 2204POPC   C4A26708  12.556  12.167   5.908  0.1190  0.4067 -0.2032
 2204POPC   C1B26709  12.182  13.069   6.708 -0.5055 -0.0017 -0.1749
 2204POPC   C2B26710  12.309  13.020   6.252  0.1043 -0.0103 -0.0429
 2204POPC   C3B26711  12.145  12.786   5.895  0.1437  0.0623 -0.1207
 2204POPC   C4B26712  11.926  12.383   5.867  0.2918 -0.1199  0.0131
 2205POPC   NC326713   6.026   4.795   8.309 -0.0415  0.1976  0.1664
 2205POPC   PO426714   5.920   5.093   8.084 -0.0965  0.0682  0.1728
 2205POPC   GL126715   6.018   4.790   7.827  0.1616 -0.0766  0.2771
 2205POPC   GL226716   6.335   4.759   7.870  0.3392  0.1514 -0.0363
 2205POPC   C1A26717   5.924   4.583   7.371 -0.1024  0.1644 -0.0240
 2205POPC   D2A26718   5.993   4.306   7.016 -0.1674 -0.1021 -0.0471
 2205POPC   C3A26719   5.665   4.072   6.851  0.1347  0.3229  0.0785
 2205POPC   C4A26720   5.576   3.616   6.835 -0.0593  0.0420  0.2962
 2205POPC   C1B26721   6.289   4.320   7.659 -0.0272 -0.0274 -0.1872
 2205POPC   C2B26722   6.046   4.026   7.449  0.1460 -0.2756 -0.1250
 2205POPC   C3B26723   5.699   3.757   7.301  0.1132  0.3036 -0.3814
 2205POPC   C4B26724   5.316   3.525   7.287 -0.1472  0.0365  0.3040
 2206POPC   NC326725  13.375  13.863   7.993  0.3656  0.2780 -0.0859
 2206POPC   PO426726  13.458  14.131   7.714 -0.2278  0.0626 -0.2424
 2206POPC   GL126727  13.391  14.095   7.363 -0.1028 -0.1209  0.6444
 2206POPC   GL226728  13.129  14.102   7.341  0.0000 -0.1212  0.2799
 2206POPC   C1A26729  13.506  14.244   6.921  0.2541 -0.2830  0.1606
 2206POPC   D2A26730  13.742  14.607   6.721  0.3730 -0.0407  0.0152
 2206POPC   C3A26731  13.905  14.653   6.308 -0.0406  0.1823  0.0009
 2206POPC   C4A26732  13.956  14.801   5.884  0.2544 -0.0675 -0.1193
 2206POPC   C1B26733  13.089  14.032   6.885 -0.1745 -0.2856  0.0517
 2206POPC   C2B26734  12.909  14.098   6.453 -0.0959 -0.2810 -0.0829
 2206POPC   C3B26735  12.756  14.135   6.025  0.2831 -0.0185  0.0353
 2206POPC   C4B26736  12.610  13.718   5.769 -0.2097 -0.2066 -0.3455
 2207POPC   NC326737   4.110   2.525   7.972  0.0958  0.0358 -0.0049
 2207POPC   PO426738   3.844   2.371   7.761  0.1815  0.2222  0.1067
 2207POPC   GL126739   3.890   2.426   7.375 -0.0251 -0.0258 -0.0641
 2207POPC   GL226740   4.056   2.179   7.327  0.1802 -0.0004  0.1499
 2207POPC   C1A26741   3.943   2.665   6.961  0.0589  0.2774 -0.1257
 2207POPC   D2A26742   3.983   2.958   6.678 -0.3342 -0.0768  0.0140
 2207POPC   C3A26743   4.235   3.186   6.365  0.0942 -0.0707  0.1946
 2207POPC   C4A26744   4.258   3.375   5.948 -0.0734 -0.1047  0.1402
 2207POPC   C1B26745   4.079   2.125   6.864 -0.1739 -0.2907  0.0524
 2207POPC   C2B26746   4.166   1.882   6.513  0.0767 -0.2553  0.3337
 2207POPC   C3B26747   4.204   1.943   6.020 -0.1200 -0.1044  0.1004
 2207POPC   C4B26748   4.133   2.021   5.615  0.0134 -0.2365  0.1432
 2208POPC   NC326749  11.542  10.034   7.682 -0.1731 -0.1098  0.0391
 2208POPC   PO426750  11.432   9.785   7.838 -0.2136  0.1974  0.0067
 2208POPC   GL126751  11.569   9.547   7.526  0.0145 -0.0875 -0.1389
 2208POPC   GL226752  11.541   9.705   7.307 -0.3805 -0.0329 -0.1734
 2208POPC   C1A26753  11.379   9.340   7.157 -0.0385  0.0274 -0.0998
 2208POPC   D2A26754  11.200   9.053   6.897  0.1935 -0.1169  0.2865
 2208POPC   C3A26755  10.786   9.169   6.686  0.0803 -0.3567  0.1366
 2208POPC   C4A26756  10.455   9.043   6.425 -0.1901  0.2696 -0.0869
 2208POPC   C1B26757  11.525   9.772   6.875  0.1213  0.1443 -0.1278
 2208POPC   C2B26758  11.840   9.730   6.519  0.3410 -0.1186  0.0247
 2208POPC   C3B26759  11.744   9.894   6.082  0.2780  0.1537 -0.0196
 2208POPC   C4B26760  11.787  10.176   5.755  0.2376 -0.0179  0.0212
 2209POPC   NC326761   6.840  29.153   7.845 -0.1757 -0.0471 -0.2138
 2209POPC   PO426762   6.976  28.814   7.689 -0.0010  0.0936  0.2540
 2209POPC   GL126763   7.112  28.957   7.393  0.2120  0.3434  0.2252
 2209POPC   GL226764   7.020  29.205   7.366 -0.2233 -0.1010  0.1536
 2209POPC   C1A26765   7.305  28.664   7.111  0.3303 -0.2716  0.2553
 2209POPC   D2A26766   7.299  28.544   6.677  0.0955  0.0595 -0.0109
 2209POPC   C3A26767   6.919  28.573   6.439  0.0781  0.0287  0.0493
 2209POPC   C4A26768   6.534  28.361   6.306  0.0954  0.2637 -0.1710
 2209POPC   C1B26769   7.169  29.340   6.937 -0.0514  0.0293  0.0530
 2209POPC   C2B26770   7.452  29.082   6.620  0.1606 -0.1713  0.1209
 2209POPC   C3B26771   7.733  29.014   6.249 -0.0207 -0.1896 -0.0922
 2209POPC   C4B26772   7.702  29.126   5.815  0.1849  0.0050  0.3312
 2210POPC   NC326773   6.500  22.357   7.672 -0.0864  0.0754 -0.0758
 2210POPC   PO426774   6.785  22.624   7.551  0.1100  0.1761 -0.1668
 2210POPC   GL126775   6.954  22.294   7.298  0.2518 -0.2329  0.3403
 2210POPC   GL226776   7.174  22.088   7.321  0.2765 -0.1022 -0.1434
 2210POPC   C1A26777   6.880  22.067   6.889  0.1166  0.2088  0.3929
 2210POPC   D2A26778   6.926  22.097   6.414 -0.2305  0.2933  0.2281
 2210POPC   C3A26779   6.651  21.779   6.176  0.1334 -0.0605  0.2942
 2210POPC   C4A26780   6.325  21.577   6.004 -0.0311 -0.0490  0.2071
 2210POPC   C1B26781   7.502  22.001   6.986  0.0292  0.0728  0.1546
 2210POPC   C2B26782   7.658  21.762   6.664 -0.4404 -0.0452 -0.2246
 2210POPC   C3B26783   7.701  21.686   6.221  0.3000  0.1171 -0.2740
 2210POPC   C4B26784   7.749  21.377   5.856 -0.0127  0.1111  0.0511
 2211POPC   NC326785  11.095  29.293   7.864 -0.1035 -0.2118  0.1351
 2211POPC   PO426786  10.729  29.264   8.087 -0.1330 -0.0708  0.0954
 2211POPC   GL126787  10.519  29.110   7.776  0.5232  0.4332  0.0351
 2211POPC   GL226788  10.608  28.860   7.747 -0.0259  0.0160  0.1676
 2211POPC   C1A26789  10.056  29.124   7.691 -0.2447 -0.2091 -0.1761
 2211POPC   D2A26790   9.645  28.984   7.581  0.3218  0.4409  0.1483
 2211POPC   C3A26791   9.423  29.026   7.216 -0.0300 -0.2175  0.0009
 2211POPC   C4A26792   9.250  29.123   6.811  0.2772  0.1291  0.0660
 2211POPC   C1B26793  10.305  28.844   7.371  0.0120 -0.1598 -0.3033
 2211POPC   C2B26794  10.006  28.795   7.020 -0.5070 -0.1910 -0.2977
 2211POPC   C3B26795   9.715  28.798   6.741  0.0161 -0.1334  0.2027
 2211POPC   C4B26796   9.426  28.787   6.414  0.0763  0.1066 -0.2771
 2212POPC   NC326797   4.849  26.271   7.952 -0.0900 -0.1388 -0.0851
 2212POPC   PO426798   4.927  25.892   7.962  0.3013  0.3781 -0.1302
 2212POPC   GL126799   4.923  25.730   7.576 -0.1611 -0.0861 -0.0275
 2212POPC   GL226800   5.234  25.757   7.453 -0.2404  0.0035 -0.0883
 2212POPC   C1A26801   4.790  25.965   7.197  0.1694 -0.1587 -0.0248
 2212POPC   D2A26802   4.661  26.115   6.790  0.2724  0.1209  0.2105
 2212POPC   C3A26803   4.525  25.794   6.460  0.1529 -0.2450 -0.1113
 2212POPC   C4A26804   4.457  25.641   6.052 -0.0381 -0.2272  0.1631
 2212POPC   C1B26805   5.202  25.571   7.061 -0.1161 -0.0111 -0.1769
 2212POPC   C2B26806   5.261  25.253   6.754 -0.1182 -0.0781  0.0621
 2212POPC   C3B26807   5.482  24.910   6.617 -0.3314 -0.3404 -0.0901
 2212POPC   C4B26808   5.561  24.727   6.169  0.0500  0.0515  0.0689
 2213POPC   NC326809   4.352  11.634   8.153 -0.1159 -0.0703  0.1494
 2213POPC   PO426810   4.385  11.642   7.774  0.0110  0.0682  0.1104
 2213POPC   GL126811   4.286  11.872   7.572 -0.0269 -0.3905 -0.1740
 2213POPC   GL226812   4.247  12.236   7.530  0.2988  0.0407  0.0668
 2213POPC   C1A26813   4.010  11.738   7.210  0.0668 -0.4495 -0.0505
 2213POPC   D2A26814   3.729  11.904   6.922 -0.0739 -0.0462  0.1387
 2213POPC   C3A26815   3.770  12.121   6.519 -0.0114 -0.2036 -0.0295
 2213POPC   C4A26816   3.850  12.186   6.097  0.0315  0.0299 -0.2263
 2213POPC   C1B26817   4.490  12.268   7.140  0.1544  0.2033  0.2092
 2213POPC   C2B26818   4.612  12.192   6.704 -0.3804 -0.2128 -0.1713
 2213POPC   C3B26819   4.322  12.298   6.360  0.2846  0.1470 -0.0781
 2213POPC   C4B26820   4.197  12.583   5.978 -0.0059  0.3348  0.0309
 2214POPC   NC326821   5.568  13.457   8.213 -0.0062  0.0842 -0.2306
 2214POPC   PO426822   5.584  13.337   7.849 -0.0915  0.0670 -0.1889
 2214POPC   GL126823   5.700  13.114   7.452  0.0896  0.0018 -0.0939
 2214POPC   GL226824   5.645  13.245   7.147  0.2351 -0.0745 -0.0276
 2214POPC   C1A26825   5.799  12.701   7.306  0.0507 -0.2265 -0.1063
 2214POPC   D2A26826   6.054  12.481   6.963 -0.1732  0.0232  0.1666
 2214POPC   C3A26827   6.290  12.894   7.037 -0.1812  0.2865  0.4735
 2214POPC   C4A26828   6.563  13.130   7.321 -0.2823 -0.1508  0.0242
 2214POPC   C1B26829   5.810  12.935   6.866 -0.0898  0.3660  0.0413
 2214POPC   C2B26830   6.007  12.880   6.465 -0.2422 -0.2414 -0.1002
 2214POPC   C3B26831   6.086  13.105   6.017 -0.0905  0.2463 -0.3590
 2214POPC   C4B26832   6.233  13.216   5.603 -0.1314 -0.2124 -0.0033
 2215POPC   NC326833   3.228  18.624   7.274 -0.3259  0.0651  0.1356
 2215POPC   PO426834   3.100  18.290   7.522  0.2552 -0.2842 -0.2023
 2215POPC   GL126835   2.766  18.426   7.381  0.0031  0.1941  0.0581
 2215POPC   GL226836   2.590  18.650   7.464 -0.1110 -0.1268  0.1517
 2215POPC   C1A26837   2.560  18.490   6.997  0.2466 -0.0258 -0.2440
 2215POPC   D2A26838   2.105  18.601   6.929  0.2930 -0.1466 -0.0688
 2215POPC   C3A26839   1.871  18.525   6.562  0.0069 -0.1596  0.0251
 2215POPC   C4A26840   1.693  18.407   6.143  0.0442  0.1176 -0.0036
 2215POPC   C1B26841   2.122  18.636   7.415 -0.0407  0.2178 -0.1896
 2215POPC   C2B26842   1.696  18.643   7.281 -0.0173  0.0561  0.0395
 2215POPC   C3B26843   1.414  18.623   6.933 -0.2443  0.0602  0.1553
 2215POPC   C4B26844   1.396  18.812   6.484 -0.2082 -0.0398  0.0948
 2216POPC   NC326845   8.397  26.929   7.978 -0.0125  0.0585  0.0078
 2216POPC   PO426846   8.066  26.752   7.840 -0.0944 -0.0387  0.1265
 2216POPC   GL126847   8.249  26.868   7.572 -0.4731  0.4220  0.2240
 2216POPC   GL226848   8.477  26.733   7.520 -0.1283  0.1751  0.1743
 2216POPC   C1A26849   8.376  27.276   7.435 -0.2909  0.1896 -0.0788
 2216POPC   D2A26850   8.508  27.379   6.951  0.3758  0.0124  0.0979
 2216POPC   C3A26851   8.663  26.980   6.789  0.0900 -0.2648  0.1485
 2216POPC   C4A26852   8.707  26.886   6.356 -0.1521 -0.0498  0.3145
 2216POPC   C1B26853   8.788  26.999   7.323 -0.1183 -0.2648  0.0132
 2216POPC   C2B26854   8.937  27.289   7.067 -0.0454  0.0175  0.2892
 2216POPC   C3B26855   8.874  27.375   6.610  0.5319 -0.2766  0.1076
 2216POPC   C4B26856   8.764  27.524   6.216 -0.2273  0.1647  0.6560
 2217POPC   NC326857  11.007  15.300   7.759  0.1219  0.0617  0.0763
 2217POPC   PO426858  10.727  15.374   8.076 -0.0291  0.0023 -0.0276
 2217POPC   GL126859  10.655  15.564   7.764 -0.1372 -0.2964 -0.1386
 2217POPC   GL226860  10.450  15.452   7.624  0.0659 -0.2696 -0.2474
 2217POPC   C1A26861  10.502  16.003   7.607 -0.3513 -0.0488  0.1159
 2217POPC   D2A26862  10.150  16.084   7.274 -0.3216 -0.2549 -0.2070
 2217POPC   C3A26863  10.282  16.182   6.898 -0.0700  0.1011  0.1236
 2217POPC   C4A26864  10.356  16.303   6.468 -0.0091  0.2411 -0.0691
 2217POPC   C1B26865  10.194  15.614   7.272  0.3058 -0.0254 -0.3670
 2217POPC   C2B26866  10.112  15.714   6.835  0.1027 -0.0517 -0.3675
 2217POPC   C3B26867  10.337  15.695   6.407 -0.0868  0.0864 -0.0496
 2217POPC   C4B26868  10.614  15.472   6.127  0.1696  0.0115  0.2159
 2218POPC   NC326869  10.364   9.218   7.695  0.0465  0.2989  0.0314
 2218POPC   PO426870   9.982   9.387   7.688  0.2496  0.3458  0.1307
 2218POPC   GL126871  10.008   9.474   7.282 -0.0135 -0.0873  0.3678
 2218POPC   GL226872   9.744   9.546   7.276 -0.1046 -0.0466  0.0838
 2218POPC   C1A26873  10.069   9.263   6.851  0.0528 -0.0050  0.2066
 2218POPC   D2A26874   9.956   9.185   6.442 -0.1070 -0.2872  0.1968
 2218POPC   C3A26875  10.217   9.414   6.068  0.1316 -0.0883 -0.2093
 2218POPC   C4A26876  10.520   9.654   5.835  0.1271  0.1181 -0.1908
 2218POPC   C1B26877   9.573   9.414   6.864 -0.1203 -0.1092 -0.2113
 2218POPC   C2B26878   9.442   9.262   6.478  0.0494 -0.2442 -0.0993
 2218POPC   C3B26879   9.517   9.190   6.068  0.2085  0.0499  0.0964
 2218POPC   C4B26880   9.508   9.115   5.644 -0.2246 -0.0845  0.4743
 2219POPC   NC326881  15.328  23.193   7.916  0.0917 -0.2708 -0.1765
 2219POPC   PO426882  14.976  23.146   7.776 -0.1036  0.1525  0.0099
 2219POPC   GL126883  15.008  23.572   7.850 -0.2695  0.4071 -0.1758
 2219POPC   GL226884  15.257  23.668   7.702  0.1848 -0.2621  0.1388
 2219POPC   C1A26885  14.975  24.027   7.944 -0.3025 -0.0404  0.1510
 2219POPC   D2A26886  14.937  24.345   7.651 -0.0338  0.1770  0.0924
 2219POPC   C3A26887  15.265  24.635   7.592  0.0166 -0.0484  0.3766
 2219POPC   C4A26888  15.247  25.037   7.824  0.0937 -0.3511 -0.4374
 2219POPC   C1B26889  15.434  23.614   7.331 -0.0978 -0.2758  0.3073
 2219POPC   C2B26890  15.263  23.764   6.922 -0.2648 -0.2793 -0.1151
 2219POPC   C3B26891  15.376  24.067   6.591 -0.1574 -0.1509  0.1225
 2219POPC   C4B26892  15.189  24.365   6.269  0.2133 -0.0576  0.1014
 2220POPC   NC326893   6.452   7.183   7.414  0.1265 -0.0992  0.4118
 2220POPC   PO426894   6.588   7.505   7.603  0.0075 -0.1735  0.1667
 2220POPC   GL126895   6.484   7.574   7.277 -0.1333 -0.1152  0.3437
 2220POPC   GL226896   6.195   7.624   7.292 -0.3997 -0.1616 -0.0092
 2220POPC   C1A26897   6.484   7.788   6.841  0.2258 -0.2799 -0.0686
 2220POPC   D2A26898   6.475   7.673   6.425  0.3631  0.0936  0.2026
 2220POPC   C3A26899   6.232   7.876   6.054 -0.1053 -0.0005 -0.0235
 2220POPC   C4A26900   5.911   7.904   5.725 -0.0685  0.1656 -0.2397
 2220POPC   C1B26901   6.105   7.417   6.895  0.0529  0.1444  0.1241
 2220POPC   C2B26902   6.069   7.195   6.517 -0.0750  0.1217 -0.2458
 2220POPC   C3B26903   6.089   6.925   6.129 -0.1773 -0.2442 -0.1878
 2220POPC   C4B26904   6.063   7.086   5.730  0.1560 -0.1332  0.2954
 2221POPC   NC326905  12.407  27.117   7.649 -0.1273  0.0208 -0.0066
 2221POPC   PO426906  12.622  26.809   7.789  0.0301  0.0863 -0.1106
 2221POPC   GL126907  12.580  26.695   7.378  0.2736 -0.1125 -0.0509
 2221POPC   GL226908  12.591  26.924   7.218 -0.3558  0.0045 -0.4587
 2221POPC   C1A26909  12.575  26.491   6.956 -0.1054  0.3201 -0.2539
 2221POPC   D2A26910  12.361  26.489   6.581  0.0938 -0.2764 -0.2354
 2221POPC   C3A26911  12.348  26.301   6.103 -0.1339 -0.0354 -0.2000
 2221POPC   C4A26912  12.651  26.046   5.890 -0.0610 -0.0475  0.1093
 2221POPC   C1B26913  12.469  26.935   6.791  0.0437 -0.1855 -0.0857
 2221POPC   C2B26914  12.507  26.887   6.309 -0.2870  0.0173  0.0864
 2221POPC   C3B26915  12.326  26.954   5.871  0.3623 -0.0248  0.0775
 2221POPC   C4B26916  11.933  27.001   5.659 -0.0633 -0.0154 -0.0231
 2222POPC   NC326917  12.022   7.208   7.639 -0.1085  0.2533 -0.2373
 2222POPC   PO426918  11.765   7.486   7.551  0.0015 -0.1274 -0.0529
 2222POPC   GL126919  11.984   7.529   7.140 -0.4199 -0.0457  0.1325
 2222POPC   GL226920  11.853   7.828   7.123 -0.2012  0.1739 -0.0222
 2222POPC   C1A26921  12.332   7.440   6.830 -0.0353  0.2142  0.2391
 2222POPC   D2A26922  12.610   7.351   6.480  0.0809  0.2426  0.1089
 2222POPC   C3A26923  12.982   7.570   6.330 -0.1889  0.0171 -0.0231
 2222POPC   C4A26924  13.345   7.568   6.058 -0.1635  0.4346 -0.0456
 2222POPC   C1B26925  11.726   8.172   6.877 -0.0492  0.0181  0.1917
 2222POPC   C2B26926  11.836   8.309   6.416 -0.1390 -0.0410 -0.0852
 2222POPC   C3B26927  11.604   8.393   6.029  0.0087 -0.0679  0.1082
 2222POPC   C4B26928  11.506   8.787   5.899 -0.2879  0.2435  0.3063
 2223POPC   NC326929   5.573  10.513   8.103  0.1090  0.0401  0.0800
 2223POPC   PO426930   5.943  10.668   8.051 -0.1137  0.4748  0.1293
 2223POPC   GL126931   5.778  10.567   7.659 -0.0523  0.3485  0.1762
 2223POPC   GL226932   5.576  10.758   7.625  0.0333  0.1884  0.0792
 2223POPC   C1A26933   5.510  10.355   7.373  0.0718 -0.0990 -0.0341
 2223POPC   D2A26934   5.238  10.407   6.996 -0.0382 -0.0441 -0.2433
 2223POPC   C3A26935   5.386  10.570   6.574  0.0825  0.0800  0.0129
 2223POPC   C4A26936   5.747  10.702   6.288 -0.2766 -0.2002  0.1175
 2223POPC   C1B26937   5.483  10.829   7.145 -0.1294 -0.2704  0.3063
 2223POPC   C2B26938   5.150  10.933   6.868  0.1028 -0.3656 -0.0108
 2223POPC   C3B26939   4.923  10.886   6.480  0.1026 -0.3245  0.3171
 2223POPC   C4B26940   4.773  10.955   6.103  0.0159 -0.0021 -0.1227
 2224POPC   NC326941  14.325  15.066   8.218 -0.0361 -0.1302  0.0514
 2224POPC   PO426942  14.234  15.358   7.946 -0.0594  0.1006 -0.0823
 2224POPC   GL126943  14.376  15.575   7.599  0.1426 -0.1050 -0.2626
 2224POPC   GL226944  14.162  15.709   7.426 -0.1499 -0.0220 -0.2121
 2224POPC   C1A26945  14.711  15.829   7.458 -0.2752  0.0983 -0.2921
 2224POPC   D2A26946  15.160  16.060   7.565 -0.1007  0.0505  0.1665
 2224POPC   C3A26947  15.489  15.892   7.775 -0.2066 -0.1765 -0.1566
 2224POPC   C4A26948  15.928  16.003   8.008  0.2901  0.1108  0.0660
 2224POPC   C1B26949  14.395  15.754   7.066  0.1853  0.0401  0.0582
 2224POPC   C2B26950  14.817  15.640   6.968  0.0102  0.1069 -0.2143
 2224POPC   C3B26951  15.150  15.520   6.658  0.0322  0.2937  0.2310
 2224POPC   C4B26952  15.366  15.417   6.243 -0.2249  0.0661  0.2028
 2225POPC   NC326953   2.169   8.130   7.670  0.1926 -0.0862 -0.2530
 2225POPC   PO426954   1.838   8.015   7.843 -0.0519  0.1368 -0.2212
 2225POPC   GL126955   1.580   7.919   7.513  0.3857  0.0347 -0.1062
 2225POPC   GL226956   1.806   7.895   7.355  0.0364  0.1265 -0.0149
 2225POPC   C1A26957   1.512   8.195   7.084  0.0271  0.0514 -0.2961
 2225POPC   D2A26958   1.271   8.167   6.702 -0.1256  0.1125 -0.0837
 2225POPC   C3A26959   1.242   8.120   6.267  0.3484  0.0581 -0.0819
 2225POPC   C4A26960   1.163   8.368   5.820  0.0801 -0.0417  0.0764
 2225POPC   C1B26961   2.017   7.997   7.016  0.0638 -0.3011  0.0423
 2225POPC   C2B26962   2.141   7.987   6.539 -0.2687 -0.1906 -0.2781
 2225POPC   C3B26963   2.170   8.315   6.168 -0.0074 -0.0032  0.2954
 2225POPC   C4B26964   2.047   8.167   5.777 -0.0593 -0.0168  0.3257
 2226POPC   NC326965  14.968  20.404   8.365  0.0016 -0.2137 -0.1478
 2226POPC   PO426966  15.311  20.538   8.225 -0.1687 -0.0807  0.0627
 2226POPC   GL126967  15.616  20.544   7.988  0.1312 -0.0698 -0.0084
 2226POPC   GL226968  15.568  20.698   7.740  0.1195  0.1141 -0.3172
 2226POPC   C1A26969  16.011  20.359   7.783  0.1661 -0.2267 -0.0279
 2226POPC   D2A26970  16.461  20.316   7.928  0.1728 -0.3846 -0.3305
 2226POPC   C3A26971  16.743  20.333   8.301  0.0811  0.2041 -0.0937
 2226POPC   C4A26972  17.174  20.489   8.425  0.2090  0.0853  0.0566
 2226POPC   C1B26973  15.537  20.685   7.284  0.0282 -0.1229 -0.1637
 2226POPC   C2B26974  15.475  20.783   6.866 -0.2805 -0.0477  0.1127
 2226POPC   C3B26975  15.599  20.743   6.470 -0.2092 -0.5552  0.0041
 2226POPC   C4B26976  15.751  20.481   6.105 -0.0382  0.0665  0.1476
 2227POPC   NC326977   4.182  20.147   7.788 -0.0822 -0.3466  0.0817
 2227POPC   PO426978   4.011  19.829   7.645 -0.0404 -0.1335 -0.3290
 2227POPC   GL126979   3.884  20.086   7.405  0.3113  0.2152  0.1861
 2227POPC   GL226980   3.760  20.353   7.302  0.0698  0.3346  0.1855
 2227POPC   C1A26981   3.655  19.992   6.987 -0.0567  0.1768 -0.1132
 2227POPC   D2A26982   3.520  19.702   6.700  0.2447  0.3160  0.0918
 2227POPC   C3A26983   3.655  19.507   6.315 -0.2925 -0.1510  0.2927
 2227POPC   C4A26984   3.519  19.296   5.931  0.1834 -0.0770 -0.3253
 2227POPC   C1B26985   3.888  20.423   6.863 -0.1952  0.1529  0.0578
 2227POPC   C2B26986   4.197  20.440   6.471 -0.1723 -0.1399 -0.1068
 2227POPC   C3B26987   4.495  20.509   6.131  0.3745  0.2339  0.1337
 2227POPC   C4B26988   4.904  20.607   5.945 -0.0630 -0.2951 -0.1868
 2228POPC   NC326989   7.821  13.968   7.835 -0.0163  0.1544 -0.2294
 2228POPC   PO426990   8.179  13.840   7.707  0.0284  0.2159 -0.0832
 2228POPC   GL126991   8.313  13.884   7.347 -0.1376  0.3750  0.1366
 2228POPC   GL226992   8.470  14.149   7.399 -0.2116 -0.1800  0.2471
 2228POPC   C1A26993   8.245  13.627   6.961 -0.0165 -0.2372  0.0195
 2228POPC   D2A26994   8.153  13.378   6.568  0.0319 -0.2038  0.1098
 2228POPC   C3A26995   7.996  13.496   6.122 -0.2322 -0.1419 -0.0820
 2228POPC   C4A26996   7.709  13.580   5.779 -0.1542  0.0110 -0.2425
 2228POPC   C1B26997   8.554  14.028   6.964  0.0626 -0.1918  0.0016
 2228POPC   C2B26998   8.639  13.845   6.556  0.2063 -0.0046 -0.1592
 2228POPC   C3B26999   8.398  13.806   6.147  0.0410 -0.1743 -0.0382
 2228POPC   C4B27000   7.995  14.022   5.909 -0.0800  0.1039  0.1915
 2229POPC   NC327001   7.238  10.640   7.758  0.0165  0.1031 -0.2282
 2229POPC   PO427002   7.590  10.482   7.693  0.2166 -0.0758 -0.0793
 2229POPC   GL127003   7.376  10.401   7.405 -0.0579 -0.1323 -0.1750
 2229POPC   GL227004   7.124  10.317   7.230 -0.0158 -0.3762  0.1379
 2229POPC   C1A27005   7.305  10.687   7.034 -0.0115  0.2530  0.0650
 2229POPC   D2A27006   7.407  10.962   6.624  0.2568  0.1651  0.1303
 2229POPC   C3A27007   7.458  10.763   6.204  0.0994  0.2363  0.5135
 2229POPC   C4A27008   7.670  10.860   5.800 -0.1394  0.1552 -0.2002
 2229POPC   C1B27009   6.943  10.418   6.824  0.5129 -0.0620  0.0478
 2229POPC   C2B27010   7.196  10.479   6.441 -0.0633  0.0431  0.0039
 2229POPC   C3B27011   6.995  10.574   5.981 -0.1834 -0.0892  0.1779
 2229POPC   C4B27012   6.774  10.777   5.609 -0.0583 -0.1595 -0.0325
 2230POPC   NC327013  12.490   3.931   8.092  0.0897  0.3715 -0.1286
 2230POPC   PO427014  12.542   4.235   8.352  0.0447 -0.4600 -0.0704
 2230POPC   GL127015  12.755   4.559   8.229  0.0219 -0.2723 -0.1365
 2230POPC   GL227016  12.755   4.474   7.915 -0.2432 -0.1131  0.1319
 2230POPC   C1A27017  13.086   4.790   8.463 -0.1126 -0.2345 -0.1952
 2230POPC   D2A27018  13.433   4.910   8.714  0.2878 -0.1225 -0.2001
 2230POPC   C3A27019  13.556   4.575   9.026  0.1758  0.3828  0.3141
 2230POPC   C4A27020  13.911   4.259   8.966  0.4824 -0.1509  0.0218
 2230POPC   C1B27021  13.229   4.455   8.065 -0.0405 -0.0441  0.0207
 2230POPC   C2B27022  13.563   4.687   8.182  0.1466  0.0506 -0.2537
 2230POPC   C3B27023  13.856   4.701   8.549  0.0009  0.2866 -0.0418
 2230POPC   C4B27024  14.237   4.682   8.776 -0.0242  0.2320  0.1880
 2231POPC   NC327025  12.163  20.206   7.171 -0.3819  0.0011  0.1248
 2231POPC   PO427026  12.083  19.930   7.423  0.1852  0.0509 -0.0457
 2231POPC   GL127027  12.007  19.707   7.068 -0.1478  0.1795 -0.0636
 2231POPC   GL227028  11.722  19.570   7.118  0.1533  0.4005 -0.1722
 2231POPC   C1A27029  11.792  19.888   6.715  0.2124 -0.1514  0.0607
 2231POPC   D2A27030  11.569  19.796   6.303 -0.0423 -0.1117  0.2842
 2231POPC   C3A27031  11.440  19.999   5.955 -0.0558  0.0494 -0.0446
 2231POPC   C4A27032  11.513  20.169   5.531  0.0463  0.2489  0.1349
 2231POPC   C1B27033  11.525  19.459   6.736 -0.2284  0.2361 -0.2945
 2231POPC   C2B27034  11.473  19.266   6.310  0.1267  0.1491  0.3004
 2231POPC   C3B27035  11.549  19.366   5.865 -0.3229 -0.0137  0.0355
 2231POPC   C4B27036  11.683  19.418   5.417 -0.1173 -0.0228  0.1045
 2232POPC   NC327037   4.282   7.962   7.758 -0.1114 -0.0457  0.1217
 2232POPC   PO427038   3.964   8.026   7.982 -0.1402  0.1483  0.3099
 2232POPC   GL127039   3.948   8.213   7.599  0.1922 -0.0388  0.0096
 2232POPC   GL227040   3.926   8.472   7.675 -0.0272 -0.2060 -0.1092
 2232POPC   C1A27041   3.993   8.210   7.162  0.2833 -0.0837  0.1496
 2232POPC   D2A27042   4.002   8.502   6.823  0.1644  0.1496 -0.1628
 2232POPC   C3A27043   3.761   8.369   6.417  0.0288 -0.3005 -0.3814
 2232POPC   C4A27044   3.668   8.127   6.020 -0.0916 -0.4017  0.1326
 2232POPC   C1B27045   4.246   8.771   7.512 -0.1292 -0.0648 -0.1027
 2232POPC   C2B27046   4.259   8.929   7.073  0.0312  0.0320 -0.0336
 2232POPC   C3B27047   4.163   9.058   6.630  0.1265 -0.2835 -0.3327
 2232POPC   C4B27048   3.827   8.868   6.327  0.0299 -0.1402  0.0366
 2233POPC   NC327049   2.788  18.327   7.900 -0.0436  0.3590  0.2812
 2233POPC   PO427050   2.952  18.704   7.889  0.0368  0.0963  0.0111
 2233POPC   GL127051   2.864  18.966   7.673  0.1106 -0.0925  0.0289
 2233POPC   GL227052   3.030  19.059   7.460  0.0347 -0.1172 -0.0643
 2233POPC   C1A27053   2.435  19.149   7.531  0.3729 -0.2345 -0.1574
 2233POPC   D2A27054   2.146  19.114   7.161 -0.0960 -0.3292  0.0322
 2233POPC   C3A27055   1.700  19.153   7.244 -0.0124  0.2220  0.1585
 2233POPC   C4A27056   1.319  19.111   6.970  0.2433  0.0600  0.1248
 2233POPC   C1B27057   2.824  18.948   7.071 -0.2418  0.3400 -0.2553
 2233POPC   C2B27058   2.555  18.907   6.791 -0.0090  0.2923  0.2023
 2233POPC   C3B27059   2.285  18.865   6.459  0.2900 -0.0095 -0.2445
 2233POPC   C4B27060   1.910  19.002   6.202  0.0429 -0.1093 -0.0397
 2234POPC   NC327061   4.187  27.301   8.354 -0.1047 -0.0076 -0.1477
 2234POPC   PO427062   4.560  27.231   8.275  0.4728 -0.3140 -0.1053
 2234POPC   GL127063   4.413  27.337   7.884 -0.2233 -0.1250  0.2564
 2234POPC   GL227064   4.228  27.099   7.773 -0.0072  0.1483  0.1834
 2234POPC   C1A27065   4.353  27.462   7.461 -0.0497  0.0589  0.0097
 2234POPC   D2A27066   4.392  27.726   7.072 -0.1702 -0.0194 -0.2115
 2234POPC   C3A27067   4.546  27.567   6.680 -0.0907  0.1449 -0.0329
 2234POPC   C4A27068   4.690  27.545   6.296  0.0195 -0.1098  0.1244
 2234POPC   C1B27069   4.372  26.947   7.310  0.0627 -0.1451 -0.0267
 2234POPC   C2B27070   4.364  27.096   6.897  0.1434  0.1342  0.4754
 2234POPC   C3B27071   4.344  27.171   6.374 -0.1893 -0.1742  0.1623
 2234POPC   C4B27072   4.106  27.048   6.009  0.0808 -0.1767 -0.2368
 2235POPC   NC327073  15.710   3.109   8.190 -0.2535  0.3069  0.0473
 2235POPC   PO427074  15.358   2.975   8.197  0.1497 -0.3102  0.0726
 2235POPC   GL127075  15.253   3.276   8.085  0.2441 -0.0848 -0.2676
 2235POPC   GL227076  15.417   3.392   7.900  0.0918 -0.1758 -0.1160
 2235POPC   C1A27077  14.803   3.477   8.071 -0.4248  0.0530 -0.4051
 2235POPC   D2A27078  14.578   3.632   8.403 -0.0670  0.0214  0.1746
 2235POPC   C3A27079  14.345   3.938   8.592  0.0558 -0.0141  0.2155
 2235POPC   C4A27080  14.026   4.250   8.411  0.0143 -0.0129  0.2993
 2235POPC   C1B27081  15.113   3.215   7.649  0.3455  0.0340 -0.0890
 2235POPC   C2B27082  15.211   2.912   7.311 -0.0493 -0.3666  0.0252
 2235POPC   C3B27083  15.294   2.679   6.908  0.0350 -0.1439 -0.0275
 2235POPC   C4B27084  15.171   2.326   6.661  0.0205 -0.2234  0.1676
 2236POPC   NC327085   2.702   4.485   7.708  0.0634 -0.1017  0.2921
 2236POPC   PO427086   2.343   4.700   7.775  0.2506 -0.1609  0.2769
 2236POPC   GL127087   2.261   4.542   7.456 -0.2154 -0.1236  0.4039
 2236POPC   GL227088   2.114   4.690   7.273  0.2458  0.0637  0.0025
 2236POPC   C1A27089   2.238   4.156   7.185  0.1989 -0.0871 -0.1812
 2236POPC   D2A27090   2.193   3.901   6.755 -0.0810 -0.0401 -0.3180
 2236POPC   C3A27091   2.341   3.684   6.376  0.0892  0.3211 -0.0415
 2236POPC   C4A27092   2.651   3.583   6.072  0.0967 -0.2041 -0.0290
 2236POPC   C1B27093   1.917   4.506   6.936 -0.1412 -0.0444 -0.0098
 2236POPC   C2B27094   1.788   4.450   6.475 -0.0733  0.0727 -0.1288
 2236POPC   C3B27095   1.614   4.155   6.151  0.0215 -0.0802  0.0368
 2236POPC   C4B27096   1.599   3.788   5.879  0.3620 -0.0077  0.0316
 2237POPC   NC327097  14.204  12.085   8.490 -0.0230 -0.2715  0.4137
 2237POPC   PO427098  13.965  12.073   8.205 -0.0803  0.0315  0.0884
 2237POPC   GL127099  13.804  11.982   7.741 -0.0590 -0.0844  0.0846
 2237POPC   GL227100  13.933  11.778   7.701 -0.1630 -0.0945 -0.2068
 2237POPC   C1A27101  13.477  11.781   7.473 -0.0670  0.1006 -0.0340
 2237POPC   D2A27102  13.269  11.346   7.456  0.1413  0.0464  0.0104
 2237POPC   C3A27103  13.319  10.965   7.200 -0.0002  0.3125 -0.2194
 2237POPC   C4A27104  13.365  10.525   6.968  0.2345  0.1122  0.2099
 2237POPC   C1B27105  13.876  11.764   7.216 -0.1460 -0.0270  0.1193
 2237POPC   C2B27106  13.889  11.717   6.739 -0.2957  0.1285 -0.1755
 2237POPC   C3B27107  13.729  11.732   6.273  0.4502 -0.2325 -0.2265
 2237POPC   C4B27108  13.565  12.040   5.967  0.2099 -0.2995 -0.0820
 2238POPC   NC327109   1.209  14.820   7.675 -0.3124  0.2252  0.5631
 2238POPC   PO427110   1.580  14.969   7.740  0.5142 -0.2011  0.0976
 2238POPC   GL127111   1.673  14.835   7.392  0.2863  0.3459 -0.0419
 2238POPC   GL227112   1.855  14.971   7.216 -0.1764  0.0548 -0.0128
 2238POPC   C1A27113   1.643  14.540   7.028  0.2787 -0.0908 -0.3370
 2238POPC   D2A27114   1.622  14.445   6.609 -0.1393  0.1180 -0.1585
 2238POPC   C3A27115   1.919  14.190   6.376 -0.1713  0.2324  0.5167
 2238POPC   C4A27116   2.144  14.218   5.942  0.1843 -0.2195 -0.0869
 2238POPC   C1B27117   1.522  15.047   6.878  0.1179  0.0196 -0.1503
 2238POPC   C2B27118   1.315  15.280   6.489 -0.1086  0.0290 -0.0737
 2238POPC   C3B27119   0.974  15.429   6.216  0.0904  0.0546  0.1403
 2238POPC   C4B27120   0.746  15.293   5.818  0.2554 -0.0783  0.1729
 2239POPC   NC327121  11.807   2.948   7.532 -0.0798  0.0728 -0.0170
 2239POPC   PO427122  12.021   2.805   7.854 -0.0628  0.3716  0.1681
 2239POPC   GL127123  12.332   2.958   7.537 -0.1143  0.2305  0.3406
 2239POPC   GL227124  12.575   2.764   7.525 -0.0942  0.2260  0.1386
 2239POPC   C1A27125  12.311   2.839   7.089  0.2252 -0.1681 -0.0787
 2239POPC   D2A27126  11.891   2.909   6.914 -0.1108 -0.0846 -0.0742
 2239POPC   C3A27127  11.681   2.620   6.655  0.2907  0.0116  0.0442
 2239POPC   C4A27128  11.611   2.737   6.228  0.0028 -0.0751  0.1155
 2239POPC   C1B27129  12.854   2.904   7.176 -0.0874  0.1414 -0.0484
 2239POPC   C2B27130  12.688   2.918   6.751  0.0394 -0.0749  0.2310
 2239POPC   C3B27131  12.627   2.805   6.330  0.1451  0.3654 -0.0250
 2239POPC   C4B27132  12.340   2.690   5.973 -0.1452  0.0834  0.0133
 2240POPC   NC327133   3.251  30.263   8.006  0.0683 -0.1438 -0.0735
 2240POPC   PO427134   3.521  30.486   7.791  0.1196  0.0505  0.0853
 2240POPC   GL127135   3.360  30.258   7.517  0.0149 -0.0420 -0.1004
 2240POPC   GL227136   3.102  30.340   7.526  0.0699 -0.1049  0.1103
 2240POPC   C1A27137   3.192  29.963   7.235  0.0159 -0.0329  0.2345
 2240POPC   D2A27138   3.187  29.641   6.919 -0.3998  0.1506  0.0049
 2240POPC   C3A27139   3.058  29.652   6.427 -0.0359  0.2979  0.0156
 2240POPC   C4A27140   2.873  29.579   6.015 -0.4068  0.0302 -0.0468
 2240POPC   C1B27141   2.905  30.370   7.100 -0.1091 -0.1960  0.0014
 2240POPC   C2B27142   2.715  30.370   6.687  0.1819  0.3167 -0.0745
 2240POPC   C3B27143   2.597  30.316   6.243  0.0323 -0.2416 -0.0433
 2240POPC   C4B27144   2.573  30.545   5.856  0.1860  0.0388 -0.0884
 2241POPC   NC327145   1.198   2.891   7.647  0.1088 -0.0877 -0.0070
 2241POPC   PO427146   1.586   2.949   7.791  0.1559  0.2321 -0.2236
 2241POPC   GL127147   1.710   2.798   7.379 -0.1488  0.0375  0.0656
 2241POPC   GL227148   1.720   3.057   7.231 -0.3507  0.0482 -0.1944
 2241POPC   C1A27149   1.345   2.634   7.153 -0.3433  0.0755  0.0125
 2241POPC   D2A27150   1.239   2.273   6.966 -0.1176  0.1423  0.0569
 2241POPC   C3A27151   1.275   2.294   6.516 -0.0259  0.0494  0.2798
 2241POPC   C4A27152   1.293   2.491   6.115  0.0673  0.0396  0.0995
 2241POPC   C1B27153   1.718   3.179   6.812  0.0814 -0.3068  0.1967
 2241POPC   C2B27154   1.601   3.305   6.352  0.1152 -0.1212  0.2421
 2241POPC   C3B27155   1.767   3.308   5.954 -0.0543 -0.5175  0.0478
 2241POPC   C4B27156   1.780   3.486   5.509 -0.0860  0.2119 -0.1193
 2242POPC   NC327157   5.710   7.755   7.437 -0.0699 -0.0684  0.2296
 2242POPC   PO427158   6.001   8.061   7.544  0.1273  0.0545  0.0357
 2242POPC   GL127159   5.792   8.223   7.303 -0.2861  0.4486 -0.1989
 2242POPC   GL227160   5.497   8.244   7.248  0.0731  0.0260 -0.2361
 2242POPC   C1A27161   5.698   8.009   6.871 -0.0715  0.1319 -0.3618
 2242POPC   D2A27162   5.573   8.201   6.539  0.1798  0.0493  0.1631
 2242POPC   C3A27163   5.618   7.969   6.165 -0.2288  0.2030 -0.2035
 2242POPC   C4A27164   5.340   7.688   5.940 -0.1691 -0.0874  0.1440
 2242POPC   C1B27165   5.445   8.583   6.947  0.2046  0.1692  0.0157
 2242POPC   C2B27166   5.358   8.992   6.783 -0.0130 -0.1036 -0.2553
 2242POPC   C3B27167   5.673   9.204   6.547  0.0700 -0.1299  0.0663
 2242POPC   C4B27168   6.026   9.285   6.230  0.1121  0.0206 -0.1612
 2243POPC   NC327169  15.159  19.579   8.336 -0.0744 -0.1564  0.0676
 2243POPC   PO427170  15.267  19.307   8.070  0.2105 -0.1948 -0.0708
 2243POPC   GL127171  15.512  19.072   7.896  0.0786  0.0323  0.1888
 2243POPC   GL227172  15.660  18.938   8.099 -0.1662 -0.0666 -0.3424
 2243POPC   C1A27173  15.985  19.222   7.818  0.1678 -0.1609  0.0501
 2243POPC   D2A27174  16.437  19.241   7.856 -0.3013  0.0563  0.1378
 2243POPC   C3A27175  16.806  19.171   7.617  0.1044 -0.1933 -0.0367
 2243POPC   C4A27176  17.119  18.871   7.392  0.0015  0.0924 -0.0840
 2243POPC   C1B27177  15.960  18.680   7.958 -0.0704 -0.1865 -0.0883
 2243POPC   C2B27178  16.246  18.567   7.577 -0.1109 -0.0424  0.0100
 2243POPC   C3B27179  16.440  18.282   7.238  0.0505  0.1216 -0.1441
 2243POPC   C4B27180  16.429  17.827   7.381 -0.0108 -0.1394 -0.1194
 2244POPC   NC327181   1.401  21.834   7.688  0.2687 -0.0015  0.1864
 2244POPC   PO427182   1.645  22.112   7.828  0.1057 -0.1980  0.0714
 2244POPC   GL127183   1.748  22.085   7.449 -0.0236 -0.0585 -0.0697
 2244POPC   GL227184   1.493  22.100   7.264  0.1844  0.0333 -0.0947
 2244POPC   C1A27185   2.179  22.016   7.231 -0.0204 -0.2394  0.1898
 2244POPC   D2A27186   2.325  22.104   6.813 -0.3326  0.1103 -0.3108
 2244POPC   C3A27187   2.340  21.905   6.427  0.1112  0.3664  0.0427
 2244POPC   C4A27188   1.992  21.728   6.154 -0.2701 -0.2725 -0.1038
 2244POPC   C1B27189   1.788  21.953   6.950 -0.2705 -0.1446 -0.0246
 2244POPC   C2B27190   1.650  21.705   6.533 -0.1883 -0.0640 -0.1963
 2244POPC   C3B27191   1.527  21.483   6.160 -0.4058  0.4280 -0.1003
 2244POPC   C4B27192   1.166  21.366   5.874 -0.0950 -0.0326 -0.1294
 2245POPC   NC327193  15.046  29.168   7.239 -0.2761  0.0800 -0.3316
 2245POPC   PO427194  15.052  29.546   7.406  0.1268  0.3027 -0.0778
 2245POPC   GL127195  15.009  29.623   6.976 -0.0304 -0.0618  0.0367
 2245POPC   GL227196  14.825  29.408   6.882 -0.0303  0.0358 -0.0247
 2245POPC   C1A27197  14.996  29.929   6.626  0.0372  0.0619 -0.2088
 2245POPC   D2A27198  15.021  29.926   6.190  0.0376 -0.2518  0.1115
 2245POPC   C3A27199  14.630  29.859   5.946 -0.2741 -0.2269 -0.2170
 2245POPC   C4A27200  14.544  29.890   5.500  0.2457 -0.2442  0.0577
 2245POPC   C1B27201  14.969  29.453   6.443  0.2518  0.3021  0.2440
 2245POPC   C2B27202  15.153  29.510   5.972  0.1585 -0.3667 -0.1762
 2245POPC   C3B27203  15.226  29.874   5.723  0.2145  0.3543  0.2587
 2245POPC   C4B27204  15.428  29.842   5.337 -0.1063 -0.1420  0.2696
 2246POPC   NC327205   8.781   8.397   7.579 -0.1902 -0.3679  0.2424
 2246POPC   PO427206   8.691   8.112   7.852 -0.3261  0.1815 -0.0416
 2246POPC   GL127207   9.072   8.012   7.513 -0.3559  0.1992 -0.5032
 2246POPC   GL227208   9.249   8.300   7.387 -0.1143 -0.3443 -0.0779
 2246POPC   C1A27209   8.885   8.127   7.108  0.1075 -0.3511 -0.3781
 2246POPC   D2A27210   8.707   8.563   7.031 -0.1434 -0.1458  0.0304
 2246POPC   C3A27211   8.767   8.831   6.640 -0.1058 -0.2599 -0.0492
 2246POPC   C4A27212   8.796   9.177   6.334 -0.2840 -0.3075 -0.0435
 2246POPC   C1B27213   9.225   8.582   7.010  0.0053  0.1190  0.0291
 2246POPC   C2B27214   9.210   8.837   6.606 -0.2685 -0.1288 -0.2007
 2246POPC   C3B27215   9.138   8.859   6.139 -0.2380  0.1201 -0.0718
 2246POPC   C4B27216   9.097   8.859   5.679 -0.1770  0.1659 -0.0705
 2247POPC   NC327217  14.657  17.054   7.767  0.0017 -0.3379 -0.1568
 2247POPC   PO427218  14.915  17.276   7.881 -0.2362  0.0658  0.0329
 2247POPC   GL127219  15.122  17.349   7.545  0.0245 -0.0664 -0.3728
 2247POPC   GL227220  15.005  17.067   7.382 -0.1494 -0.4731 -0.0680
 2247POPC   C1A27221  15.608  17.306   7.519  0.1399  0.2660  0.1175
 2247POPC   D2A27222  16.008  17.444   7.382 -0.3486 -0.0673  0.0558
 2247POPC   C3A27223  16.258  17.424   7.023 -0.1585  0.2541 -0.4465
 2247POPC   C4A27224  16.660  17.293   6.888  0.2663  0.2442  0.0604
 2247POPC   C1B27225  15.363  16.922   7.182  0.0166  0.1094 -0.1833
 2247POPC   C2B27226  15.796  16.926   6.987 -0.1796  0.0963  0.2369
 2247POPC   C3B27227  15.958  17.198   6.674  0.2015 -0.0230 -0.1763
 2247POPC   C4B27228  16.002  17.543   6.337 -0.3467  0.0415 -0.2280
 2248POPC   NC327229   2.981  16.525   7.902 -0.3637 -0.1219 -0.1689
 2248POPC   PO427230   3.116  16.249   7.733 -0.0500 -0.1167 -0.2402
 2248POPC   GL127231   3.066  16.435   7.352  0.4853  0.2454  0.0820
 2248POPC   GL227232   3.222  16.299   7.239 -0.2127  0.3087  0.1647
 2248POPC   C1A27233   2.925  16.806   7.054  0.0904 -0.1408 -0.1439
 2248POPC   D2A27234   2.731  16.976   6.722 -0.1728  0.0993 -0.1600
 2248POPC   C3A27235   2.366  16.780   6.511  0.0261 -0.2383 -0.0233
 2248POPC   C4A27236   2.246  16.734   6.010 -0.0205 -0.1086 -0.0163
 2248POPC   C1B27237   3.300  15.949   6.965 -0.2110 -0.1415  0.2888
 2248POPC   C2B27238   3.245  15.795   6.516 -0.0027  0.3832  0.3641
 2248POPC   C3B27239   3.086  15.535   6.182 -0.2606 -0.1587  0.0418
 2248POPC   C4B27240   3.236  15.181   5.924  0.0175 -0.1025  0.3165
 2249POPC   NC327241  13.736   7.767   7.623  0.0914  0.1801  0.0303
 2249POPC   PO427242  13.456   7.980   7.772 -0.1019  0.1471 -0.2785
 2249POPC   GL127243  13.292   8.165   7.466 -0.1497  0.0130 -0.2194
 2249POPC   GL227244  13.600   8.236   7.333  0.0449  0.3371  0.0342
 2249POPC   C1A27245  13.195   8.172   7.026  0.2945  0.1734 -0.0353
 2249POPC   D2A27246  13.323   8.296   6.587 -0.3710  0.0967  0.0868
 2249POPC   C3A27247  12.985   8.465   6.348  0.0796  0.0821 -0.1179
 2249POPC   C4A27248  12.965   8.881   6.121  0.0110  0.1543  0.0301
 2249POPC   C1B27249  13.608   8.594   7.005  0.0309 -0.0650  0.2808
 2249POPC   C2B27250  13.281   8.744   6.711  0.0776 -0.0246 -0.1058
 2249POPC   C3B27251  13.051   9.150   6.600 -0.2089  0.1609 -0.0345
 2249POPC   C4B27252  12.734   9.431   6.392  0.1492  0.2034 -0.0845
 2250POPC   NC327253   5.467  27.266   8.091  0.0532  0.3859 -0.2012
 2250POPC   PO427254   5.281  27.580   7.965 -0.3399  0.1892 -0.2083
 2250POPC   GL127255   5.510  27.514   7.603 -0.2545 -0.0929  0.0155
 2250POPC   GL227256   5.520  27.791   7.559  0.2063 -0.1596  0.4019
 2250POPC   C1A27257   5.410  27.629   7.094 -0.0682  0.0697 -0.0116
 2250POPC   D2A27258   5.480  27.956   6.755  0.0225 -0.4336 -0.2927
 2250POPC   C3A27259   5.557  27.932   6.279  0.1539  0.1253 -0.1322
 2250POPC   C4A27260   5.374  27.903   5.863 -0.0595  0.0469 -0.1293
 2250POPC   C1B27261   5.733  28.025   7.191 -0.1988 -0.0200 -0.0691
 2250POPC   C2B27262   5.945  28.051   6.766  0.0944 -0.1201  0.1225
 2250POPC   C3B27263   6.088  28.114   6.331 -0.1881 -0.1069 -0.1067
 2250POPC   C4B27264   6.251  28.170   5.876  0.2052 -0.2090 -0.0889
 2251POPC   NC327265  13.415  16.209   7.864 -0.1558  0.0786 -0.1066
 2251POPC   PO427266  13.465  16.592   7.806  0.0922  0.0973  0.0581
 2251POPC   GL127267  13.282  16.605   7.478  0.1314 -0.4052 -0.1185
 2251POPC   GL227268  13.456  16.438   7.319  0.1412  0.0305 -0.0245
 2251POPC   C1A27269  12.889  16.648   7.226  0.0955  0.0781  0.0624
 2251POPC   D2A27270  12.479  16.763   7.004  0.0344  0.0956 -0.2570
 2251POPC   C3A27271  12.375  16.946   6.637 -0.1409 -0.3663 -0.3785
 2251POPC   C4A27272  12.264  16.941   6.189 -0.0944 -0.2084  0.0858
 2251POPC   C1B27273  13.318  16.140   7.015 -0.3684  0.2188 -0.0818
 2251POPC   C2B27274  13.205  15.927   6.613 -0.2443  0.0924  0.0109
 2251POPC   C3B27275  13.326  15.876   6.154 -0.1094 -0.2107  0.2138
 2251POPC   C4B27276  13.382  15.867   5.709  0.0315  0.1699  0.0174
 2252POPC   NC327277   2.804  19.877   8.057 -0.0781  0.1308 -0.1233
 2252POPC   PO427278   3.089  19.978   7.823  0.1447  0.0158 -0.1526
 2252POPC   GL127279   3.008  20.001   7.481  0.2966  0.2027 -0.1345
 2252POPC   GL227280   3.221  20.198   7.343 -0.2854 -0.1602 -0.1500
 2252POPC   C1A27281   2.700  19.970   7.117  0.2337 -0.0497  0.0002
 2252POPC   D2A27282   2.279  19.944   6.876 -0.2762  0.1215  0.0587
 2252POPC   C3A27283   2.105  19.739   6.482  0.1945  0.0972  0.0232
 2252POPC   C4A27284   1.874  19.456   6.204  0.0550  0.1481 -0.2321
 2252POPC   C1B27285   3.173  19.870   7.026  0.2848 -0.0502  0.1405
 2252POPC   C2B27286   3.058  19.865   6.595  0.0234 -0.1269 -0.0150
 2252POPC   C3B27287   2.641  19.877   6.364  0.2937  0.1990 -0.3902
 2252POPC   C4B27288   2.356  19.883   6.020 -0.1650 -0.0992 -0.0250
 2253POPC   NC327289  10.881  27.925   7.796 -0.1112  0.1715  0.2088
 2253POPC   PO427290  10.604  27.818   8.052 -0.0994 -0.0791  0.0316
 2253POPC   GL127291  10.408  27.837   7.735 -0.1170 -0.1584 -0.2721
 2253POPC   GL227292  10.348  28.116   7.674  0.1303  0.1096 -0.1859
 2253POPC   C1A27293  10.273  27.774   7.289  0.1499 -0.1030 -0.0026
 2253POPC   D2A27294  10.238  27.668   6.815 -0.0180  0.1039 -0.0527
 2253POPC   C3A27295  10.470  27.882   6.438 -0.1465 -0.2747  0.0290
 2253POPC   C4A27296  10.580  27.858   5.965  0.1534 -0.0586 -0.1340
 2253POPC   C1B27297  10.223  28.280   7.274 -0.0086  0.0057  0.0142
 2253POPC   C2B27298  10.194  28.222   6.814  0.1982 -0.0632  0.5994
 2253POPC   C3B27299   9.859  28.420   6.504  0.1012 -0.0216 -0.2403
 2253POPC   C4B27300   9.771  28.578   6.085 -0.1706 -0.0909 -0.2683
 2254POPC   NC327301   2.369   3.229   7.883 -0.1259 -0.1434 -0.1504
 2254POPC   PO427302   2.532   3.608   7.878 -0.0395  0.1430  0.1804
 2254POPC   GL127303   2.592   3.767   7.524 -0.0544  0.3906 -0.1102
 2254POPC   GL227304   2.641   4.044   7.453  0.1752  0.3246 -0.3962
 2254POPC   C1A27305   2.882   3.596   7.202  0.0061  0.2059  0.1139
 2254POPC   D2A27306   3.051   3.527   6.763  0.2458 -0.1726  0.0801
 2254POPC   C3A27307   3.110   3.524   6.313 -0.1433 -0.0116  0.0933
 2254POPC   C4A27308   3.123   3.316   5.984  0.0243 -0.1682 -0.3367
 2254POPC   C1B27309   3.031   4.036   7.219 -0.1663  0.0807  0.0380
 2254POPC   C2B27310   3.171   4.066   6.817  0.1429 -0.1463  0.0934
 2254POPC   C3B27311   3.152   4.375   6.472 -0.1267 -0.3622  0.1186
 2254POPC   C4B27312   3.011   4.599   6.054  0.0684 -0.1982  0.0337
 2255POPC   NC327313   1.597  14.316   7.573  0.1058  0.1035  0.0347
 2255POPC   PO427314   1.185  14.278   7.581 -0.0054  0.2136 -0.3963
 2255POPC   GL127315   1.238  14.395   7.208  0.1277  0.5234  0.1769
 2255POPC   GL227316   1.134  14.612   7.223  0.2008 -0.3319  0.1958
 2255POPC   C1A27317   1.197  14.274   6.745  0.1423  0.0426  0.1598
 2255POPC   D2A27318   0.853  14.336   6.364  0.0576 -0.1492  0.0795
 2255POPC   C3A27319   1.067  14.352   5.987  0.3493  0.1713  0.0944
 2255POPC   C4A27320   1.304  14.062   5.703  0.2651 -0.0751 -0.2710
 2255POPC   C1B27321   1.125  14.729   6.799 -0.1542 -0.0077  0.0831
 2255POPC   C2B27322   0.833  14.906   6.504  0.0064 -0.3427  0.3250
 2255POPC   C3B27323   0.479  15.143   6.294  0.2389 -0.0357  0.3184
 2255POPC   C4B27324   0.072  15.231   6.067 -0.2021  0.0531 -0.2448
 2256POPC   NC327325   1.569  12.077   7.642 -0.0732  0.2979  0.3728
 2256POPC   PO427326   1.927  12.218   7.511 -0.0268 -0.2390 -0.1098
 2256POPC   GL127327   1.714  12.313   7.255  0.0573 -0.2158 -0.0271
 2256POPC   GL227328   1.861  12.524   7.131  0.1476 -0.2490  0.0482
 2256POPC   C1A27329   1.561  12.274   6.826  0.3043  0.2454 -0.1561
 2256POPC   D2A27330   1.665  12.274   6.392 -0.0773 -0.0020 -0.1945
 2256POPC   C3A27331   1.811  11.899   6.119  0.0168 -0.2670  0.0236
 2256POPC   C4A27332   2.063  11.529   5.940 -0.1837  0.1244 -0.0932
 2256POPC   C1B27333   2.048  12.371   6.735 -0.0637 -0.0049  0.1285
 2256POPC   C2B27334   2.242  12.008   6.489 -0.1055 -0.5933 -0.1313
 2256POPC   C3B27335   2.486  11.747   6.224 -0.2549  0.4484  0.2583
 2256POPC   C4B27336   2.548  11.614   5.763  0.2352  0.1563 -0.2270
 2257POPC   NC327337   5.690   7.186   8.022  0.2079  0.1534 -0.1087
 2257POPC   PO427338   5.582   7.008   7.729  0.3393 -0.1128  0.0772
 2257POPC   GL127339   5.492   7.100   7.318 -0.0257 -0.1895  0.0687
 2257POPC   GL227340   5.677   7.293   7.258 -0.1174  0.3596  0.0526
 2257POPC   C1A27341   5.458   6.885   6.902 -0.0259 -0.1017 -0.5210
 2257POPC   D2A27342   5.675   6.882   6.549 -0.0233 -0.1667  0.0350
 2257POPC   C3A27343   5.906   6.539   6.458  0.3602 -0.0810  0.1104
 2257POPC   C4A27344   6.093   6.323   6.114  0.4718  0.0088  0.1799
 2257POPC   C1B27345   5.624   7.373   6.840  0.1353  0.1152  0.2747
 2257POPC   C2B27346   5.476   7.391   6.368 -0.0306 -0.1379 -0.2032
 2257POPC   C3B27347   5.542   7.093   6.022 -0.2738  0.2227  0.4440
 2257POPC   C4B27348   5.691   6.655   6.016 -0.1894  0.2327 -0.3400
 2258POPC   NC327349   8.303  11.149   7.650 -0.3220  0.0106 -0.0713
 2258POPC   PO427350   7.951  11.246   7.746 -0.1714  0.3806  0.2659
 2258POPC   GL127351   7.866  11.180   7.341 -0.3288  0.2129  0.2176
 2258POPC   GL227352   7.634  10.949   7.383 -0.3348 -0.1049 -0.3400
 2258POPC   C1A27353   7.564  11.288   7.039 -0.2967 -0.0498 -0.1983
 2258POPC   D2A27354   7.187  11.372   6.805 -0.0723 -0.0984 -0.1194
 2258POPC   C3A27355   7.178  11.262   6.334 -0.1014 -0.0392  0.2299
 2258POPC   C4A27356   7.320  11.172   5.860 -0.2227 -0.2480  0.2064
 2258POPC   C1B27357   7.925  10.920   6.966 -0.0317 -0.2963 -0.1397
 2258POPC   C2B27358   7.900  11.129   6.478 -0.0052 -0.1461 -0.0511
 2258POPC   C3B27359   8.073  10.997   6.065 -0.1864  0.1472 -0.2264
 2258POPC   C4B27360   8.123  11.100   5.599 -0.1764  0.0608 -0.0571
 2259POPC   NC327361   9.355  13.894   7.275  0.0412  0.0545 -0.3265
 2259POPC   PO427362   9.642  14.008   7.534  0.0675 -0.1524 -0.0858
 2259POPC   GL127363   9.832  13.968   7.162  0.1334 -0.0380  0.0263
 2259POPC   GL227364  10.134  13.961   7.257  0.1026  0.0422 -0.1588
 2259POPC   C1A27365   9.647  13.962   6.709 -0.1722 -0.1446  0.3112
 2259POPC   D2A27366   9.530  14.084   6.237 -0.1082 -0.2911  0.2128
 2259POPC   C3A27367   9.562  13.982   5.790  0.1588 -0.0436 -0.1328
 2259POPC   C4A27368   9.593  14.410   5.552 -0.0367 -0.0559 -0.1479
 2259POPC   C1B27369  10.456  13.969   6.953 -0.1451  0.0050 -0.2578
 2259POPC   C2B27370  10.535  14.055   6.517  0.2719 -0.1287  0.0948
 2259POPC   C3B27371  10.506  13.782   6.150  0.0039  0.0635  0.3273
 2259POPC   C4B27372  10.865  13.517   6.103  0.1884  0.0526  0.2642
 2260POPC   NC327373  13.547   3.368   8.254  0.3101 -0.0859 -0.2260
 2260POPC   PO427374  13.154   3.331   8.284 -0.1964 -0.2662  0.0427
 2260POPC   GL127375  13.112   3.739   8.164 -0.0263  0.0360 -0.0939
 2260POPC   GL227376  13.363   3.741   7.961 -0.0952  0.1507 -0.1458
 2260POPC   C1A27377  12.969   4.046   7.860  0.1368  0.1255 -0.2924
 2260POPC   D2A27378  13.136   4.390   7.548 -0.0677  0.0721  0.0944
 2260POPC   C3A27379  13.520   4.608   7.709  0.0727 -0.1115  0.0145
 2260POPC   C4A27380  13.850   4.371   7.933 -0.0903  0.1535 -0.0107
 2260POPC   C1B27381  13.483   4.033   7.663  0.0563 -0.4034  0.1915
 2260POPC   C2B27382  13.577   4.316   7.311 -0.0066  0.2862  0.3922
 2260POPC   C3B27383  13.533   4.788   7.262  0.1237  0.3298 -0.0457
 2260POPC   C4B27384  13.439   5.022   6.957 -0.1491  0.4787  0.0409
 2261POPC   NC327385   5.624  14.596   8.187 -0.1221  0.0813 -0.3278
 2261POPC   PO427386   5.901  14.475   7.876  0.0909 -0.1625  0.0674
 2261POPC   GL127387   5.826  14.878   7.589 -0.3897  0.0349  0.2416
 2261POPC   GL227388   6.140  14.790   7.488  0.0784  0.5138  0.0275
 2261POPC   C1A27389   5.895  15.155   7.199  0.0155 -0.1371 -0.0582
 2261POPC   D2A27390   6.075  15.184   6.765  0.1253  0.1835  0.1389
 2261POPC   C3A27391   6.100  15.431   6.395  0.1933  0.3242 -0.1660
 2261POPC   C4A27392   6.235  15.652   6.003 -0.1366  0.0601 -0.0378
 2261POPC   C1B27393   6.252  14.798   7.050  0.1916  0.0271 -0.5509
 2261POPC   C2B27394   6.507  14.705   6.663 -0.0788  0.1151 -0.2543
 2261POPC   C3B27395   6.501  14.543   6.225  0.0070  0.0404  0.0018
 2261POPC   C4B27396   6.456  14.133   5.923 -0.2040 -0.1027 -0.0148
 2262POPC   NC327397   6.504  20.278   8.091 -0.0984  0.2140  0.2012
 2262POPC   PO427398   6.641  20.640   8.219  0.2396 -0.2150 -0.0138
 2262POPC   GL127399   6.930  20.430   7.932  0.3449  0.0252 -0.1125
 2262POPC   GL227400   6.845  20.621   7.749  0.1101 -0.3792 -0.1933
 2262POPC   C1A27401   7.042  20.238   7.495  0.2214 -0.0979 -0.2368
 2262POPC   D2A27402   7.145  20.321   7.027 -0.0413 -0.0708  0.3013
 2262POPC   C3A27403   7.302  20.553   6.648 -0.2277 -0.0650 -0.3689
 2262POPC   C4A27404   7.572  20.708   6.295  0.3819 -0.0516 -0.2516
 2262POPC   C1B27405   6.501  20.661   7.507  0.2784 -0.0547  0.3773
 2262POPC   C2B27406   6.254  20.583   7.086 -0.1296  0.2605 -0.1052
 2262POPC   C3B27407   6.350  20.719   6.617 -0.1875  0.3455  0.0710
 2262POPC   C4B27408   6.523  20.966   6.243  0.1189  0.2475  0.1017
 2263POPC   NC327409   0.460  27.179   8.232  0.0280  0.1070  0.0070
 2263POPC   PO427410   0.504  27.331   7.860  0.0065  0.3822 -0.0419
 2263POPC   GL127411   0.350  27.300   7.518 -0.0883 -0.0295 -0.3775
 2263POPC   GL227412   0.199  27.067   7.409 -0.0977  0.1246 -0.1890
 2263POPC   C1A27413   0.390  27.602   7.208  0.0445 -0.2089 -0.1688
 2263POPC   D2A27414   0.257  27.587   6.728 -0.0174 -0.0604  0.1854
 2263POPC   C3A27415   0.590  27.586   6.438  0.3754  0.0005 -0.1479
 2263POPC   C4A27416   0.747  27.547   5.995  0.4852  0.1486  0.1930
 2263POPC   C1B27417   0.150  27.111   6.956 -0.1488  0.0626  0.1942
 2263POPC   C2B27418   0.143  27.208   6.475  0.2081  0.1956 -0.2801
 2263POPC   C3B27419   0.089  27.503   6.074  0.2060  0.3162  0.2468
 2263POPC   C4B27420   0.230  27.796   5.822  0.2649  0.1428 -0.1653
 2264POPC   NC327421   5.492  24.289   8.055 -0.0422 -0.2684  0.1012
 2264POPC   PO427422   5.861  24.429   7.961 -0.1096 -0.0892  0.1750
 2264POPC   GL127423   6.100  24.535   7.588 -0.1634 -0.1478  0.0151
 2264POPC   GL227424   6.093  24.814   7.612  0.1135 -0.0548 -0.1521
 2264POPC   C1A27425   5.979  24.390   7.243 -0.1208 -0.3990  0.1733
 2264POPC   D2A27426   5.610  24.127   7.129  0.4177 -0.1506 -0.0966
 2264POPC   C3A27427   5.439  24.111   6.762 -0.1391  0.0192  0.1874
 2264POPC   C4A27428   5.397  24.243   6.329 -0.0768  0.2663 -0.1079
 2264POPC   C1B27429   6.291  24.835   7.163 -0.0384 -0.1494  0.0066
 2264POPC   C2B27430   6.363  24.941   6.727 -0.1595  0.0529 -0.1931
 2264POPC   C3B27431   6.626  25.080   6.351  0.1337 -0.2350 -0.0749
 2264POPC   C4B27432   6.730  24.895   5.944  0.0581  0.1456  0.1240
 2265POPC   NC327433  10.676  26.493   8.101 -0.2157 -0.0114 -0.2055
 2265POPC   PO427434  10.757  26.127   7.966 -0.0470  0.2270 -0.1144
 2265POPC   GL127435  10.920  26.133   7.545 -0.0633 -0.1171  0.0116
 2265POPC   GL227436  10.674  26.071   7.462 -0.2660 -0.2107  0.1315
 2265POPC   C1A27437  11.004  26.008   7.110 -0.1290 -0.2343  0.1201
 2265POPC   D2A27438  11.138  26.017   6.666 -0.1429  0.2359  0.0456
 2265POPC   C3A27439  11.167  26.077   6.202 -0.0177  0.0764 -0.1931
 2265POPC   C4A27440  11.108  26.200   5.758  0.1738  0.1012  0.0588
 2265POPC   C1B27441  10.642  26.467   7.235 -0.1761 -0.0779 -0.0364
 2265POPC   C2B27442  10.560  26.591   6.820 -0.2376  0.2188 -0.0053
 2265POPC   C3B27443  10.522  26.807   6.468  0.3870 -0.1748 -0.0252
 2265POPC   C4B27444  10.767  26.710   6.071 -0.2890 -0.3776  0.1273
 2266POPC   NC327445   3.880  21.962   7.479 -0.0025 -0.2349 -0.0523
 2266POPC   PO427446   3.634  22.278   7.549  0.0172  0.3983 -0.3916
 2266POPC   GL127447   3.421  22.317   7.186 -0.2395 -0.1355 -0.1135
 2266POPC   GL227448   3.151  22.424   7.187  0.1979  0.0502 -0.0558
 2266POPC   C1A27449   3.404  22.091   6.796  0.1254  0.1699  0.0126
 2266POPC   D2A27450   3.357  21.692   6.528  0.0808 -0.0898 -0.0961
 2266POPC   C3A27451   3.493  21.386   6.193 -0.0652  0.0515  0.3436
 2266POPC   C4A27452   3.718  21.413   5.812  0.0497  0.0318  0.0503
 2266POPC   C1B27453   3.044  22.615   6.802 -0.0188  0.2237  0.2223
 2266POPC   C2B27454   2.996  22.671   6.339  0.2624  0.1336  0.0069
 2266POPC   C3B27455   3.144  22.400   5.890 -0.1153  0.0686 -0.2823
 2266POPC   C4B27456   3.411  21.989   5.927  0.2153  0.1801 -0.2250
 2267POPC   NC327457   6.690  14.322   8.607  0.0655 -0.2765  0.1381
 2267POPC   PO427458   6.724  14.167   8.269 -0.2032 -0.4157  0.1922
 2267POPC   GL127459   6.603  14.191   7.911 -0.1610  0.1157  0.0467
 2267POPC   GL227460   6.448  14.451   7.860  0.5142 -0.1524  0.0830
 2267POPC   C1A27461   6.722  14.209   7.470  0.0662 -0.1448  0.0098
 2267POPC   D2A27462   6.564  14.436   7.129  0.1529 -0.1464 -0.1785
 2267POPC   C3A27463   6.578  14.184   6.739 -0.2153 -0.2340  0.3000
 2267POPC   C4A27464   6.797  14.133   6.322  0.0478  0.2444  0.1916
 2267POPC   C1B27465   6.692  14.704   7.507 -0.0607 -0.1535 -0.1923
 2267POPC   C2B27466   7.034  14.608   7.193 -0.0379  0.0320  0.1084
 2267POPC   C3B27467   6.976  14.804   6.746  0.0630 -0.1557 -0.0819
 2267POPC   C4B27468   7.010  14.637   6.304  0.0800  0.0955  0.2444
 2268POPC   NC327469   2.097  23.180   7.800 -0.0986 -0.0535  0.1242
 2268POPC   PO427470   1.974  22.817   7.699  0.4614 -0.1975  0.0860
 2268POPC   GL127471   1.893  22.836   7.351  0.1889 -0.2468 -0.3663
 2268POPC   GL227472   2.168  22.814   7.230  0.0030 -0.0494 -0.0291
 2268POPC   C1A27473   1.636  22.616   7.053  0.1728 -0.0377 -0.0023
 2268POPC   D2A27474   1.541  22.587   6.614  0.0239 -0.3997  0.0324
 2268POPC   C3A27475   1.420  22.419   6.118  0.1374  0.1491 -0.3655
 2268POPC   C4A27476   1.011  22.293   5.896  0.1786  0.0852  0.0776
 2268POPC   C1B27477   2.044  22.447   6.955  0.1453  0.0044  0.0494
 2268POPC   C2B27478   2.115  22.442   6.460 -0.1981 -0.0393 -0.2802
 2268POPC   C3B27479   2.069  22.398   6.034 -0.2390 -0.3116  0.0953
 2268POPC   C4B27480   2.287  22.402   5.615  0.0656  0.1516 -0.0005
 2269POPC   NC327481  14.648   2.173   7.815  0.0824  0.3583  0.0333
 2269POPC   PO427482  14.532   2.509   8.018  0.0908 -0.0966 -0.0326
 2269POPC   GL127483  14.494   2.556   7.639  0.0796  0.0247  0.2373
 2269POPC   GL227484  14.762   2.636   7.615 -0.0862  0.0190 -0.1919
 2269POPC   C1A27485  14.152   2.515   7.310  0.2122 -0.1422 -0.2105
 2269POPC   D2A27486  14.030   2.508   6.834 -0.2616  0.0310 -0.1273
 2269POPC   C3A27487  14.135   2.825   6.546 -0.1594 -0.2287 -0.2399
 2269POPC   C4A27488  14.267   3.124   6.208  0.2476 -0.1220  0.1961
 2269POPC   C1B27489  14.588   2.843   7.220 -0.0025 -0.0148  0.0618
 2269POPC   C2B27490  14.850   3.000   6.866  0.1268 -0.2776 -0.4765
 2269POPC   C3B27491  14.713   3.275   6.503  0.1137 -0.1009 -0.0882
 2269POPC   C4B27492  14.421   3.619   6.421 -0.1180  0.2384 -0.1536
 2270POPC   NC327493  12.537  14.429   7.622 -0.0135 -0.1021  0.1076
 2270POPC   PO427494  12.161  14.274   7.711  0.0678  0.0612  0.0756
 2270POPC   GL127495  12.104  14.159   7.347 -0.3991 -0.0550  0.1735
 2270POPC   GL227496  12.324  14.144   7.148  0.3187 -0.0461 -0.0716
 2270POPC   C1A27497  11.900  14.096   6.941 -0.0453 -0.0949  0.2423
 2270POPC   D2A27498  11.967  14.217   6.491 -0.0375 -0.0769  0.1252
 2270POPC   C3A27499  11.961  14.028   6.106 -0.0077  0.0329  0.0901
 2270POPC   C4A27500  12.176  14.071   5.717  0.1468 -0.0701 -0.0200
 2270POPC   C1B27501  12.332  14.377   6.778  0.0748  0.0053 -0.3125
 2270POPC   C2B27502  12.446  14.496   6.367  0.0075  0.0009  0.0401
 2270POPC   C3B27503  12.473  14.524   5.932 -0.3244  0.0107  0.2530
 2270POPC   C4B27504  12.611  14.740   5.538  0.1991  0.2528 -0.2203
 2271POPC   NC327505   7.952  27.170   7.670 -0.1816  0.1790  0.1008
 2271POPC   PO427506   7.760  27.441   7.840  0.2072  0.0359 -0.2981
 2271POPC   GL127507   7.857  27.608   7.569  0.1348  0.0875  0.0548
 2271POPC   GL227508   7.937  27.851   7.624  0.0184  0.2427 -0.3358
 2271POPC   C1A27509   7.961  27.346   7.196 -0.0648 -0.0635  0.4091
 2271POPC   D2A27510   7.986  27.256   6.720  0.1897 -0.0741  0.1969
 2271POPC   C3A27511   7.839  27.591   6.439  0.0386 -0.0516  0.0560
 2271POPC   C4A27512   7.781  27.930   6.156 -0.2792  0.0344  0.0802
 2271POPC   C1B27513   8.217  27.739   7.278  0.0416 -0.2118  0.3530
 2271POPC   C2B27514   8.660  27.824   7.058 -0.1790 -0.1519  0.0609
 2271POPC   C3B27515   9.025  27.804   6.749  0.1370 -0.0188 -0.3755
 2271POPC   C4B27516   9.114  27.839   6.296  0.0648  0.1029 -0.1853
 2272POPC   NC327517   1.420   6.711   7.590  0.2518  0.0634  0.1760
 2272POPC   PO427518   1.393   7.096   7.523 -0.0417 -0.0986 -0.0573
 2272POPC   GL127519   1.536   7.288   7.249  0.0692 -0.0166  0.2523
 2272POPC   GL227520   1.436   7.563   7.366 -0.0022  0.2169 -0.0888
 2272POPC   C1A27521   1.846   7.533   6.991 -0.1033 -0.0612  0.0911
 2272POPC   D2A27522   2.185   7.426   6.692 -0.3842 -0.1064  0.2846
 2272POPC   C3A27523   2.236   7.254   6.269  0.1809  0.1011 -0.3084
 2272POPC   C4A27524   2.273   7.268   5.819 -0.0682 -0.2413 -0.0784
 2272POPC   C1B27525   1.338   7.726   6.942 -0.1150  0.1797  0.3351
 2272POPC   C2B27526   1.682   7.865   6.652  0.2735 -0.0883 -0.1214
 2272POPC   C3B27527   1.750   7.861   6.209  0.2062  0.0830 -0.0856
 2272POPC   C4B27528   1.901   7.683   5.801 -0.0705  0.1209 -0.0985
 2273POPC   NC327529   3.387   0.416   7.906  0.0038  0.0443 -0.2430
 2273POPC   PO427530   3.147   0.366   8.229  0.1910 -0.0455 -0.0058
 2273POPC   GL127531   2.903   0.198   7.985 -0.0170 -0.4935 -0.0038
 2273POPC   GL227532   2.902   0.392   7.795 -0.3831 -0.2286  0.2099
 2273POPC   C1A27533   2.524   0.072   7.792  0.4538 -0.1699  0.0153
 2273POPC   D2A27534   2.108  -0.017   7.861  0.0263 -0.2475  0.2126
 2273POPC   C3A27535   1.812  -0.090   8.204  0.0028 -0.1510  0.1436
 2273POPC   C4A27536   1.782  -0.521   8.422 -0.1615  0.0536 -0.1057
 2273POPC   C1B27537   2.824   0.146   7.374  0.1362 -0.0870 -0.2030
 2273POPC   C2B27538   2.765   0.067   6.945 -0.0742 -0.0888  0.2235
 2273POPC   C3B27539   2.375   0.105   6.701  0.1156  0.0265  0.1406
 2273POPC   C4B27540   2.190   0.337   6.368  0.2666 -0.2822 -0.0187
 2274POPC   NC327541   8.418  25.080   8.149 -0.1236 -0.1476  0.2988
 2274POPC   PO427542   8.284  25.224   7.818  0.2583  0.0663 -0.0340
 2274POPC   GL127543   8.205  25.348   7.487  0.4802  0.0328 -0.2950
 2274POPC   GL227544   8.015  25.134   7.364  0.1646  0.0718 -0.0364
 2274POPC   C1A27545   8.153  25.559   7.066  0.1169 -0.0000  0.0340
 2274POPC   D2A27546   8.079  25.534   6.629 -0.0323 -0.3457 -0.1857
 2274POPC   C3A27547   8.315  25.202   6.484  0.0453 -0.1196 -0.3459
 2274POPC   C4A27548   8.557  24.939   6.703  0.0663  0.1101 -0.2826
 2274POPC   C1B27549   8.048  25.104   6.885 -0.1458  0.0071 -0.2605
 2274POPC   C2B27550   8.063  24.765   6.554  0.0177  0.1450  0.0611
 2274POPC   C3B27551   8.276  24.442   6.326 -0.2421 -0.2436 -0.0258
 2274POPC   C4B27552   8.641  24.286   6.140 -0.1370 -0.6216  0.0801
 2275POPC   NC327553   0.198  25.823   7.833  0.1856  0.0232  0.3328
 2275POPC   PO427554  -0.111  25.753   8.054 -0.0816 -0.0149 -0.0122
 2275POPC   GL127555  -0.085  25.527   7.674 -0.2829 -0.2084  0.0700
 2275POPC   GL227556  -0.224  25.333   7.761 -0.0425  0.0104 -0.0589
 2275POPC   C1A27557  -0.148  25.522   7.234 -0.1010 -0.1278  0.3013
 2275POPC   D2A27558  -0.351  25.592   6.823  0.0014  0.1129 -0.1879
 2275POPC   C3A27559  -0.460  25.788   6.396  0.2120 -0.1181 -0.0798
 2275POPC   C4A27560  -0.668  25.918   6.019 -0.0117 -0.4385 -0.2936
 2275POPC   C1B27561  -0.603  25.369   7.446 -0.0204 -0.0693 -0.1666
 2275POPC   C2B27562  -0.778  25.294   7.012 -0.0580  0.3106 -0.1693
 2275POPC   C3B27563  -0.676  25.140   6.593 -0.0485 -0.0031  0.0443
 2275POPC   C4B27564  -0.597  24.873   6.247 -0.0424  0.0602 -0.1129
 2276POPC   NC327565   8.270   9.777   7.440  0.1236 -0.0697 -0.1146
 2276POPC   PO427566   8.193   9.431   7.299  0.0569 -0.3416  0.2737
 2276POPC   GL127567   8.410   9.348   7.013 -0.2274 -0.0247  0.3749
 2276POPC   GL227568   8.401   9.147   6.785 -0.0859  0.0059 -0.0935
 2276POPC   C1A27569   8.497   9.594   6.604 -0.1034  0.1030  0.0365
 2276POPC   D2A27570   8.709   9.642   6.215 -0.0208  0.0883  0.0731
 2276POPC   C3A27571   8.649   9.564   5.759 -0.1988 -0.2728  0.0809
 2276POPC   C4A27572   8.650   9.595   5.269  0.2787 -0.1184  0.2274
 2276POPC   C1B27573   8.296   9.024   6.398  0.3059 -0.2036 -0.3306
 2276POPC   C2B27574   8.437   8.960   5.957 -0.1425  0.4778 -0.4018
 2276POPC   C3B27575   8.683   9.092   5.620  0.0846 -0.1803 -0.0473
 2276POPC   C4B27576   9.032   9.349   5.429  0.2267  0.2085  0.1596
 2277POPC   NC327577  10.837  21.260   7.783  0.0351 -0.0923 -0.0478
 2277POPC   PO427578  10.776  21.558   7.538  0.0584  0.3251 -0.3339
 2277POPC   GL127579  10.706  21.500   7.176  0.0550 -0.1038  0.5001
 2277POPC   GL227580  10.482  21.470   7.038  0.1119 -0.0739  0.1171
 2277POPC   C1A27581  10.941  21.660   6.812 -0.1355  0.1065 -0.1878
 2277POPC   D2A27582  11.226  21.804   6.465  0.2216  0.3858  0.1289
 2277POPC   C3A27583  11.259  21.709   6.036 -0.4523  0.0453  0.0100
 2277POPC   C4A27584  11.228  21.312   5.758 -0.0031 -0.1459 -0.0019
 2277POPC   C1B27585  10.535  21.550   6.569 -0.2059 -0.0065  0.1093
 2277POPC   C2B27586  10.736  21.784   6.239  0.1034  0.1693  0.0217
 2277POPC   C3B27587  10.798  21.900   5.735  0.1243 -0.0775  0.3214
 2277POPC   C4B27588  10.864  22.300   5.508  0.0068 -0.0268 -0.1125
 2278POPC   NC327589  11.563  17.834   8.000 -0.1006  0.1157  0.2138
 2278POPC   PO427590  11.283  17.599   7.919  0.4153 -0.0742 -0.0091
 2278POPC   GL127591  11.366  17.555   7.545  0.0941  0.0023  0.3150
 2278POPC   GL227592  11.665  17.622   7.520 -0.3904 -0.0375 -0.0715
 2278POPC   C1A27593  11.161  17.771   7.140 -0.4914 -0.0762  0.1587
 2278POPC   D2A27594  10.911  17.625   6.708  0.1326 -0.0755 -0.0358
 2278POPC   C3A27595  10.586  17.349   6.583 -0.0276  0.2299  0.2677
 2278POPC   C4A27596  10.436  16.951   6.439  0.0200  0.2036 -0.2439
 2278POPC   C1B27597  11.819  17.727   7.094 -0.0379 -0.4811 -0.2481
 2278POPC   C2B27598  11.872  17.519   6.673  0.3303  0.1527 -0.0266
 2278POPC   C3B27599  11.852  17.283   6.246  0.2381  0.0032  0.0132
 2278POPC   C4B27600  11.627  17.334   5.853 -0.1208 -0.1004 -0.0080
 2279POPC   NC327601   2.447  23.489   7.597 -0.0609  0.1255  0.3640
 2279POPC   PO427602   2.331  23.844   7.455 -0.0170 -0.2401  0.2944
 2279POPC   GL127603   2.150  23.904   7.023 -0.0109  0.2511 -0.0182
 2279POPC   GL227604   1.831  23.791   6.990 -0.1226 -0.0906 -0.0747
 2279POPC   C1A27605   2.114  23.719   6.588  0.1433  0.2274  0.2568
 2279POPC   D2A27606   1.989  23.751   6.120  0.1886  0.1462  0.0255
 2279POPC   C3A27607   1.586  23.831   5.904  0.1991 -0.1133  0.2908
 2279POPC   C4A27608   1.218  23.889   6.210 -0.2218  0.2118  0.0621
 2279POPC   C1B27609   1.464  23.527   6.929 -0.1067  0.1933  0.0780
 2279POPC   C2B27610   1.214  23.478   6.541 -0.2084 -0.3988  0.1581
 2279POPC   C3B27611   0.953  23.471   6.163  0.1011 -0.0615  0.1665
 2279POPC   C4B27612   1.049  23.335   5.734 -0.4129 -0.3512 -0.2947
 2280POPC   NC327613   4.464  13.163   7.702 -0.0572  0.2984  0.4145
 2280POPC   PO427614   4.677  13.395   7.484  0.1510 -0.2941  0.2042
 2280POPC   GL127615   4.840  13.472   7.141 -0.1682 -0.0267  0.2886
 2280POPC   GL227616   5.100  13.287   7.103 -0.2426  0.0969 -0.3219
 2280POPC   C1A27617   4.935  13.576   6.677 -0.0259  0.1629 -0.0309
 2280POPC   D2A27618   5.072  13.420   6.261  0.0601  0.1115  0.1064
 2280POPC   C3A27619   4.797  13.346   5.869 -0.2156  0.0427  0.0663
 2280POPC   C4A27620   4.486  13.099   5.630  0.0420 -0.0724 -0.0099
 2280POPC   C1B27621   5.356  13.304   6.672  0.0898 -0.0534 -0.2133
 2280POPC   C2B27622   5.533  13.107   6.277  0.2352  0.1085 -0.1683
 2280POPC   C3B27623   5.739  12.718   6.059 -0.1756 -0.0924 -0.0197
 2280POPC   C4B27624   5.775  12.337   5.771  0.1869  0.0237  0.0963
 2281POPC   NC327625  14.831  31.402   7.655  0.3230  0.0389 -0.2062
 2281POPC   PO427626  15.124  31.266   7.425  0.0892  0.1166  0.0957
 2281POPC   GL127627  14.861  31.147   7.129 -0.1630  0.2087 -0.2857
 2281POPC   GL227628  14.639  31.042   7.298  0.2311 -0.0961  0.0037
 2281POPC   C1A27629  14.784  31.213   6.663 -0.0612  0.0951  0.1924
 2281POPC   D2A27630  14.508  31.261   6.285  0.0668  0.1322 -0.1104
 2281POPC   C3A27631  14.477  31.431   5.862 -0.2476 -0.1849 -0.0972
 2281POPC   C4A27632  14.617  31.675   5.472  0.0151 -0.1267  0.3532
 2281POPC   C1B27633  14.445  31.292   6.990 -0.0582  0.2496 -0.1755
 2281POPC   C2B27634  14.184  31.542   6.735 -0.3692 -0.1091  0.3389
 2281POPC   C3B27635  14.189  31.707   6.297  0.2167  0.0289 -0.0261
 2281POPC   C4B27636  14.032  31.793   5.871 -0.2655  0.0166 -0.0160
 2282POPC   NC327637   8.529  10.018   7.817 -0.2125  0.1055  0.0793
 2282POPC   PO427638   8.794   9.848   7.510 -0.1857  0.1216  0.0648
 2282POPC   GL127639   8.859   9.882   7.157 -0.0501  0.1208  0.0416
 2282POPC   GL227640   8.620   9.795   7.056 -0.0497 -0.0777 -0.3055
 2282POPC   C1A27641   9.176   9.975   6.827 -0.0653  0.3280  0.1820
 2282POPC   D2A27642   9.152  10.102   6.338 -0.1754  0.0490 -0.0122
 2282POPC   C3A27643   9.226   9.760   6.022 -0.2076  0.1349  0.0070
 2282POPC   C4A27644   9.046   9.303   5.940  0.0078 -0.0769 -0.1135
 2282POPC   C1B27645   8.726  10.027   6.651 -0.0992 -0.1746  0.2438
 2282POPC   C2B27646   8.690  10.158   6.224 -0.1078 -0.0380  0.0988
 2282POPC   C3B27647   8.615  10.052   5.792  0.4218  0.1270  0.2021
 2282POPC   C4B27648   8.966   9.858   5.541 -0.0913  0.2733 -0.0880
 2283POPC   NC327649  12.146  21.198   7.032 -0.2476 -0.0740  0.1351
 2283POPC   PO427650  12.230  21.323   7.419  0.0497 -0.1157 -0.1884
 2283POPC   GL127651  12.546  21.455   7.150  0.1277 -0.3489  0.3294
 2283POPC   GL227652  12.290  21.737   7.055 -0.3537 -0.4182  0.0104
 2283POPC   C1A27653  12.687  21.687   6.737 -0.0779  0.0194  0.1437
 2283POPC   D2A27654  12.586  21.868   6.322  0.3953 -0.1571 -0.0816
 2283POPC   C3A27655  12.642  21.839   5.906  0.1649  0.0082 -0.2920
 2283POPC   C4A27656  12.572  21.930   5.473 -0.1830  0.0228  0.2097
 2283POPC   C1B27657  12.113  21.606   6.611  0.1759  0.0409  0.0621
 2283POPC   C2B27658  12.067  21.578   6.123 -0.0222  0.0878 -0.5044
 2283POPC   C3B27659  12.213  21.470   5.693  0.1802  0.1875 -0.0006
 2283POPC   C4B27660  12.112  21.243   5.251  0.2831 -0.0130 -0.0970
 2284POPC   NC327661  12.828  18.629   7.341 -0.1639 -0.0587 -0.1338
 2284POPC   PO427662  13.077  18.895   7.489  0.0832  0.0390  0.0200
 2284POPC   GL127663  13.016  18.976   7.070  0.0463 -0.2367 -0.0270
 2284POPC   GL227664  13.162  19.233   6.999 -0.0830  0.2018  0.1933
 2284POPC   C1A27665  13.126  18.780   6.644 -0.0247  0.0606 -0.5157
 2284POPC   D2A27666  13.378  18.575   6.246  0.2788 -0.2635  0.0710
 2284POPC   C3A27667  13.366  18.760   5.784  0.1164 -0.4287  0.2557
 2284POPC   C4A27668  13.020  18.924   5.508  0.3256  0.0240  0.3060
 2284POPC   C1B27669  13.331  19.400   6.579  0.0906  0.0201  0.0796
 2284POPC   C2B27670  13.274  19.611   6.209 -0.2496  0.1613  0.2326
 2284POPC   C3B27671  13.355  19.878   5.872  0.2158 -0.0165 -0.2149
 2284POPC   C4B27672  13.505  20.035   5.442 -0.0822 -0.0695 -0.0638
 2285POPC   NC327673   6.276   8.967   7.945  0.1391  0.0973 -0.0207
 2285POPC   PO427674   5.956   8.817   7.831 -0.2230  0.0015 -0.0859
 2285POPC   GL127675   5.814   9.010   7.514 -0.2766 -0.1522 -0.1507
 2285POPC   GL227676   5.762   9.270   7.437  0.2720  0.0538  0.1416
 2285POPC   C1A27677   5.840   8.937   7.053  0.3046 -0.2751 -0.0459
 2285POPC   D2A27678   6.112   9.046   6.720 -0.1105  0.0847  0.0673
 2285POPC   C3A27679   6.495   9.094   6.534 -0.1674  0.0531  0.0749
 2285POPC   C4A27680   6.983   9.124   6.351 -0.3946  0.2040  0.1316
 2285POPC   C1B27681   5.919   9.449   6.983 -0.2302  0.2189 -0.0389
 2285POPC   C2B27682   5.776   9.640   6.663  0.1398  0.0575  0.0382
 2285POPC   C3B27683   5.459   9.759   6.264  0.0132  0.2461 -0.1361
 2285POPC   C4B27684   5.119  10.053   6.097  0.0571 -0.0563 -0.2900
 2286POPC   NC327685   5.371  25.688   7.962 -0.1727  0.2353  0.2671
 2286POPC   PO427686   5.502  26.075   7.921  0.1877  0.1526 -0.1060
 2286POPC   GL127687   5.593  26.169   7.492 -0.3254  0.5101  0.3002
 2286POPC   GL227688   5.614  26.451   7.593 -0.1126 -0.1794 -0.1225
 2286POPC   C1A27689   5.652  25.995   7.100 -0.0958  0.2954  0.0253
 2286POPC   D2A27690   5.690  26.037   6.602  0.3232  0.0745 -0.2488
 2286POPC   C3A27691   6.059  25.715   6.505  0.0167 -0.0217  0.0642
 2286POPC   C4A27692   6.147  25.568   6.055 -0.0136 -0.0793 -0.1457
 2286POPC   C1B27693   5.435  26.409   7.141 -0.0283  0.0563 -0.3019
 2286POPC   C2B27694   5.202  26.083   6.910  0.0082 -0.0241  0.0719
 2286POPC   C3B27695   5.075  25.708   6.592  0.1324  0.0653 -0.1301
 2286POPC   C4B27696   4.991  25.584   6.096  0.1681  0.1831 -0.1017
 2287POPC   NC327697   9.781   2.416   7.132 -0.2234 -0.1393 -0.0247
 2287POPC   PO427698  10.027   2.314   7.433  0.2404  0.4738 -0.2627
 2287POPC   GL127699  10.139   2.160   7.087 -0.1300  0.2403 -0.3197
 2287POPC   GL227700  10.348   2.400   7.048 -0.0296  0.2343 -0.0173
 2287POPC   C1A27701  10.057   2.253   6.644  0.0204 -0.0376 -0.2081
 2287POPC   D2A27702  10.152   2.129   6.201  0.1475 -0.0985 -0.2698
 2287POPC   C3A27703  10.654   2.120   6.120  0.1659 -0.2658 -0.0142
 2287POPC   C4A27704  11.070   1.960   6.242  0.2406  0.1678 -0.0507
 2287POPC   C1B27705  10.278   2.691   6.654 -0.2779 -0.2050  0.2061
 2287POPC   C2B27706  10.268   2.633   6.181 -0.3888 -0.1140 -0.0299
 2287POPC   C3B27707  10.415   2.459   5.684  0.1265  0.1604  0.0883
 2287POPC   C4B27708  10.224   2.198   5.363  0.0496  0.0221  0.1305
 2288POPC   NC327709   5.142   6.163   7.810  0.1416  0.0181  0.2045
 2288POPC   PO427710   4.785   6.024   7.867 -0.2813  0.1598  0.2480
 2288POPC   GL127711   4.580   6.134   7.410 -0.0440  0.0552 -0.0726
 2288POPC   GL227712   4.722   5.843   7.346  0.0649  0.3587  0.0696
 2288POPC   C1A27713   4.502   6.091   6.955  0.0661  0.0471  0.0160
 2288POPC   D2A27714   4.524   6.152   6.499  0.0160 -0.1492 -0.1348
 2288POPC   C3A27715   4.870   6.438   6.238  0.2924 -0.1458  0.0726
 2288POPC   C4A27716   5.134   6.737   5.990 -0.5780  0.1447 -0.1845
 2288POPC   C1B27717   4.792   5.602   6.938 -0.0489 -0.1450 -0.2264
 2288POPC   C2B27718   4.714   5.334   6.549  0.0075 -0.2814  0.0120
 2288POPC   C3B27719   4.968   5.430   6.190 -0.2506  0.0127  0.0120
 2288POPC   C4B27720   4.982   5.656   5.810  0.0911  0.2331  0.1309
 2289POPC   NC327721  10.164   0.777   7.835  0.1176  0.0823 -0.3446
 2289POPC   PO427722   9.956   1.072   7.719  0.0730  0.0824  0.0778
 2289POPC   GL127723   9.924   1.046   7.377  0.1737  0.1537  0.1609
 2289POPC   GL227724   9.824   0.818   7.235 -0.0233  0.0526 -0.3764
 2289POPC   C1A27725  10.166   1.083   6.992 -0.1798  0.3676 -0.0698
 2289POPC   D2A27726  10.415   1.396   6.730  0.0298  0.1296  0.1932
 2289POPC   C3A27727  10.861   1.428   6.706 -0.1166  0.0269  0.0186
 2289POPC   C4A27728  11.231   1.458   6.402  0.2192 -0.0901  0.0751
 2289POPC   C1B27729   9.729   0.879   6.757  0.2614 -0.0827  0.0802
 2289POPC   C2B27730   9.579   0.995   6.281 -0.0001  0.0055 -0.2143
 2289POPC   C3B27731   9.420   1.223   5.942  0.0585 -0.3535 -0.1173
 2289POPC   C4B27732   9.383   1.667   5.783 -0.2717 -0.0086  0.2150
 2290POPC   NC327733   2.008  11.702   7.574 -0.1319 -0.4751 -0.4416
 2290POPC   PO427734   1.639  11.618   7.721  0.0133 -0.1743  0.4055
 2290POPC   GL127735   1.510  11.691   7.349 -0.0792 -0.1538 -0.2963
 2290POPC   GL227736   1.697  11.842   7.203 -0.0071 -0.0851 -0.2227
 2290POPC   C1A27737   1.401  11.359   7.019 -0.5830  0.4119  0.1626
 2290POPC   D2A27738   1.427  11.227   6.564 -0.2823 -0.0694  0.3733
 2290POPC   C3A27739   1.455  11.427   6.186  0.0684  0.1922  0.0738
 2290POPC   C4A27740   1.316  11.709   5.867  0.1610 -0.1898  0.0787
 2290POPC   C1B27741   1.876  11.873   6.808  0.1323  0.1882  0.1566
 2290POPC   C2B27742   1.874  11.545   6.518  0.2375 -0.1480 -0.1151
 2290POPC   C3B27743   1.862  11.165   6.283  0.1010  0.0027  0.1130
 2290POPC   C4B27744   2.096  11.036   5.948 -0.1075 -0.1513  0.1833
 2291POPC   NC327745   9.255  30.829   7.722  0.0948  0.0831  0.0053
 2291POPC   PO427746   9.540  31.000   7.885 -0.2409 -0.2076 -0.0797
 2291POPC   GL127747   9.776  31.005   7.515  0.1142 -0.1525  0.1948
 2291POPC   GL227748   9.708  31.220   7.288 -0.0433  0.3075 -0.1349
 2291POPC   C1A27749   9.544  30.692   7.232 -0.1059  0.0217 -0.2369
 2291POPC   D2A27750   9.373  30.474   6.866  0.2075  0.3559 -0.1048
 2291POPC   C3A27751   9.667  30.287   6.560 -0.1411 -0.3653 -0.0160
 2291POPC   C4A27752   9.637  29.917   6.278 -0.2748 -0.1992  0.1070
 2291POPC   C1B27753   9.813  31.156   6.806  0.3447 -0.0729 -0.1705
 2291POPC   C2B27754   9.623  31.263   6.432  0.0607  0.0003  0.1873
 2291POPC   C3B27755   9.722  31.271   5.943  0.0082 -0.0876 -0.2120
 2291POPC   C4B27756   9.570  31.023   5.588 -0.0502 -0.0894 -0.1627
 2292POPC   NC327757   2.437  15.990   7.519 -0.1651  0.2664  0.1157
 2292POPC   PO427758   2.827  15.863   7.552  0.1567 -0.0431 -0.1314
 2292POPC   GL127759   2.901  15.998   7.201  0.0379 -0.0304  0.0374
 2292POPC   GL227760   2.703  16.241   7.170  0.0523 -0.1945  0.1194
 2292POPC   C1A27761   2.728  15.913   6.767  0.2122 -0.0830  0.0441
 2292POPC   D2A27762   2.559  15.826   6.379  0.0560 -0.3458 -0.0868
 2292POPC   C3A27763   2.635  16.225   6.104 -0.1718  0.2002  0.0136
 2292POPC   C4A27764   2.680  16.459   5.740 -0.0052  0.5479  0.1841
 2292POPC   C1B27765   2.935  16.369   6.755 -0.1013 -0.7375 -0.1256
 2292POPC   C2B27766   2.892  16.646   6.343 -0.0035  0.0336 -0.0322
 2292POPC   C3B27767   3.182  16.782   6.059 -0.0195 -0.1448  0.3660
 2292POPC   C4B27768   3.464  17.150   5.938  0.0537 -0.2471  0.2894
 2293POPC   NC327769   0.469  31.549   8.200 -0.1934 -0.2033  0.0945
 2293POPC   PO427770   0.106  31.577   7.995  0.1001  0.1902  0.0214
 2293POPC   GL127771   0.156  31.553   7.531  0.0054 -0.1064  0.2411
 2293POPC   GL227772   0.142  31.833   7.441 -0.1332 -0.1083  0.1558
 2293POPC   C1A27773   0.209  31.153   7.274  0.0974 -0.0615  0.0419
 2293POPC   D2A27774   0.104  30.681   7.184 -0.0573 -0.3187  0.1833
 2293POPC   C3A27775  -0.089  30.575   6.740  0.2185  0.5724  0.3150
 2293POPC   C4A27776  -0.054  30.493   6.281  0.0511  0.1062  0.0982
 2293POPC   C1B27777   0.267  31.572   7.047  0.3122 -0.1965 -0.0876
 2293POPC   C2B27778   0.146  31.443   6.576 -0.2036  0.1127 -0.0245
 2293POPC   C3B27779   0.172  31.558   6.117  0.1190 -0.0082  0.1387
 2293POPC   C4B27780   0.476  31.774   5.838 -0.2155  0.1023 -0.0726
 2294POPC   NC327781  13.672   7.174   8.183  0.2504 -0.0182  0.3004
 2294POPC   PO427782  13.437   7.376   7.924  0.0532  0.0938  0.1863
 2294POPC   GL127783  13.378   7.472   7.508 -0.3244 -0.1262 -0.1766
 2294POPC   GL227784  13.132   7.308   7.466  0.3151 -0.3680 -0.0111
 2294POPC   C1A27785  13.492   7.804   7.137  0.1294  0.2804 -0.0493
 2294POPC   D2A27786  13.284   7.791   6.709 -0.1362 -0.0963  0.1784
 2294POPC   C3A27787  13.573   7.872   6.362 -0.2384 -0.0935  0.0325
 2294POPC   C4A27788  13.506   8.306   6.147 -0.2782  0.3292  0.1480
 2294POPC   C1B27789  13.115   7.355   7.017 -0.3807 -0.1515 -0.0046
 2294POPC   C2B27790  13.005   7.113   6.522 -0.0445 -0.1264 -0.1219
 2294POPC   C3B27791  12.749   6.795   6.286 -0.2372  0.0895  0.2627
 2294POPC   C4B27792  12.299   6.857   6.211  0.0178  0.2878 -0.1253
 2295POPC   NC327793   6.621  30.400   7.953  0.1009  0.0623  0.0616
 2295POPC   PO427794   6.409  30.591   7.645  0.0769 -0.0917  0.0490
 2295POPC   GL127795   6.498  30.452   7.318 -0.0792 -0.0855 -0.0787
 2295POPC   GL227796   6.731  30.251   7.414  0.0195 -0.1378 -0.1119
 2295POPC   C1A27797   6.244  30.389   6.939 -0.0200  0.0616  0.1031
 2295POPC   D2A27798   6.044  30.610   6.643  0.3210 -0.2540 -0.1818
 2295POPC   C3A27799   5.955  30.622   6.170 -0.1736  0.0057 -0.3680
 2295POPC   C4A27800   6.008  30.500   5.725 -0.0106 -0.1275  0.2890
 2295POPC   C1B27801   6.619  30.019   6.988 -0.0733  0.1572  0.0337
 2295POPC   C2B27802   6.618  29.873   6.517 -0.2388 -0.3774 -0.2249
 2295POPC   C3B27803   6.457  29.779   6.109 -0.3121 -0.0935  0.0976
 2295POPC   C4B27804   6.393  29.797   5.647 -0.2990  0.0385 -0.1437
 2296POPC   NC327805   8.773   4.826   7.595  0.0454  0.2330  0.1239
 2296POPC   PO427806   8.568   5.140   7.568  0.1467 -0.2598  0.0530
 2296POPC   GL127807   8.786   5.167   7.230  0.2507  0.1782  0.1072
 2296POPC   GL227808   8.636   5.068   7.084 -0.0538  0.0727  0.4186
 2296POPC   C1A27809   9.225   5.037   7.064 -0.2812  0.0353  0.0284
 2296POPC   D2A27810   9.625   5.019   6.877 -0.1579  0.2342 -0.1094
 2296POPC   C3A27811   9.521   4.982   6.427  0.2917  0.0698  0.0603
 2296POPC   C4A27812   9.549   5.011   6.002  0.1025 -0.0809  0.0316
 2296POPC   C1B27813   8.300   5.132   6.755  0.2613  0.1451  0.0556
 2296POPC   C2B27814   8.320   5.367   6.335  0.1074  0.1410 -0.1740
 2296POPC   C3B27815   8.711   5.599   6.177  0.3881  0.0562 -0.4249
 2296POPC   C4B27816   9.185   5.509   6.153 -0.1121 -0.3546 -0.3268
 2297POPC   NC327817   0.051  27.598   7.738  0.0133 -0.0687 -0.4691
 2297POPC   PO427818   0.023  27.330   8.007 -0.0700  0.2538  0.0794
 2297POPC   GL127819  -0.129  27.109   7.725 -0.0661  0.2956 -0.0202
 2297POPC   GL227820  -0.354  27.208   7.502 -0.1575  0.2751  0.0188
 2297POPC   C1A27821  -0.164  26.736   7.421 -0.2154  0.0679 -0.0229
 2297POPC   D2A27822  -0.308  26.564   7.024  0.0446  0.0219 -0.1002
 2297POPC   C3A27823   0.063  26.382   6.755  0.0009  0.3807 -0.1576
 2297POPC   C4A27824   0.375  26.262   6.404 -0.0818 -0.0262  0.0828
 2297POPC   C1B27825  -0.402  27.056   7.059 -0.4092 -0.0159 -0.4432
 2297POPC   C2B27826  -0.238  26.908   6.603  0.0327 -0.2578  0.0697
 2297POPC   C3B27827   0.042  26.725   6.261 -0.0530  0.1599 -0.0264
 2297POPC   C4B27828   0.400  26.569   5.969  0.3280 -0.0755  0.0815
 2298POPC   NC327829   1.822   5.508   7.656  0.1563 -0.1757 -0.0590
 2298POPC   PO427830   2.215   5.634   7.646  0.2960 -0.1277 -0.0811
 2298POPC   GL127831   2.296   5.553   7.209 -0.1244  0.2315 -0.4172
 2298POPC   GL227832   2.502   5.368   7.165  0.0349 -0.2366  0.1371
 2298POPC   C1A27833   2.117   5.563   6.797  0.2874 -0.0665  0.0124
 2298POPC   D2A27834   1.989   5.416   6.338  0.0999 -0.0806 -0.1129
 2298POPC   C3A27835   2.208   5.139   6.031  0.2979 -0.3069  0.1113
 2298POPC   C4A27836   2.121   4.803   5.692  0.1447  0.0172  0.0610
 2298POPC   C1B27837   2.524   4.977   6.970 -0.0430 -0.0082  0.2214
 2298POPC   C2B27838   2.761   4.792   6.584 -0.0477  0.1887  0.2826
 2298POPC   C3B27839   3.236   4.932   6.476 -0.0070  0.0349 -0.0684
 2298POPC   C4B27840   3.625   4.962   6.685 -0.0953 -0.2405 -0.2876
 2299POPC   NC327841   4.375   3.345   8.007 -0.1843 -0.1557 -0.1056
 2299POPC   PO427842   4.180   2.996   8.003  0.0523 -0.0935  0.1312
 2299POPC   GL127843   4.253   3.011   7.562  0.0351  0.0021  0.3541
 2299POPC   GL227844   4.256   2.747   7.480  0.1097 -0.3623 -0.1264
 2299POPC   C1A27845   3.972   3.118   7.224 -0.0857 -0.2359  0.0180
 2299POPC   D2A27846   3.896   3.547   6.933 -0.1786  0.0398 -0.0052
 2299POPC   C3A27847   3.879   3.490   6.469  0.0167 -0.0187  0.0880
 2299POPC   C4A27848   4.042   3.746   6.077  0.0142 -0.0043  0.0480
 2299POPC   C1B27849   4.476   2.935   7.082  0.1334  0.3962 -0.1823
 2299POPC   C2B27850   4.651   3.031   6.652 -0.1271  0.1006 -0.0275
 2299POPC   C3B27851   4.704   3.335   6.329 -0.0874  0.0026  0.2619
 2299POPC   C4B27852   5.004   3.485   6.019 -0.0426 -0.1601 -0.1473
 2300POPC   NC327853   5.515   1.160   7.721 -0.3970 -0.0853 -0.0707
 2300POPC   PO427854   5.859   1.325   7.774  0.4066 -0.3186  0.2004
 2300POPC   GL127855   5.856   1.197   7.391  0.0562  0.4283  0.3260
 2300POPC   GL227856   6.193   1.216   7.331  0.1567  0.3675  0.1013
 2300POPC   C1A27857   5.876   1.147   6.921  0.0015  0.1219 -0.1110
 2300POPC   D2A27858   5.733   1.069   6.469 -0.2803 -0.2476 -0.2858
 2300POPC   C3A27859   5.695   0.956   5.997  0.1704 -0.0048  0.3698
 2300POPC   C4A27860   5.418   0.965   5.663  0.1850 -0.0387  0.0552
 2300POPC   C1B27861   6.284   1.441   6.978  0.0617  0.1238 -0.0031
 2300POPC   C2B27862   6.150   1.469   6.534  0.0118 -0.0809 -0.0096
 2300POPC   C3B27863   5.922   1.386   6.151  0.1714 -0.0828 -0.1192
 2300POPC   C4B27864   6.031   1.244   5.725 -0.0450  0.0093 -0.0755
 2301POPC   NC327865   9.052   0.388   7.464 -0.0627 -0.1358  0.2566
 2301POPC   PO427866   9.214   0.768   7.363 -0.3881 -0.2304 -0.0606
 2301POPC   GL127867   9.202   0.658   6.972 -0.0806 -0.1398 -0.2070
 2301POPC   GL227868   9.420   0.457   6.949  0.0787  0.0638  0.3144
 2301POPC   C1A27869   8.896   0.541   6.644 -0.0317  0.1113  0.1374
 2301POPC   D2A27870   8.803   0.579   6.200  0.2657 -0.1288  0.0217
 2301POPC   C3A27871   8.887   0.280   5.837 -0.1829  0.3396 -0.2059
 2301POPC   C4A27872   8.907   0.046   5.484 -0.0682  0.1521  0.0937
 2301POPC   C1B27873   9.361   0.580   6.519  0.2133 -0.4551 -0.0263
 2301POPC   C2B27874   9.350   0.584   6.139  0.1675  0.1299 -0.0556
 2301POPC   C3B27875   9.466   0.348   5.739  0.0699  0.2615 -0.1113
 2301POPC   C4B27876   9.830   0.059   5.633  0.1207 -0.0281 -0.2878
 2302POPC   NC327877   0.903  15.175   7.497 -0.0843 -0.2801 -0.2494
 2302POPC   PO427878   1.266  15.268   7.407 -0.0858 -0.0701 -0.3906
 2302POPC   GL127879   1.088  15.477   7.155 -0.4461 -0.2789  0.0817
 2302POPC   GL227880   1.059  15.173   6.919 -0.0749  0.1277 -0.1061
 2302POPC   C1A27881   1.168  15.644   6.711  0.1481  0.0341  0.3126
 2302POPC   D2A27882   1.498  15.858   6.413 -0.5166  0.0011  0.0391
 2302POPC   C3A27883   1.429  15.555   6.073  0.0869 -0.0182  0.2506
 2302POPC   C4A27884   1.367  15.138   5.960 -0.1114  0.4170  0.1283
 2302POPC   C1B27885   0.758  15.428   6.666  0.0415 -0.2630 -0.2256
 2302POPC   C2B27886   0.500  15.751   6.383  0.3373  0.1631  0.1503
 2302POPC   C3B27887   0.178  15.787   6.060  0.0643 -0.1846 -0.1832
 2302POPC   C4B27888  -0.214  15.602   5.848 -0.1361  0.2211 -0.2382
 2303POPC   NC327889   3.119  11.749   7.840 -0.0007 -0.2091 -0.2367
 2303POPC   PO427890   3.021  11.362   7.780 -0.1324  0.2214  0.0647
 2303POPC   GL127891   3.142  11.416   7.379 -0.0750  0.0044  0.1660
 2303POPC   GL227892   3.003  11.120   7.261 -0.0664 -0.0153 -0.1094
 2303POPC   C1A27893   3.187  11.862   7.190  0.0425  0.1702  0.0489
 2303POPC   D2A27894   3.279  12.102   6.770  0.2166  0.2089 -0.1660
 2303POPC   C3A27895   3.334  11.764   6.494  0.2319  0.2289  0.1683
 2303POPC   C4A27896   3.301  11.625   6.118 -0.2153 -0.1783 -0.2646
 2303POPC   C1B27897   3.235  10.967   6.877  0.0626  0.0444 -0.4073
 2303POPC   C2B27898   3.167  10.878   6.463  0.2772  0.1014  0.1609
 2303POPC   C3B27899   2.998  10.991   6.060 -0.1156  0.4175  0.0762
 2303POPC   C4B27900   2.981  10.902   5.574 -0.0375  0.0216  0.0803
 2304POPC   NC327901  15.019  26.247   8.334 -0.0381 -0.2553 -0.1492
 2304POPC   PO427902  15.040  26.131   7.970  0.0271  0.1298  0.1114
 2304POPC   GL127903  15.146  26.231   7.586  0.2030  0.0266  0.2051
 2304POPC   GL227904  15.200  26.545   7.551 -0.1236  0.0761 -0.2249
 2304POPC   C1A27905  15.539  26.246   7.354 -0.0129 -0.0137  0.3222
 2304POPC   D2A27906  15.985  26.066   7.362 -0.1432  0.0009  0.0593
 2304POPC   C3A27907  16.231  26.371   7.123 -0.1658  0.2066 -0.2535
 2304POPC   C4A27908  16.472  26.713   7.350  0.2752  0.1746 -0.0120
 2304POPC   C1B27909  14.946  26.315   7.202  0.1347  0.0597  0.0249
 2304POPC   C2B27910  14.904  26.173   6.802 -0.2993 -0.3050 -0.0966
 2304POPC   C3B27911  14.994  26.114   6.381 -0.4256  0.1943 -0.0872
 2304POPC   C4B27912  15.019  26.354   5.942  0.0692  0.0017 -0.0204
 2305POPC   NC327913  14.395   7.688   8.115  0.0876 -0.2019  0.0218
 2305POPC   PO427914  14.613   7.432   7.923  0.0987  0.2554  0.0347
 2305POPC   GL127915  14.749   7.294   7.603  0.2254 -0.0652  0.2022
 2305POPC   GL227916  14.751   7.063   7.522 -0.1598  0.4983  0.1870
 2305POPC   C1A27917  14.575   7.307   7.154  0.0421  0.0658 -0.2134
 2305POPC   D2A27918  14.545   7.349   6.679 -0.0750  0.0317  0.0405
 2305POPC   C3A27919  14.621   6.875   6.554 -0.1026 -0.0159 -0.0700
 2305POPC   C4A27920  14.302   6.599   6.880 -0.0645 -0.0601  0.0280
 2305POPC   C1B27921  14.736   6.822   7.184  0.2422 -0.1500  0.5580
 2305POPC   C2B27922  14.779   6.483   6.851 -0.3501 -0.3032 -0.0334
 2305POPC   C3B27923  14.876   6.370   6.404  0.1808  0.0968 -0.0110
 2305POPC   C4B27924  14.889   6.206   6.036 -0.1875 -0.1297 -0.2870
 2306POPC   NC327925  11.848   6.727   7.692  0.0746 -0.0158 -0.0053
 2306POPC   PO427926  12.202   6.793   7.749 -0.3430  0.1544  0.1004
 2306POPC   GL127927  12.367   6.853   7.466 -0.3344  0.3513  0.0893
 2306POPC   GL227928  12.689   6.934   7.523 -0.0443  0.1367 -0.1752
 2306POPC   C1A27929  12.605   6.602   7.135 -0.2722  0.0747 -0.0924
 2306POPC   D2A27930  12.892   6.680   6.750 -0.0824  0.0736 -0.2477
 2306POPC   C3A27931  12.927   6.335   6.426  0.2947 -0.0463  0.2173
 2306POPC   C4A27932  12.725   6.403   6.003 -0.5480 -0.0714 -0.0818
 2306POPC   C1B27933  13.042   6.846   7.270  0.0605  0.0341 -0.0827
 2306POPC   C2B27934  13.378   6.909   6.936  0.1565  0.2365 -0.2773
 2306POPC   C3B27935  13.714   6.714   6.664  0.0233  0.0278 -0.3110
 2306POPC   C4B27936  13.909   6.467   6.295  0.1412  0.3589  0.1344
 2307POPC   NC327937   6.838   7.934   7.643 -0.0788  0.0042  0.0476
 2307POPC   PO427938   6.493   7.967   7.485 -0.1116  0.0142 -0.2510
 2307POPC   GL127939   6.228   8.108   7.124 -0.2102  0.1618  0.2921
 2307POPC   GL227940   6.343   8.316   7.049 -0.2205  0.1952 -0.0354
 2307POPC   C1A27941   6.119   8.051   6.630  0.4403  0.2445  0.2428
 2307POPC   D2A27942   5.952   7.661   6.459 -0.2825 -0.0286 -0.2573
 2307POPC   C3A27943   5.876   7.484   6.034  0.0687  0.0802  0.0690
 2307POPC   C4A27944   5.649   7.405   5.635  0.2255  0.0571 -0.1754
 2307POPC   C1B27945   5.942   8.446   6.851  0.1971  0.0374  0.1657
 2307POPC   C2B27946   5.810   8.708   6.504  0.1556 -0.1495 -0.2939
 2307POPC   C3B27947   5.668   8.914   6.087  0.1062 -0.0172  0.5106
 2307POPC   C4B27948   5.598   9.346   5.904 -0.2201  0.1641  0.0666
 2308POPC   NC327949   3.479  23.876   7.084 -0.0868  0.0311 -0.1681
 2308POPC   PO427950   3.605  24.199   6.963  0.1077 -0.0055 -0.2208
 2308POPC   GL127951   3.968  23.984   6.812  0.3167 -0.2654 -0.3173
 2308POPC   GL227952   4.202  24.070   7.033  0.4877 -0.0722 -0.1254
 2308POPC   C1A27953   3.978  23.671   6.540 -0.0881 -0.0673  0.2686
 2308POPC   D2A27954   4.295  23.584   6.213  0.2758 -0.0619  0.2067
 2308POPC   C3A27955   4.244  23.612   5.690 -0.2429 -0.1315  0.2212
 2308POPC   C4A27956   4.484  23.483   5.381 -0.2743  0.0970 -0.3107
 2308POPC   C1B27957   4.467  24.095   6.673  0.0180  0.1034  0.3707
 2308POPC   C2B27958   4.572  23.974   6.177  0.0172  0.3264  0.0040
 2308POPC   C3B27959   4.627  24.001   5.692  0.2185 -0.0201  0.1037
 2308POPC   C4B27960   4.321  23.940   5.292 -0.1520 -0.1509  0.1710
 2309POPC   NC327961   8.664  31.357   7.664  0.0987 -0.1486 -0.1481
 2309POPC   PO427962   9.009  31.290   7.744 -0.5458  0.1124  0.1781
 2309POPC   GL127963   8.934  31.106   7.369 -0.4712  0.0397  0.0636
 2309POPC   GL227964   9.202  31.119   7.273  0.0142 -0.1098 -0.4880
 2309POPC   C1A27965   8.505  30.938   7.261 -0.2951  0.2073 -0.0613
 2309POPC   D2A27966   8.403  30.787   6.833  0.1353  0.1327  0.0387
 2309POPC   C3A27967   8.469  31.050   6.452  0.1058 -0.0387  0.2487
 2309POPC   C4A27968   8.692  31.129   6.056  0.0449  0.2317  0.0772
 2309POPC   C1B27969   9.327  31.030   6.889  0.2904  0.0391  0.2550
 2309POPC   C2B27970   9.419  30.780   6.531  0.0130 -0.0892 -0.1922
 2309POPC   C3B27971   9.399  30.551   6.140 -0.0182  0.1750  0.0749
 2309POPC   C4B27972   9.170  30.293   5.920 -0.0204 -0.3064 -0.1915
 2310POPC   NC327973   7.503  20.346   7.681  0.0303  0.1717 -0.0801
 2310POPC   PO427974   7.680  20.610   7.889  0.2124 -0.2805  0.1788
 2310POPC   GL127975   7.450  20.806   7.606 -0.1230 -0.3026  0.0213
 2310POPC   GL227976   7.271  20.747   7.412 -0.0333 -0.0362  0.1133
 2310POPC   C1A27977   7.690  21.105   7.327  0.0398 -0.0014 -0.2059
 2310POPC   D2A27978   8.124  21.240   7.112 -0.0296  0.1815  0.1020
 2310POPC   C3A27979   8.351  21.215   6.723 -0.1178  0.2974  0.2307
 2310POPC   C4A27980   8.315  21.252   6.248  0.0006 -0.2864 -0.0525
 2310POPC   C1B27981   7.323  20.960   6.987  0.0168 -0.0356  0.2597
 2310POPC   C2B27982   7.325  21.106   6.559  0.2276  0.0142 -0.1548
 2310POPC   C3B27983   7.339  21.156   6.077  0.1121 -0.1864  0.1828
 2310POPC   C4B27984   7.499  20.833   5.748 -0.1303 -0.0421  0.2144
 2311POPC   NC327985  11.151   6.343   7.219  0.1729  0.3168  0.0015
 2311POPC   PO427986  11.468   6.508   7.431  0.0979 -0.0068  0.2542
 2311POPC   GL127987  11.583   6.636   7.154 -0.2392 -0.0497  0.0202
 2311POPC   GL227988  11.681   6.937   7.065 -0.1669  0.1499  0.0970
 2311POPC   C1A27989  11.387   6.573   6.736 -0.1108 -0.1985  0.0904
 2311POPC   D2A27990  11.617   6.658   6.369 -0.0522  0.0209 -0.0951
 2311POPC   C3A27991  11.459   6.881   6.060 -0.0248  0.2324 -0.0732
 2311POPC   C4A27992  11.765   6.697   5.759  0.0779 -0.2014 -0.0773
 2311POPC   C1B27993  11.460   7.042   6.665 -0.1579  0.0221 -0.0536
 2311POPC   C2B27994  11.567   7.262   6.292 -0.1089 -0.3857 -0.2722
 2311POPC   C3B27995  11.308   7.502   5.939  0.1606  0.1325  0.2746
 2311POPC   C4B27996  11.365   7.790   5.533 -0.0129  0.0488 -0.0014
 2312POPC   NC327997   5.145   8.369   8.024 -0.2124 -0.2686  0.1305
 2312POPC   PO427998   5.173   8.740   8.008 -0.0390  0.0778 -0.1816
 2312POPC   GL127999   5.067   8.826   7.705  0.0138  0.2174 -0.1170
 2312POPC   GL228000   5.084   8.659   7.528 -0.5821 -0.2521 -0.0501
 2312POPC   C1A28001   5.279   9.050   7.310 -0.1737 -0.1816 -0.1209
 2312POPC   D2A28002   5.408   9.439   7.082  0.0141  0.1224 -0.1420
 2312POPC   C3A28003   5.200   9.483   6.648  0.0460  0.1791 -0.1554
 2312POPC   C4A28004   4.923   9.755   6.390 -0.1189  0.0626 -0.0905
 2312POPC   C1B28005   5.013   8.729   7.051  0.0107  0.1265  0.0388
 2312POPC   C2B28006   5.019   8.619   6.577  0.1250 -0.1580 -0.0143
 2312POPC   C3B28007   4.758   8.668   6.134 -0.0577 -0.0821  0.2206
 2312POPC   C4B28008   4.493   8.482   5.821 -0.1104 -0.0720 -0.1948
 2313POPC   NC328009   0.529  13.416   8.240 -0.4823 -0.1074  0.0787
 2313POPC   PO428010   0.393  13.722   7.973  0.1010  0.1885 -0.2081
 2313POPC   GL128011   0.457  13.515   7.629  0.0055  0.3260  0.4848
 2313POPC   GL228012   0.580  13.738   7.531 -0.1419  0.1106  0.3423
 2313POPC   C1A28013   0.626  13.122   7.415 -0.2170 -0.3174  0.2700
 2313POPC   D2A28014   0.756  12.688   7.327 -0.2873  0.2255 -0.0338
 2313POPC   C3A28015   0.955  12.542   6.921  0.0081  0.0767  0.1816
 2313POPC   C4A28016   1.082  12.237   6.546 -0.0623  0.0467 -0.0188
 2313POPC   C1B28017   0.332  13.680   7.156 -0.2413 -0.1550 -0.1621
 2313POPC   C2B28018   0.001  13.870   6.825 -0.0986  0.0932  0.4363
 2313POPC   C3B28019  -0.037  13.789   6.324 -0.0571  0.3496  0.2114
 2313POPC   C4B28020   0.095  13.581   5.953 -0.2142  0.1067 -0.2244
 2314POPC   NC328021  11.145  26.450   7.803 -0.2129  0.1104 -0.3134
 2314POPC   PO428022  11.365  26.139   7.660  0.1808 -0.3475 -0.0190
 2314POPC   GL128023  11.302  26.336   7.249 -0.5074  0.0103  0.3159
 2314POPC   GL228024  11.099  26.558   7.324 -0.2440  0.1203 -0.0385
 2314POPC   C1A28025  11.464  26.735   7.026 -0.1054 -0.0454 -0.1911
 2314POPC   D2A28026  11.334  27.037   6.762  0.0601  0.0181  0.2033
 2314POPC   C3A28027  11.196  27.392   6.491  0.0231 -0.0971  0.0834
 2314POPC   C4A28028  10.973  27.595   6.117  0.2764  0.1962  0.2177
 2314POPC   C1B28029  11.057  26.524   6.851 -0.2097  0.0438  0.1148
 2314POPC   C2B28030  10.889  26.410   6.424  0.0587  0.4888  0.1787
 2314POPC   C3B28031  10.716  26.200   6.028 -0.0415  0.0196 -0.0544
 2314POPC   C4B28032  10.692  25.973   5.618  0.1103 -0.2990  0.1636
 2315POPC   NC328033   9.181  10.316   7.338 -0.2275  0.2314 -0.0358
 2315POPC   PO428034   9.083  10.678   7.450  0.2883 -0.3538 -0.0505
 2315POPC   GL128035   9.193  10.629   6.975 -0.2081 -0.5038 -0.1511
 2315POPC   GL228036   9.399  10.419   6.868  0.2624  0.1820  0.1024
 2315POPC   C1A28037   9.231  10.892   6.613 -0.3666 -0.2449 -0.2152
 2315POPC   D2A28038   9.438  10.967   6.164 -0.1162  0.1374 -0.0469
 2315POPC   C3A28039   9.411  10.651   5.833 -0.1344 -0.0671 -0.2442
 2315POPC   C4A28040   9.154  10.250   5.833  0.2260  0.1729  0.0186
 2315POPC   C1B28041   9.463  10.487   6.438 -0.0372 -0.3047  0.4024
 2315POPC   C2B28042   9.729  10.365   6.039  0.1437 -0.1959  0.3463
 2315POPC   C3B28043   9.631   9.997   5.785 -0.2114  0.4326  0.0550
 2315POPC   C4B28044   9.375   9.613   5.616  0.1144  0.0289 -0.0196
 2316POPC   NC328045  12.638  21.499   7.609 -0.1033  0.1725  0.1839
 2316POPC   PO428046  12.989  21.526   7.483 -0.0104  0.0437 -0.1939
 2316POPC   GL128047  12.975  21.541   7.073 -0.1618  0.1912  0.1685
 2316POPC   GL228048  12.949  21.278   7.012  0.3830  0.0243 -0.0325
 2316POPC   C1A28049  13.185  21.676   6.744  0.0038  0.0193 -0.0172
 2316POPC   D2A28050  13.111  21.626   6.274 -0.0213  0.0018  0.3928
 2316POPC   C3A28051  13.105  21.998   6.040  0.0103 -0.0822  0.0851
 2316POPC   C4A28052  12.950  22.192   5.679 -0.0028 -0.1432 -0.2358
 2316POPC   C1B28053  13.093  21.163   6.563 -0.0757 -0.2276  0.1085
 2316POPC   C2B28054  13.028  21.054   6.152  0.1309  0.0851  0.0644
 2316POPC   C3B28055  12.719  20.765   5.864 -0.0232  0.0050  0.1534
 2316POPC   C4B28056  12.679  20.571   5.398  0.3321 -0.2449 -0.1345
 2317POPC   NC328057   3.991  31.509   7.827 -0.0121 -0.0434  0.0694
 2317POPC   PO428058   3.681  31.293   7.976 -0.0023 -0.0263  0.2131
 2317POPC   GL128059   3.534  31.326   7.633  0.0782 -0.0016  0.1250
 2317POPC   GL228060   3.424  30.983   7.656  0.1899 -0.1161  0.1348
 2317POPC   C1A28061   3.080  31.236   7.468 -0.1548  0.1176 -0.2140
 2317POPC   D2A28062   2.724  31.386   7.184  0.2547  0.1534 -0.0578
 2317POPC   C3A28063   2.631  31.347   6.760 -0.0336  0.1498  0.4363
 2317POPC   C4A28064   2.755  31.597   6.435  0.1971  0.1182  0.0519
 2317POPC   C1B28065   3.204  30.791   7.324  0.1018  0.0709  0.0487
 2317POPC   C2B28066   2.929  30.970   6.997 -0.0738  0.0974 -0.0119
 2317POPC   C3B28067   2.633  30.879   6.687 -0.0783  0.3704  0.0022
 2317POPC   C4B28068   2.341  31.046   6.348 -0.4783 -0.0104  0.0314
 2318POPC   NC328069   1.455  24.753   7.477  0.2496  0.2278  0.0635
 2318POPC   PO428070   1.474  25.082   7.305 -0.3163  0.0855  0.0078
 2318POPC   GL128071   1.687  25.087   7.023  0.0976  0.1961 -0.0637
 2318POPC   GL228072   1.625  24.905   6.878 -0.0055  0.4438  0.0863
 2318POPC   C1A28073   1.710  25.373   6.634  0.1079  0.3546 -0.4049
 2318POPC   D2A28074   1.708  25.403   6.177  0.2895 -0.2637  0.3254
 2318POPC   C3A28075   1.631  25.003   6.016  0.0009  0.1975 -0.0166
 2318POPC   C4A28076   1.294  24.692   5.940 -0.1476 -0.3760 -0.0270
 2318POPC   C1B28077   1.907  24.902   6.473  0.0421 -0.0078  0.3878
 2318POPC   C2B28078   2.104  24.966   6.081 -0.3237  0.1094 -0.1225
 2318POPC   C3B28079   2.305  24.894   5.726 -0.2134  0.1096  0.2265
 2318POPC   C4B28080   2.568  24.808   5.375 -0.0832 -0.0078  0.1031
 2319POPC   NC328081   1.304   2.044   7.960 -0.0014  0.0760  0.3607
 2319POPC   PO428082   1.464   1.713   7.808  0.0246  0.3806 -0.1253
 2319POPC   GL128083   1.454   1.720   7.418 -0.1821  0.1112  0.1555
 2319POPC   GL228084   1.456   1.974   7.349  0.2437 -0.0805  0.0686
 2319POPC   C1A28085   1.121   1.717   7.101  0.3071  0.3070  0.1018
 2319POPC   D2A28086   1.171   1.830   6.621 -0.1225 -0.2953 -0.0673
 2319POPC   C3A28087   1.042   1.509   6.283  0.1193  0.0854  0.2216
 2319POPC   C4A28088   0.965   1.618   5.821 -0.1598 -0.0632 -0.1340
 2319POPC   C1B28089   1.585   1.992   6.892 -0.1766  0.0764 -0.0423
 2319POPC   C2B28090   1.593   1.856   6.454  0.1024 -0.1195 -0.2601
 2319POPC   C3B28091   1.976   1.770   6.191 -0.2571 -0.0887  0.1114
 2319POPC   C4B28092   2.405   1.566   6.021  0.0988 -0.0019 -0.1228
 2320POPC   NC328093   0.042   3.710   8.641 -0.0154  0.1398  0.1336
 2320POPC   PO428094   0.122   3.338   8.545  0.0092  0.3356 -0.1530
 2320POPC   GL128095   0.136   3.507   8.161 -0.0097  0.1734 -0.0852
 2320POPC   GL228096   0.011   3.721   8.155  0.1781 -0.2016  0.1280
 2320POPC   C1A28097   0.026   3.588   7.690  0.1338  0.1566 -0.0522
 2320POPC   D2A28098  -0.052   3.901   7.428 -0.3273  0.2415 -0.0790
 2320POPC   C3A28099  -0.011   3.841   7.028  0.2222 -0.1314 -0.0508
 2320POPC   C4A28100  -0.093   3.788   6.567 -0.1303  0.3756  0.1688
 2320POPC   C1B28101  -0.370   3.919   7.959  0.2431  0.1539  0.0877
 2320POPC   C2B28102  -0.647   4.250   7.713 -0.0038 -0.0924 -0.0366
 2320POPC   C3B28103  -1.121   4.279   7.676  0.0082  0.0301  0.3112
 2320POPC   C4B28104  -1.509   4.518   7.656  0.0903 -0.0297 -0.1072
 2321POPC   NC328105   0.642   4.368   8.051 -0.0966  0.1066  0.2288
 2321POPC   PO428106   0.773   3.979   8.008 -0.0830  0.0788  0.0023
 2321POPC   GL128107   0.510   3.983   7.710 -0.0793  0.0170  0.3525
 2321POPC   GL228108   0.250   4.065   7.824 -0.1739  0.3441 -0.1433
 2321POPC   C1A28109   0.503   3.785   7.294  0.0721 -0.1343 -0.1036
 2321POPC   D2A28110   0.454   3.705   6.869 -0.3899  0.3257  0.0725
 2321POPC   C3A28111   0.477   3.705   6.406 -0.0879  0.0130 -0.0720
 2321POPC   C4A28112   0.240   3.659   5.976 -0.1292  0.1436 -0.2757
 2321POPC   C1B28113   0.258   4.252   7.445 -0.1843 -0.2630 -0.0481
 2321POPC   C2B28114   0.277   4.350   7.001  0.1432 -0.0401 -0.3779
 2321POPC   C3B28115   0.298   4.209   6.556 -0.2569  0.3014 -0.0303
 2321POPC   C4B28116   0.385   4.168   6.119  0.0529  0.1581 -0.2965
 2322POPC   NC328117  11.154  10.606   7.808  0.0643 -0.3633  0.1433
 2322POPC   PO428118  10.804  10.802   7.734 -0.2865  0.0273  0.1026
 2322POPC   GL128119  10.849  10.942   7.341 -0.0528  0.4212 -0.2041
 2322POPC   GL228120  10.618  11.124   7.282 -0.0564  0.1609 -0.0159
 2322POPC   C1A28121  10.940  10.896   6.896  0.2479  0.1401  0.0749
 2322POPC   D2A28122  10.973  10.970   6.427 -0.0048 -0.1658  0.1103
 2322POPC   C3A28123  11.272  10.931   6.113 -0.0126  0.1974 -0.0075
 2322POPC   C4A28124  11.334  10.607   5.799 -0.0378  0.3608 -0.0773
 2322POPC   C1B28125  10.461  11.015   6.871 -0.0455 -0.0735 -0.1767
 2322POPC   C2B28126  10.506  11.085   6.442  0.1247 -0.2814  0.0759
 2322POPC   C3B28127  10.655  11.082   5.986  0.1068 -0.2053 -0.2198
 2322POPC   C4B28128  10.833  11.168   5.546  0.0654  0.2445 -0.1733
 2323POPC   NC328129  12.290  16.633   8.071  0.1160  0.0944  0.1029
 2323POPC   PO428130  12.490  16.295   7.923  0.0457  0.0098  0.4638
 2323POPC   GL128131  12.393  16.016   7.660  0.0309  0.1038  0.2060
 2323POPC   GL228132  12.039  15.972   7.660  0.0704 -0.0017  0.0768
 2323POPC   C1A28133  12.440  15.826   7.204  0.0525  0.0574 -0.2493
 2323POPC   D2A28134  12.212  15.687   6.814  0.0575  0.1894 -0.1134
 2323POPC   C3A28135  12.162  15.984   6.450 -0.1440 -0.1089 -0.3510
 2323POPC   C4A28136  12.008  16.189   6.080  0.1180  0.1042  0.0083
 2323POPC   C1B28137  11.935  16.033   7.198  0.2960  0.1368  0.0357
 2323POPC   C2B28138  11.802  16.188   6.752  0.2964 -0.0807  0.0814
 2323POPC   C3B28139  11.634  16.280   6.368 -0.0521 -0.1219  0.2563
 2323POPC   C4B28140  11.416  15.997   6.097 -0.1375 -0.0219 -0.2680
 2324POPC   NC328141  10.408  11.520   7.632  0.1995 -0.0926  0.0652
 2324POPC   PO428142  10.717  11.647   7.436 -0.0513  0.0148  0.0980
 2324POPC   GL128143  10.835  11.657   7.118 -0.1168 -0.2891 -0.0640
 2324POPC   GL228144  11.039  11.387   7.179  0.1202  0.1039 -0.1266
 2324POPC   C1A28145  10.748  11.880   6.769  0.3619 -0.3123  0.2097
 2324POPC   D2A28146  10.675  12.314   6.635  0.3613  0.3146  0.0498
 2324POPC   C3A28147  10.969  12.529   6.364  0.0945 -0.0378 -0.0470
 2324POPC   C4A28148  10.937  12.579   5.870 -0.3463 -0.0403  0.1553
 2324POPC   C1B28149  10.841  11.394   6.767 -0.2219  0.4803  0.0310
 2324POPC   C2B28150  10.861  11.462   6.289 -0.0857 -0.1724  0.0861
 2324POPC   C3B28151  10.741  11.568   5.843  0.0469 -0.3894 -0.2081
 2324POPC   C4B28152  10.898  11.867   5.553 -0.1947 -0.0641  0.2804
 2325POPC   NC328153  14.011  18.874   7.814  0.3010  0.0216  0.4008
 2325POPC   PO428154  14.184  19.010   7.524  0.0306  0.0089 -0.0192
 2325POPC   GL128155  14.337  19.061   7.168  0.3012  0.0286 -0.3724
 2325POPC   GL228156  14.626  19.141   7.228 -0.1521 -0.1176 -0.1044
 2325POPC   C1A28157  14.151  19.224   6.741 -0.0133 -0.1236 -0.0150
 2325POPC   D2A28158  14.214  19.175   6.303  0.0065  0.1774  0.1900
 2325POPC   C3A28159  13.961  19.236   5.916 -0.0291 -0.0333  0.0099
 2325POPC   C4A28160  13.521  19.253   5.741  0.1748 -0.0939 -0.0325
 2325POPC   C1B28161  14.608  19.474   6.870 -0.4078  0.1371  0.1704
 2325POPC   C2B28162  14.881  19.514   6.525  0.1705  0.4737  0.1019
 2325POPC   C3B28163  14.903  19.595   6.088  0.1385  0.0865  0.0118
 2325POPC   C4B28164  14.770  19.497   5.637 -0.0491 -0.1042 -0.2991
 2326POPC   NC328165   5.845  15.308   7.717 -0.1510  0.0855  0.2093
 2326POPC   PO428166   5.882  15.696   7.742 -0.1996  0.2104  0.0439
 2326POPC   GL128167   5.856  15.784   7.395  0.2250 -0.2087 -0.4962
 2326POPC   GL228168   5.623  15.735   7.236  0.0282 -0.0072 -0.0425
 2326POPC   C1A28169   5.952  16.209   7.156  0.2448  0.0728 -0.3451
 2326POPC   D2A28170   6.248  16.574   7.235  0.0894 -0.1395 -0.0237
 2326POPC   C3A28171   6.526  16.529   6.835  0.1504  0.1642  0.1850
 2326POPC   C4A28172   6.934  16.560   6.828 -0.0428  0.1023  0.0222
 2326POPC   C1B28173   5.833  15.799   6.783  0.0952 -0.1080 -0.2706
 2326POPC   C2B28174   5.780  15.891   6.333 -0.0598  0.0604  0.1887
 2326POPC   C3B28175   5.852  15.979   5.857 -0.0636 -0.0633 -0.0581
 2326POPC   C4B28176   6.205  16.075   5.533 -0.0419 -0.0264  0.0917
 2327POPC   NC328177   7.882  16.763   7.736  0.1479 -0.2028  0.3318
 2327POPC   PO428178   7.665  16.455   7.656  0.1029  0.2763  0.3102
 2327POPC   GL128179   7.638  16.440   7.318  0.0207  0.2893 -0.0184
 2327POPC   GL228180   7.604  16.117   7.281 -0.0095  0.1507  0.1035
 2327POPC   C1A28181   7.541  16.412   6.860 -0.0061  0.0621  0.2093
 2327POPC   D2A28182   7.267  16.198   6.576 -0.2310  0.0967  0.2166
 2327POPC   C3A28183   7.413  16.119   6.133 -0.0387 -0.0340 -0.1068
 2327POPC   C4A28184   7.591  15.788   5.869 -0.3558  0.1305 -0.0535
 2327POPC   C1B28185   7.703  15.939   6.901  0.1240  0.0067 -0.0988
 2327POPC   C2B28186   7.820  15.939   6.445 -0.2129  0.0392  0.0626
 2327POPC   C3B28187   7.967  16.120   6.007 -0.3168  0.4109  0.4362
 2327POPC   C4B28188   7.656  16.396   5.789 -0.2146  0.2304 -0.0614
 2328POPC   NC328189   7.976  25.780   7.443 -0.0083 -0.1140 -0.0878
 2328POPC   PO428190   8.120  25.709   7.790 -0.0008  0.0419 -0.0868
 2328POPC   GL128191   8.473  25.832   7.604  0.1249  0.0038 -0.2117
 2328POPC   GL228192   8.632  25.608   7.624  0.3840 -0.0265 -0.0248
 2328POPC   C1A28193   8.414  25.918   7.130  0.1229 -0.1272  0.1121
 2328POPC   D2A28194   8.140  26.020   6.813  0.1196  0.1409 -0.0190
 2328POPC   C3A28195   8.303  25.894   6.345  0.2823 -0.0369 -0.1226
 2328POPC   C4A28196   8.248  25.824   5.883  0.1007  0.2212  0.2139
 2328POPC   C1B28197   8.647  25.462   7.162 -0.2260  0.0112  0.2384
 2328POPC   C2B28198   8.584  25.619   6.729  0.1536  0.0088 -0.2388
 2328POPC   C3B28199   8.675  25.561   6.315 -0.1557 -0.0709 -0.0658
 2328POPC   C4B28200   8.475  25.337   5.983  0.2596 -0.1769  0.3599
 2329POPC   NC328201   1.283   3.942   8.013  0.1462 -0.3828 -0.0321
 2329POPC   PO428202   1.371   4.331   7.988  0.0859  0.2017  0.0670
 2329POPC   GL128203   1.013   4.274   7.741  0.2227 -0.1524 -0.0752
 2329POPC   GL228204   0.943   4.108   7.528 -0.1661 -0.3523 -0.0952
 2329POPC   C1A28205   1.092   4.611   7.366  0.0378 -0.0949 -0.0937
 2329POPC   D2A28206   1.139   4.501   6.898 -0.0553 -0.1988  0.0094
 2329POPC   C3A28207   1.289   4.230   6.573 -0.1572  0.1126  0.3711
 2329POPC   C4A28208   1.249   3.753   6.437  0.2077  0.0266 -0.1090
 2329POPC   C1B28209   0.724   4.216   7.123  0.1104  0.0914 -0.0103
 2329POPC   C2B28210   0.794   4.009   6.690 -0.1223  0.1049 -0.4594
 2329POPC   C3B28211   0.870   4.072   6.236 -0.1558 -0.2316  0.2473
 2329POPC   C4B28212   1.177   4.190   5.905  0.1117 -0.2503 -0.4691
 2330POPC   NC328213   4.920   0.665   7.419 -0.0319 -0.3054 -0.4295
 2330POPC   PO428214   5.075   0.963   7.611  0.0657  0.1425 -0.1783
 2330POPC   GL128215   4.794   1.161   7.408  0.4579  0.3974  0.2561
 2330POPC   GL228216   4.968   1.176   7.177 -0.0098  0.0642 -0.0219
 2330POPC   C1A28217   4.517   1.264   7.006  0.1232 -0.0580  0.0754
 2330POPC   D2A28218   4.540   1.537   6.585 -0.0048 -0.0092 -0.0569
 2330POPC   C3A28219   4.476   1.515   6.138 -0.1525 -0.2844 -0.0320
 2330POPC   C4A28220   4.428   1.571   5.691  0.2398  0.0929 -0.0964
 2330POPC   C1B28221   5.114   1.461   6.792  0.1043  0.2014  0.1828
 2330POPC   C2B28222   4.998   1.547   6.320  0.1057  0.0381  0.0340
 2330POPC   C3B28223   4.903   1.650   5.865 -0.1364  0.5236  0.1721
 2330POPC   C4B28224   5.009   1.754   5.402  0.4202 -0.5407  0.3547
 2331POPC   NC328225   3.153  22.037   7.507 -0.6019  0.0144  0.1640
 2331POPC   PO428226   2.993  22.324   7.722  0.2052 -0.2553 -0.0074
 2331POPC   GL128227   2.792  22.339   7.422  0.0842  0.3266  0.0197
 2331POPC   GL228228   2.788  22.101   7.128 -0.0983  0.3518 -0.5341
 2331POPC   C1A28229   2.559  22.513   7.030  0.1467  0.1463 -0.2435
 2331POPC   D2A28230   2.414  22.727   6.670  0.2514 -0.2628 -0.1471
 2331POPC   C3A28231   2.321  22.801   6.213  0.2826 -0.2752 -0.0828
 2331POPC   C4A28232   2.119  22.891   5.848  0.1790 -0.1316  0.0830
 2331POPC   C1B28233   2.836  22.195   6.672  0.0321 -0.0043 -0.0981
 2331POPC   C2B28234   2.588  22.394   6.332  0.1090  0.1348  0.1035
 2331POPC   C3B28235   2.665  22.588   5.890 -0.0853 -0.2646  0.2049
 2331POPC   C4B28236   2.529  22.857   5.571  0.0810  0.1441 -0.1321
 2332POPC   NC328237   5.591   5.514   7.598 -0.3694  0.1731 -0.0718
 2332POPC   PO428238   5.959   5.669   7.654  0.2302  0.1861 -0.0117
 2332POPC   GL128239   5.948   5.509   7.302  0.1266  0.1737  0.2470
 2332POPC   GL228240   5.965   5.580   7.014  0.3113 -0.2077  0.1923
 2332POPC   C1A28241   5.642   5.138   7.175  0.1662  0.0946  0.3376
 2332POPC   D2A28242   5.337   5.024   6.838 -0.2983  0.0650 -0.1765
 2332POPC   C3A28243   5.233   4.843   6.404  0.1312  0.1350 -0.0115
 2332POPC   C4A28244   5.084   4.479   6.123  0.1466 -0.3308 -0.0109
 2332POPC   C1B28245   5.852   5.304   6.680  0.0529  0.0670  0.2027
 2332POPC   C2B28246   5.870   4.979   6.327 -0.2297 -0.0981 -0.0242
 2332POPC   C3B28247   5.995   5.027   5.888 -0.1220 -0.0195 -0.2435
 2332POPC   C4B28248   5.715   4.944   5.546 -0.0245 -0.2130  0.0360
 2333POPC   NC328249   0.503  30.023   7.615  0.2161  0.1605  0.1496
 2333POPC   PO428250   0.782  30.184   7.809 -0.0487 -0.0251 -0.0774
 2333POPC   GL128251   0.896  30.180   7.438  0.1939 -0.1198 -0.1579
 2333POPC   GL228252   0.979  29.862   7.398 -0.2430  0.3003  0.1546
 2333POPC   C1A28253   0.637  29.935   7.108  0.0956  0.2788  0.1957
 2333POPC   D2A28254   0.373  29.784   6.765 -0.0642 -0.1245  0.2311
 2333POPC   C3A28255   0.594  29.466   6.520  0.1809  0.0233  0.6052
 2333POPC   C4A28256   0.962  29.486   6.215  0.1241  0.0726 -0.0298
 2333POPC   C1B28257   1.275  30.029   7.114 -0.2393  0.2547 -0.1652
 2333POPC   C2B28258   1.493  30.092   6.741 -0.0296 -0.2059 -0.1267
 2333POPC   C3B28259   1.786  30.207   6.402 -0.2524 -0.3262 -0.2343
 2333POPC   C4B28260   2.148  30.077   6.181 -0.2169  0.2384  0.2078
 2334POPC   NC328261   9.193   7.685   7.931  0.1236 -0.2672  0.1879
 2334POPC   PO428262   9.344   8.052   7.878  0.5357 -0.0403  0.0822
 2334POPC   GL128263   9.653   8.128   7.598  0.0189 -0.2008  0.4496
 2334POPC   GL228264   9.834   8.374   7.536 -0.1033  0.2812  0.1475
 2334POPC   C1A28265   9.826   7.924   7.206  0.2152  0.2220  0.1188
 2334POPC   D2A28266   9.873   7.853   6.767  0.1542  0.0714 -0.2373
 2334POPC   C3A28267   9.545   7.908   6.494  0.0453 -0.1413  0.1853
 2334POPC   C4A28268   9.545   8.002   6.031 -0.2702  0.0806  0.1225
 2334POPC   C1B28269   9.700   8.433   7.124  0.1469  0.0008 -0.1315
 2334POPC   C2B28270   9.683   8.438   6.656 -0.2067 -0.2917  0.1178
 2334POPC   C3B28271   9.931   8.228   6.310  0.0786 -0.3960  0.0310
 2334POPC   C4B28272  10.048   7.817   6.291  0.1153  0.0768 -0.0971
 2335POPC   NC328273  15.847  30.754   7.660 -0.3191 -0.3383  0.3328
 2335POPC   PO428274  16.086  30.425   7.722  0.0207  0.1053 -0.0479
 2335POPC   GL128275  16.383  30.549   7.618  0.1695  0.1177  0.0847
 2335POPC   GL228276  16.361  30.835   7.495  0.1844  0.0775  0.1591
 2335POPC   C1A28277  16.523  30.427   7.177 -0.1644 -0.4277  0.1501
 2335POPC   D2A28278  16.796  30.456   6.822  0.4554  0.2019  0.0318
 2335POPC   C3A28279  16.775  30.747   6.426 -0.1264  0.1168  0.4412
 2335POPC   C4A28280  16.896  31.027   6.052  0.0127  0.0042  0.1992
 2335POPC   C1B28281  16.338  30.864   6.962 -0.0515  0.1079 -0.2883
 2335POPC   C2B28282  16.142  30.896   6.570 -0.1303  0.0935  0.1186
 2335POPC   C3B28283  16.105  30.920   6.127 -0.0462  0.2269 -0.3561
 2335POPC   C4B28284  16.049  31.069   5.689 -0.0649  0.0412 -0.0866
 2336POPC   NC328285  12.325   8.177   7.858  0.2174 -0.2052  0.0275
 2336POPC   PO428286  12.681   8.224   7.889  0.2283  0.0270 -0.2478
 2336POPC   GL128287  12.685   7.991   7.574 -0.1436 -0.1616 -0.1303
 2336POPC   GL228288  12.953   7.856   7.624 -0.4029 -0.2640 -0.0382
 2336POPC   C1A28289  12.397   7.922   7.150  0.0130 -0.2744  0.1294
 2336POPC   D2A28290  12.210   8.115   6.806  0.2414  0.2359 -0.0592
 2336POPC   C3A28291  12.378   8.350   6.403  0.0357  0.0202 -0.1157
 2336POPC   C4A28292  12.558   8.366   5.982 -0.2012  0.0845 -0.4263
 2336POPC   C1B28293  12.908   7.800   7.220 -0.3570 -0.0870 -0.2527
 2336POPC   C2B28294  12.742   7.695   6.808  0.2905 -0.0824  0.0001
 2336POPC   C3B28295  12.408   7.829   6.476  0.2233  0.0845 -0.1329
 2336POPC   C4B28296  12.180   7.964   6.116  0.0314 -0.0556  0.2208
 2337POPC   NC328297  14.331  23.339   7.766 -0.3687  0.4129 -0.2390
 2337POPC   PO428298  14.107  23.054   7.840  0.0345 -0.0957  0.2274
 2337POPC   GL128299  14.094  23.027   7.443 -0.0810  0.1170  0.1315
 2337POPC   GL228300  14.382  23.056   7.369 -0.1043 -0.1601  0.3783
 2337POPC   C1A28301  14.100  23.083   6.953 -0.2595  0.2589  0.4185
 2337POPC   D2A28302  14.429  23.029   6.561  0.3420 -0.2225 -0.2420
 2337POPC   C3A28303  14.194  22.893   6.210  0.3289  0.2671  0.1023
 2337POPC   C4A28304  13.784  22.944   6.065  0.1620 -0.0021  0.0410
 2337POPC   C1B28305  14.530  23.309   7.079 -0.2641  0.2013  0.1016
 2337POPC   C2B28306  14.765  23.743   7.021  0.1684 -0.0573 -0.2301
 2337POPC   C3B28307  15.062  24.010   7.263  0.0368 -0.0957 -0.0396
 2337POPC   C4B28308  15.396  24.143   7.573  0.3140  0.1811  0.0442
 2338POPC   NC328309   5.560  29.760   7.819  0.0081  0.0349  0.0803
 2338POPC   PO428310   5.781  30.072   7.785  0.2058  0.2697  0.0106
 2338POPC   GL128311   5.811  29.847   7.448  0.0930  0.2440  0.2491
 2338POPC   GL228312   5.594  29.909   7.279 -0.1911 -0.2023 -0.0903
 2338POPC   C1A28313   6.047  29.891   7.065  0.2996  0.2628 -0.0553
 2338POPC   D2A28314   6.191  29.625   6.759 -0.0036 -0.0293 -0.1126
 2338POPC   C3A28315   5.877  29.599   6.447 -0.3620 -0.2891 -0.1223
 2338POPC   C4A28316   5.577  29.620   6.066 -0.1441  0.3128  0.0289
 2338POPC   C1B28317   5.580  29.797   6.798  0.0317  0.1513  0.0634
 2338POPC   C2B28318   5.453  29.929   6.399  0.2772 -0.2839  0.0344
 2338POPC   C3B28319   5.138  29.941   5.992  0.1532  0.2663 -0.1279
 2338POPC   C4B28320   4.908  29.739   5.658 -0.4182 -0.3427 -0.2344
 2339POPC   NC328321   9.109  22.382   7.725 -0.2766 -0.3540 -0.2582
 2339POPC   PO428322   9.417  22.207   7.555  0.2913 -0.0115  0.1888
 2339POPC   GL128323   9.211  22.365   7.253  0.1473  0.3542 -0.1134
 2339POPC   GL228324   9.056  22.037   7.210 -0.0811 -0.2391  0.0377
 2339POPC   C1A28325   9.263  22.233   6.774  0.2786 -0.2220 -0.1860
 2339POPC   D2A28326   9.263  22.370   6.349  0.0708 -0.2424 -0.0082
 2339POPC   C3A28327   9.442  22.049   6.076 -0.0790 -0.2740 -0.0180
 2339POPC   C4A28328   9.557  21.861   5.684  0.1984 -0.0127  0.0322
 2339POPC   C1B28329   8.799  21.969   6.814  0.0744  0.3496 -0.3919
 2339POPC   C2B28330   8.879  22.123   6.390  0.0112  0.0074 -0.0512
 2339POPC   C3B28331   8.989  22.426   5.988  0.1705 -0.0933 -0.0116
 2339POPC   C4B28332   8.825  22.692   5.629 -0.2979  0.0353  0.1561
 2340POPC   NC328333   8.620  29.932   8.142  0.0690 -0.0737  0.1725
 2340POPC   PO428334   8.335  29.692   8.140 -0.1496 -0.1127 -0.0299
 2340POPC   GL128335   8.499  29.432   7.893 -0.0835  0.2569  0.2420
 2340POPC   GL228336   8.338  29.540   7.612  0.3082  0.1713  0.0107
 2340POPC   C1A28337   8.633  29.028   8.024 -0.0359 -0.0764  0.1154
 2340POPC   D2A28338   8.872  28.648   8.057 -0.2066  0.1567 -0.0165
 2340POPC   C3A28339   9.299  28.787   8.281  0.2167 -0.1561  0.2510
 2340POPC   C4A28340   9.670  28.980   8.094 -0.0265  0.2573  0.0218
 2340POPC   C1B28341   8.538  29.471   7.202  0.2858  0.0292 -0.0184
 2340POPC   C2B28342   8.664  29.163   6.896  0.0399  0.1359 -0.0581
 2340POPC   C3B28343   8.885  28.787   6.651  0.0473  0.2018 -0.0167
 2340POPC   C4B28344   8.969  28.303   6.580 -0.0078  0.3268 -0.0082
 2341POPC   NC328345  14.251  26.697   7.717 -0.0398  0.0491 -0.0545
 2341POPC   PO428346  14.644  26.773   7.754 -0.0047  0.0320 -0.0470
 2341POPC   GL128347  14.585  26.659   7.380 -0.0177 -0.3320 -0.0929
 2341POPC   GL228348  14.736  26.857   7.243 -0.0391 -0.0250  0.1060
 2341POPC   C1A28349  14.498  26.589   6.915  0.0189  0.0691 -0.0830
 2341POPC   D2A28350  14.236  26.761   6.565  0.1313  0.2206 -0.4600
 2341POPC   C3A28351  14.321  26.571   6.156 -0.0080 -0.2301  0.1471
 2341POPC   C4A28352  14.492  26.320   5.844 -0.1625  0.1974  0.2127
 2341POPC   C1B28353  15.119  26.747   7.029 -0.0435  0.3433 -0.0556
 2341POPC   C2B28354  15.240  26.550   6.603  0.4795 -0.0452  0.0047
 2341POPC   C3B28355  15.560  26.292   6.366 -0.3014 -0.0191  0.3811
 2341POPC   C4B28356  15.887  26.228   6.047 -0.2172  0.0701 -0.0662
 2342POPC   NC328357  14.602   0.079   7.590  0.2121 -0.0905 -0.3393
 2342POPC   PO428358  14.816   0.396   7.664 -0.2197 -0.3009  0.1841
 2342POPC   GL128359  14.869   0.480   7.236 -0.1481  0.5890  0.0925
 2342POPC   GL228360  14.908   0.768   7.046 -0.0584  0.1960 -0.2672
 2342POPC   C1A28361  15.099   0.224   6.945 -0.2584 -0.0015  0.0502
 2342POPC   D2A28362  15.230  -0.209   6.970 -0.2541 -0.0064 -0.0199
 2342POPC   C3A28363  15.275  -0.435   6.532 -0.2569 -0.0305 -0.0884
 2342POPC   C4A28364  15.202  -0.580   6.068  0.1515 -0.0104  0.2648
 2342POPC   C1B28365  14.703   0.468   6.825  0.1191 -0.2204  0.2178
 2342POPC   C2B28366  14.661   0.053   6.645  0.1831 -0.2450 -0.2092
 2342POPC   C3B28367  14.914  -0.165   6.357 -0.1572  0.1199  0.0922
 2342POPC   C4B28368  14.912  -0.054   5.891 -0.1476 -0.0656 -0.2665
 2343POPC   NC328369   6.593  23.045   7.443  0.1537  0.2523 -0.3446
 2343POPC   PO428370   6.776  23.158   7.800 -0.2488 -0.1728  0.2216
 2343POPC   GL128371   6.781  23.488   7.537 -0.0202  0.0521 -0.0473
 2343POPC   GL228372   6.603  23.724   7.444 -0.1973  0.1611 -0.0904
 2343POPC   C1A28373   6.891  23.492   7.070 -0.2637  0.1400 -0.3073
 2343POPC   D2A28374   6.850  23.487   6.625 -0.1842 -0.2457 -0.0015
 2343POPC   C3A28375   7.174  23.821   6.686  0.1635 -0.0464 -0.1130
 2343POPC   C4A28376   7.582  23.976   6.542  0.0998 -0.4306 -0.0816
 2343POPC   C1B28377   6.642  23.953   7.043  0.1499  0.0497  0.2150
 2343POPC   C2B28378   6.720  24.006   6.619 -0.5175 -0.0944 -0.0889
 2343POPC   C3B28379   6.549  23.808   6.290 -0.4162 -0.1075 -0.0256
 2343POPC   C4B28380   6.352  23.866   5.881 -0.0583  0.1354  0.1122
 2344POPC   NC328381  11.633  18.322   7.953 -0.2700 -0.0467  0.3730
 2344POPC   PO428382  11.884  18.126   7.731 -0.0764  0.0988 -0.1941
 2344POPC   GL128383  11.744  18.100   7.331  0.0694  0.0139 -0.2212
 2344POPC   GL228384  11.964  18.289   7.090  0.2613  0.3828  0.1962
 2344POPC   C1A28385  11.454  18.173   7.038  0.1957 -0.3219 -0.0055
 2344POPC   D2A28386  11.372  17.870   6.658 -0.0573  0.0477  0.0815
 2344POPC   C3A28387  11.665  17.891   6.280 -0.1555 -0.0873  0.1903
 2344POPC   C4A28388  11.927  17.740   5.939  0.2778  0.2705  0.2569
 2344POPC   C1B28389  11.851  18.196   6.678 -0.1253 -0.0853  0.0077
 2344POPC   C2B28390  11.813  18.348   6.258 -0.0174  0.1721 -0.0526
 2344POPC   C3B28391  11.672  18.276   5.818 -0.0349 -0.0200  0.0027
 2344POPC   C4B28392  11.987  18.001   5.529  0.0893  0.0658  0.2373
 2345POPC   NC328393  12.637  25.628   7.688 -0.1027 -0.3090  0.0255
 2345POPC   PO428394  12.922  25.365   7.716 -0.1034  0.0164 -0.2246
 2345POPC   GL128395  12.804  25.226   7.251  0.0725 -0.3339 -0.5406
 2345POPC   GL228396  12.644  25.142   7.017 -0.0645 -0.0475  0.2157
 2345POPC   C1A28397  13.194  25.316   7.009  0.2579  0.0136 -0.2401
 2345POPC   D2A28398  13.689  25.381   7.008  0.0997 -0.2916 -0.3215
 2345POPC   C3A28399  13.894  25.363   6.573  0.0472 -0.2266 -0.0761
 2345POPC   C4A28400  14.007  25.711   6.289 -0.1168  0.2476  0.1752
 2345POPC   C1B28401  12.549  24.751   6.934  0.4518  0.3130  0.0882
 2345POPC   C2B28402  12.676  24.497   6.571 -0.1750  0.1325 -0.2406
 2345POPC   C3B28403  12.593  24.635   6.100  0.0215 -0.0990 -0.2738
 2345POPC   C4B28404  12.256  24.721   5.864  0.0916 -0.1672 -0.0701
 2346POPC   NC328405   5.110  31.159   7.374  0.1618  0.0927 -0.1451
 2346POPC   PO428406   4.738  31.127   7.546 -0.3194 -0.0450 -0.1529
 2346POPC   GL128407   4.769  30.875   7.282 -0.1566  0.0388  0.0231
 2346POPC   GL228408   4.538  30.753   7.152 -0.0744 -0.1825 -0.0134
 2346POPC   C1A28409   4.667  31.144   6.890  0.5980  0.0815 -0.4300
 2346POPC   D2A28410   4.424  31.145   6.489  0.3889  0.1528  0.2332
 2346POPC   C3A28411   4.248  31.490   6.365 -0.0054 -0.3372  0.3265
 2346POPC   C4A28412   4.114  31.922   6.526 -0.1508  0.1185  0.1103
 2346POPC   C1B28413   4.317  30.652   6.683  0.1550  0.0587  0.0660
 2346POPC   C2B28414   4.278  30.674   6.232 -0.0570  0.2590  0.0181
 2346POPC   C3B28415   3.885  30.778   5.947 -0.0148  0.0130  0.0234
 2346POPC   C4B28416   3.685  31.073   5.668 -0.1908  0.2628 -0.2632
 2347POPC   NC328417   7.091  11.127   7.535  0.0182 -0.1206 -0.2426
 2347POPC   PO428418   6.832  10.849   7.700 -0.1034  0.1382 -0.1315
 2347POPC   GL128419   6.624  10.884   7.374 -0.1473 -0.1162 -0.1556
 2347POPC   GL228420   6.855  10.839   7.201  0.1636 -0.0274  0.2669
 2347POPC   C1A28421   6.229  10.710   7.219  0.0355  0.0883 -0.1618
 2347POPC   D2A28422   5.848  10.590   6.958  0.1387  0.3857 -0.1827
 2347POPC   C3A28423   5.906  10.273   6.748 -0.1241 -0.2139  0.0656
 2347POPC   C4A28424   5.652  10.200   6.379  0.1114  0.1317  0.2448
 2347POPC   C1B28425   6.914  10.945   6.764 -0.0473  0.0475 -0.1364
 2347POPC   C2B28426   6.672  10.854   6.345  0.0219 -0.1289 -0.1435
 2347POPC   C3B28427   6.312  10.727   6.164 -0.1044  0.2016 -0.0154
 2347POPC   C4B28428   6.022  10.342   6.083  0.1305  0.2785  0.2246
 2348POPC   NC328429   3.114  17.502   7.509 -0.1994 -0.0770 -0.1823
 2348POPC   PO428430   2.905  17.288   7.747 -0.2986  0.1606  0.2208
 2348POPC   GL128431   2.671  17.407   7.355 -0.0646 -0.2595 -0.0365
 2348POPC   GL228432   2.842  17.281   7.135  0.1013 -0.3500 -0.3752
 2348POPC   C1A28433   2.837  17.792   7.084 -0.1145  0.0002  0.3157
 2348POPC   D2A28434   2.982  18.209   7.031 -0.0804  0.0141  0.1311
 2348POPC   C3A28435   2.949  18.553   6.713 -0.0793 -0.1623  0.0340
 2348POPC   C4A28436   2.780  18.611   6.292 -0.2485  0.1040 -0.1786
 2348POPC   C1B28437   2.712  17.447   6.731 -0.0546 -0.2566  0.0514
 2348POPC   C2B28438   2.618  17.204   6.264  0.2828  0.1283 -0.1028
 2348POPC   C3B28439   2.751  16.916   5.900 -0.2890 -0.2649 -0.0175
 2348POPC   C4B28440   3.068  17.010   5.563 -0.1420  0.1065  0.2047
 2349POPC   NC328441   8.043  24.553   8.254 -0.0357  0.3000 -0.4413
 2349POPC   PO428442   8.011  24.830   8.008 -0.2403 -0.0177 -0.1743
 2349POPC   GL128443   8.165  24.721   7.726 -0.3067 -0.0269  0.1069
 2349POPC   GL228444   7.971  24.634   7.440  0.0846 -0.2325 -0.0298
 2349POPC   C1A28445   8.485  24.535   7.407 -0.0901 -0.0184  0.1060
 2349POPC   D2A28446   8.764  24.518   7.053 -0.0148 -0.1056 -0.1003
 2349POPC   C3A28447   8.628  24.397   6.644  0.1524  0.0307 -0.0212
 2349POPC   C4A28448   8.815  23.959   6.568  0.2019 -0.2215 -0.0378
 2349POPC   C1B28449   7.726  24.725   7.059  0.3921  0.0385  0.2094
 2349POPC   C2B28450   7.630  24.949   6.690  0.1364 -0.0079 -0.1742
 2349POPC   C3B28451   7.766  25.095   6.293 -0.4796 -0.2349  0.1739
 2349POPC   C4B28452   7.999  25.370   6.008  0.1626  0.0666  0.0230
 2350POPC   NC328453   2.448  22.621   7.638  0.2787 -0.1610  0.2301
 2350POPC   PO428454   2.576  22.972   7.660  0.0409  0.0356  0.1269
 2350POPC   GL128455   2.526  23.136   7.269  0.1471  0.1308 -0.1731
 2350POPC   GL228456   2.335  23.377   7.114  0.0021  0.3583  0.2129
 2350POPC   C1A28457   2.814  23.168   6.870 -0.2109  0.0388 -0.0891
 2350POPC   D2A28458   2.718  23.074   6.430 -0.1874 -0.3130  0.0474
 2350POPC   C3A28459   2.741  23.054   5.986 -0.1269 -0.2238  0.2090
 2350POPC   C4A28460   3.083  23.045   5.705  0.0295  0.1619  0.2700
 2350POPC   C1B28461   2.299  23.217   6.730 -0.1265  0.0648 -0.0256
 2350POPC   C2B28462   2.272  23.342   6.247  0.3514  0.1294 -0.1591
 2350POPC   C3B28463   2.346  23.328   5.798  0.1432 -0.1564 -0.0725
 2350POPC   C4B28464   2.517  23.325   5.343  0.5654  0.0851  0.0016
 2351POPC   NC328465  10.328  21.284   7.539  0.1633 -0.3369  0.0610
 2351POPC   PO428466  10.549  20.944   7.568 -0.1366 -0.0746 -0.2560
 2351POPC   GL128467  10.561  21.010   7.195  0.1806  0.1572  0.2876
 2351POPC   GL228468  10.799  20.777   7.136  0.1422 -0.1547  0.2121
 2351POPC   C1A28469  10.805  21.183   6.807  0.0782 -0.2446 -0.1662
 2351POPC   D2A28470  10.704  21.136   6.363  0.3158 -0.3046 -0.0930
 2351POPC   C3A28471  10.641  21.373   5.996  0.3139 -0.1710 -0.1037
 2351POPC   C4A28472  10.381  21.432   5.652 -0.1914  0.0703 -0.0399
 2351POPC   C1B28473  10.991  20.729   6.729  0.1004  0.0976 -0.0871
 2351POPC   C2B28474  11.074  20.430   6.360  0.0186  0.3336 -0.2794
 2351POPC   C3B28475  11.343  20.478   5.979 -0.2332  0.2427  0.1271
 2351POPC   C4B28476  11.544  20.872   5.787  0.3621  0.0607 -0.0852
 2352POPC   NC328477  15.322  10.048   7.878  0.0572  0.1763 -0.1238
 2352POPC   PO428478  15.748  10.111   7.886 -0.0065 -0.0230  0.1366
 2352POPC   GL128479  15.615  10.011   7.488 -0.0993 -0.1111 -0.0580
 2352POPC   GL228480  15.879   9.902   7.368  0.1919 -0.0199 -0.1533
 2352POPC   C1A28481  15.243   9.848   7.308 -0.2972  0.0344 -0.1817
 2352POPC   D2A28482  14.759   9.747   7.339  0.1029 -0.0410  0.2700
 2352POPC   C3A28483  14.414   9.802   7.026 -0.2488 -0.3346  0.0908
 2352POPC   C4A28484  14.274   9.966   6.630 -0.2230 -0.2077  0.2876
 2352POPC   C1B28485  15.833  10.018   6.963 -0.1853 -0.1549  0.1345
 2352POPC   C2B28486  15.846  10.145   6.580 -0.1083  0.1517  0.0645
 2352POPC   C3B28487  15.756  10.463   6.233  0.0662  0.0639  0.0044
 2352POPC   C4B28488  15.582  10.813   5.972 -0.2315  0.1479  0.2930
 2353POPC   NC328489   8.716  14.567   7.598  0.0950  0.1541 -0.0856
 2353POPC   PO428490   8.960  14.885   7.557 -0.1784 -0.0483 -0.0304
 2353POPC   GL128491   9.199  14.833   7.239  0.2669 -0.0726 -0.1178
 2353POPC   GL228492   8.998  14.606   7.123 -0.2069  0.2340  0.1471
 2353POPC   C1A28493   9.386  15.046   6.898 -0.2223 -0.2305  0.2210
 2353POPC   D2A28494   9.207  15.258   6.507  0.2420 -0.1845  0.2125
 2353POPC   C3A28495   8.809  15.207   6.248  0.1445  0.2438 -0.1822
 2353POPC   C4A28496   8.397  15.082   5.960  0.0410  0.1821 -0.2106
 2353POPC   C1B28497   8.970  14.845   6.696  0.1233  0.0177 -0.0938
 2353POPC   C2B28498   9.145  14.790   6.264 -0.1493 -0.1213  0.1937
 2353POPC   C3B28499   9.262  14.976   5.883  0.0438  0.0899 -0.2014
 2353POPC   C4B28500   9.354  15.194   5.489  0.0032 -0.1791  0.2942
 2354POPC   NC328501   3.882  29.074   8.212 -0.3625 -0.1211  0.1361
 2354POPC   PO428502   3.653  28.756   8.285 -0.1937 -0.0414 -0.0119
 2354POPC   GL128503   3.606  28.767   7.828 -0.0836 -0.2402  0.1048
 2354POPC   GL228504   3.409  28.641   7.808  0.3492 -0.3195 -0.1308
 2354POPC   C1A28505   3.617  29.085   7.441 -0.0020  0.0083 -0.0698
 2354POPC   D2A28506   3.702  29.418   7.132 -0.0065 -0.4200  0.1734
 2354POPC   C3A28507   3.585  29.314   6.663 -0.1253 -0.0079 -0.0305
 2354POPC   C4A28508   3.511  29.490   6.197 -0.5732  0.2013  0.1695
 2354POPC   C1B28509   3.118  28.941   7.661 -0.0905 -0.1229 -0.1402
 2354POPC   C2B28510   2.757  29.233   7.459 -0.1020  0.4322 -0.0873
 2354POPC   C3B28511   2.798  29.622   7.210 -0.2649  0.1823 -0.0347
 2354POPC   C4B28512   2.704  29.870   6.851  0.2308 -0.2389  0.0701
 2355POPC   NC328513   0.500   5.816   7.397  0.4695  0.5662  0.2638
 2355POPC   PO428514   0.290   5.492   7.546 -0.3550 -0.0944  0.0211
 2355POPC   GL128515   0.109   5.335   7.297 -0.0555  0.0966  0.0474
 2355POPC   GL228516   0.299   5.100   7.168  0.0808  0.3068  0.1495
 2355POPC   C1A28517  -0.155   5.257   6.905  0.2756 -0.1621 -0.4816
 2355POPC   D2A28518  -0.229   5.091   6.528  0.2279  0.0615  0.0719
 2355POPC   C3A28519  -0.526   4.714   6.503  0.1061  0.0321 -0.1910
 2355POPC   C4A28520  -0.396   4.404   6.193 -0.1740 -0.1951  0.2177
 2355POPC   C1B28521   0.312   4.877   6.753 -0.1217  0.1880 -0.1772
 2355POPC   C2B28522   0.060   4.731   6.448  0.1847  0.1323 -0.0334
 2355POPC   C3B28523   0.074   4.555   6.035 -0.0335 -0.0946 -0.2220
 2355POPC   C4B28524   0.200   4.254   5.675 -0.0090 -0.1245  0.1482
 2356POPC   NC328525   0.251  22.947   7.777 -0.2323  0.0922  0.0558
 2356POPC   PO428526   0.555  22.816   7.590  0.2037  0.0639  0.1184
 2356POPC   GL128527   0.536  22.555   7.241 -0.0122  0.0006 -0.5529
 2356POPC   GL228528   0.312  22.529   7.025  0.0111  0.1864 -0.2659
 2356POPC   C1A28529   0.793  22.642   6.815 -0.1347  0.0003 -0.2474
 2356POPC   D2A28530   0.863  22.471   6.359  0.1421  0.0325  0.0623
 2356POPC   C3A28531   0.507  22.450   6.066 -0.2240 -0.1162  0.1869
 2356POPC   C4A28532   0.350  22.685   5.697 -0.1464 -0.4571  0.0621
 2356POPC   C1B28533   0.323  22.625   6.630 -0.2470 -0.0549 -0.0396
 2356POPC   C2B28534   0.107  22.818   6.232  0.0447 -0.0665  0.1461
 2356POPC   C3B28535  -0.043  23.102   5.949 -0.1219 -0.0718  0.2099
 2356POPC   C4B28536  -0.374  23.431   6.020  0.0584 -0.3197  0.0532
 2357POPC   NC328537  14.689   9.284   7.709  0.2911  0.1818  0.1096
 2357POPC   PO428538  14.642   9.483   8.010  0.0994 -0.0281  0.1030
 2357POPC   GL128539  14.433   9.678   7.738  0.0411 -0.0336 -0.1533
 2357POPC   GL228540  14.306   9.579   7.544 -0.1208  0.1656  0.0694
 2357POPC   C1A28541  14.396  10.090   7.494 -0.1440 -0.2161  0.2028
 2357POPC   D2A28542  14.387  10.441   7.206 -0.3245 -0.1406 -0.1788
 2357POPC   C3A28543  14.207  10.480   6.793  0.3585  0.2153 -0.1067
 2357POPC   C4A28544  14.122  10.739   6.396 -0.0916 -0.0228 -0.0977
 2357POPC   C1B28545  14.113   9.433   7.149  0.0573 -0.0509  0.2754
 2357POPC   C2B28546  14.046   9.486   6.699  0.1505 -0.2100 -0.2025
 2357POPC   C3B28547  14.199   9.538   6.294  0.2798 -0.3692 -0.1854
 2357POPC   C4B28548  14.254   9.863   6.022  0.2527 -0.1050 -0.1784
 2358POPC   NC328549  10.933  31.259   7.837  0.0027  0.0509  0.3052
 2358POPC   PO428550  10.606  31.364   7.681 -0.3175  0.1741  0.2674
 2358POPC   GL128551  10.542  31.436   7.344  0.1603 -0.1783  0.2588
 2358POPC   GL228552  10.746  31.305   7.213 -0.1840  0.0457  0.0792
 2358POPC   C1A28553  10.428  31.744   7.094 -0.0177 -0.2280  0.1204
 2358POPC   D2A28554  10.354  31.984   6.659 -0.0165  0.2997 -0.1168
 2358POPC   C3A28555  10.645  31.949   6.265  0.1537 -0.0662  0.2005
 2358POPC   C4A28556  10.804  32.169   5.886  0.5063  0.2742  0.1060
 2358POPC   C1B28557  10.879  31.185   6.821 -0.0160  0.2182 -0.0403
 2358POPC   C2B28558  11.264  31.243   6.552 -0.1352 -0.5579 -0.0136
 2358POPC   C3B28559  11.557  31.520   6.297  0.0744 -0.0575 -0.3300
 2358POPC   C4B28560  11.804  31.725   5.930  0.2170 -0.4994 -0.0876
 2359POPC   NC328561   7.494   8.698   7.809 -0.0065 -0.0093  0.0858
 2359POPC   PO428562   7.708   8.402   7.722 -0.1844  0.3485 -0.1224
 2359POPC   GL128563   7.914   8.363   7.386 -0.2784 -0.1745  0.1232
 2359POPC   GL228564   8.237   8.530   7.231  0.1927  0.0060 -0.2999
 2359POPC   C1A28565   8.000   7.933   7.119  0.4906  0.0804 -0.1871
 2359POPC   D2A28566   8.221   7.700   6.806 -0.2185  0.0231 -0.3002
 2359POPC   C3A28567   8.113   7.539   6.405  0.1493  0.0839  0.0673
 2359POPC   C4A28568   7.932   7.457   5.965  0.1219  0.0517  0.0779
 2359POPC   C1B28569   8.335   8.578   6.719  0.2261  0.0669 -0.2190
 2359POPC   C2B28570   8.172   8.566   6.255 -0.0412 -0.1649  0.0687
 2359POPC   C3B28571   8.113   8.382   5.827  0.1948  0.4713 -0.1177
 2359POPC   C4B28572   8.067   8.228   5.406 -0.3233  0.0347 -0.1519
 2360POPC   NC328573  14.677  21.709   7.678 -0.0835 -0.0761  0.0039
 2360POPC   PO428574  15.068  21.785   7.703 -0.1268 -0.1087 -0.0006
 2360POPC   GL128575  14.942  21.685   7.281  0.1879 -0.2311  0.1962
 2360POPC   GL228576  14.890  21.399   7.351  0.0845  0.1480  0.0690
 2360POPC   C1A28577  15.040  21.896   6.872 -0.1592 -0.3259  0.2137
 2360POPC   D2A28578  14.922  21.573   6.494  0.1784 -0.1801  0.0956
 2360POPC   C3A28579  15.060  21.410   6.095  0.0206  0.2491  0.3214
 2360POPC   C4A28580  15.437  21.124   6.075  0.0438  0.1549  0.1268
 2360POPC   C1B28581  14.627  21.542   6.980 -0.2468  0.3180  0.0578
 2360POPC   C2B28582  14.473  21.361   6.554 -0.0454  0.0319  0.2149
 2360POPC   C3B28583  14.469  21.411   6.084 -0.1913 -0.3048  0.0087
 2360POPC   C4B28584  14.176  21.235   5.726  0.2456  0.0982 -0.0933
 2361POPC   NC328585   9.787   5.815   8.090 -0.0084  0.0472  0.0680
 2361POPC   PO428586   9.865   6.066   7.820  0.1762  0.3084 -0.0666
 2361POPC   GL128587   9.876   5.751   7.599  0.1046  0.1309  0.1917
 2361POPC   GL228588  10.137   5.735   7.442  0.1216 -0.2587 -0.0086
 2361POPC   C1A28589   9.731   5.753   7.113  0.0060 -0.0176  0.0033
 2361POPC   D2A28590   9.882   5.658   6.685 -0.2398 -0.0199 -0.3982
 2361POPC   C3A28591   9.878   5.909   6.303  0.1133 -0.0254  0.0040
 2361POPC   C4A28592  10.181   6.092   6.028 -0.1154 -0.0237 -0.1061
 2361POPC   C1B28593  10.202   5.868   6.987  0.0268 -0.2575  0.1176
 2361POPC   C2B28594  10.391   6.100   6.615  0.0569 -0.0839 -0.0569
 2361POPC   C3B28595  10.619   6.309   6.277 -0.1020  0.0965 -0.3508
 2361POPC   C4B28596  10.646   6.510   5.923  0.2183  0.2174 -0.0359
 2362POPC   NC328597   9.050   2.327   7.461  0.0245 -0.2185 -0.1685
 2362POPC   PO428598   8.686   2.189   7.486 -0.3688  0.2095 -0.0532
 2362POPC   GL128599   8.864   2.234   7.017 -0.0468  0.3167 -0.5030
 2362POPC   GL228600   8.801   2.423   6.917 -0.0572 -0.1881 -0.0030
 2362POPC   C1A28601   9.081   1.993   6.666 -0.1071 -0.0280  0.0597
 2362POPC   D2A28602   9.232   1.988   6.196  0.0755  0.2360 -0.0243
 2362POPC   C3A28603   8.967   1.817   5.886  0.1468 -0.4532 -0.0475
 2362POPC   C4A28604   8.649   1.791   5.560  0.0333 -0.0104  0.3300
 2362POPC   C1B28605   9.307   2.337   6.905 -0.2127 -0.1503  0.1699
 2362POPC   C2B28606   9.596   2.551   6.618  0.1661 -0.0943  0.2732
 2362POPC   C3B28607   9.674   2.681   6.207  0.1303  0.0905  0.2514
 2362POPC   C4B28608   9.943   2.866   5.861 -0.1225  0.2861 -0.0962
 2363POPC   NC328609   4.337   6.286   7.861 -0.1703 -0.0952  0.1347
 2363POPC   PO428610   4.025   6.521   7.866  0.1170 -0.0608  0.3422
 2363POPC   GL128611   3.921   6.350   7.487  0.0163  0.1330  0.4359
 2363POPC   GL228612   4.003   6.674   7.411  0.3012  0.1472 -0.0180
 2363POPC   C1A28613   4.006   6.298   7.030 -0.0026 -0.0162  0.0593
 2363POPC   D2A28614   3.989   6.138   6.644 -0.2432  0.1397 -0.2787
 2363POPC   C3A28615   4.045   6.354   6.267 -0.1094 -0.0490  0.1350
 2363POPC   C4A28616   4.212   6.238   5.811  0.0327 -0.0651  0.1078
 2363POPC   C1B28617   3.873   6.812   7.009  0.0177  0.0974 -0.1935
 2363POPC   C2B28618   3.887   6.808   6.550  0.1675 -0.2015  0.0725
 2363POPC   C3B28619   3.974   6.902   6.049 -0.0752 -0.0630  0.0579
 2363POPC   C4B28620   3.726   7.122   5.665  0.0136 -0.1171  0.1510
 2364POPC   NC328621  15.017  14.300   7.724  0.0685 -0.1825 -0.2334
 2364POPC   PO428622  14.835  13.987   7.662  0.0917  0.0489  0.1925
 2364POPC   GL128623  14.897  13.986   7.352  0.0626  0.0073 -0.0729
 2364POPC   GL228624  14.811  14.263   7.206 -0.2335 -0.2657 -0.2544
 2364POPC   C1A28625  15.096  13.985   6.945 -0.0810  0.4144  0.1811
 2364POPC   D2A28626  15.401  14.136   6.672 -0.1700  0.0607 -0.0449
 2364POPC   C3A28627  15.727  14.337   6.507  0.2317  0.0831  0.3479
 2364POPC   C4A28628  15.984  14.285   6.135  0.0200  0.0799 -0.0589
 2364POPC   C1B28629  14.476  14.390   6.917  0.2155  0.1236  0.0564
 2364POPC   C2B28630  14.293  14.447   6.535  0.2686  0.0830 -0.0384
 2364POPC   C3B28631  14.312  14.473   6.127 -0.1438  0.3677  0.0561
 2364POPC   C4B28632  14.307  14.489   5.683 -0.0822  0.2272  0.0850
 2365POPC   NC328633   8.653  21.618   7.955 -0.1069 -0.2092 -0.0354
 2365POPC   PO428634   8.690  21.194   7.929  0.2936 -0.0589 -0.0838
 2365POPC   GL128635   8.755  21.218   7.557 -0.1056  0.1256  0.1333
 2365POPC   GL228636   8.729  21.017   7.266 -0.1857  0.0321 -0.0498
 2365POPC   C1A28637   9.211  21.177   7.409  0.1930 -0.1643  0.1965
 2365POPC   D2A28638   9.572  21.215   7.073 -0.0629  0.0505  0.0644
 2365POPC   C3A28639   9.477  20.972   6.625  0.0970  0.0370  0.4015
 2365POPC   C4A28640   9.321  21.082   6.221 -0.2272  0.2393 -0.1998
 2365POPC   C1B28641   9.001  21.095   6.890 -0.3224  0.0739  0.0133
 2365POPC   C2B28642   8.819  21.161   6.464  0.2004  0.0900 -0.1628
 2365POPC   C3B28643   8.848  21.023   6.077  0.1030  0.0097 -0.2710
 2365POPC   C4B28644   9.146  20.958   5.732 -0.0171 -0.2338 -0.1074
 2366POPC   NC328645  14.087  22.493   7.755  0.2150 -0.4414  0.0616
 2366POPC   PO428646  14.436  22.626   7.627  0.1456 -0.0474 -0.0711
 2366POPC   GL128647  14.351  22.537   7.263 -0.0883  0.2803  0.2505
 2366POPC   GL228648  14.240  22.250   7.343  0.2691  0.2914  0.0650
 2366POPC   C1A28649  14.543  22.563   6.822 -0.0665 -0.2601  0.0007
 2366POPC   D2A28650  14.518  22.397   6.360 -0.0042 -0.1249 -0.0796
 2366POPC   C3A28651  14.299  22.529   5.928  0.1625 -0.1260 -0.0583
 2366POPC   C4A28652  14.479  22.755   5.518  0.1973  0.0088 -0.2775
 2366POPC   C1B28653  14.022  22.224   6.898 -0.3341 -0.4200 -0.2993
 2366POPC   C2B28654  14.139  22.169   6.474  0.2999  0.1359 -0.2161
 2366POPC   C3B28655  14.141  21.996   6.043  0.0031  0.2177  0.1422
 2366POPC   C4B28656  14.377  21.756   5.706  0.0900 -0.3354 -0.3066
 2367POPC   NC328657   9.861  21.871   7.754  0.1361  0.3011  0.0792
 2367POPC   PO428658   9.955  22.096   7.428 -0.1507 -0.0006 -0.0833
 2367POPC   GL128659  10.185  22.036   7.107 -0.2009  0.0836  0.0264
 2367POPC   GL228660  10.141  22.276   6.980 -0.0386  0.0026 -0.4730
 2367POPC   C1A28661  10.077  21.758   6.762 -0.0611 -0.0305  0.0518
 2367POPC   D2A28662   9.853  21.427   6.534  0.0195 -0.1435  0.2372
 2367POPC   C3A28663   9.544  21.498   6.137 -0.0616  0.1292  0.2097
 2367POPC   C4A28664   9.240  21.473   5.738  0.1824  0.1947  0.1938
 2367POPC   C1B28665   9.809  22.282   6.650  0.1098  0.2802 -0.1231
 2367POPC   C2B28666   9.732  22.472   6.265  0.0114  0.0149 -0.0557
 2367POPC   C3B28667   9.655  22.495   5.842  0.0468  0.0276  0.0926
 2367POPC   C4B28668   9.300  22.303   5.564  0.1810  0.1786 -0.0806
 2368POPC   NC328669  12.538   6.329   8.798 -0.1061 -0.1778 -0.1777
 2368POPC   PO428670  12.429   6.123   8.479 -0.0376 -0.2594 -0.1949
 2368POPC   GL128671  12.727   5.980   8.171 -0.2632  0.2989  0.1308
 2368POPC   GL228672  12.729   5.924   7.900  0.1273 -0.1716 -0.0523
 2368POPC   C1A28673  12.948   5.581   8.319 -0.1519 -0.1990  0.1426
 2368POPC   D2A28674  13.335   5.265   8.276  0.0341 -0.2900  0.0109
 2368POPC   C3A28675  13.762   5.185   8.397 -0.0881 -0.1408 -0.0603
 2368POPC   C4A28676  14.031   5.556   8.287 -0.0426 -0.0256 -0.0318
 2368POPC   C1B28677  12.878   5.877   7.494  0.0582 -0.0832  0.0184
 2368POPC   C2B28678  13.018   5.789   7.096 -0.2064  0.1096  0.2099
 2368POPC   C3B28679  13.258   5.551   6.786  0.0647 -0.2372 -0.0298
 2368POPC   C4B28680  13.298   5.468   6.338  0.1637  0.0712  0.2044
 2369POPC   NC328681  15.571  28.395   7.679  0.5778 -0.5279  0.1067
 2369POPC   PO428682  15.889  28.655   7.766 -0.3907 -0.1510 -0.0038
 2369POPC   GL128683  15.942  28.823   7.405  0.2389  0.0570 -0.0178
 2369POPC   GL228684  16.191  28.775   7.290 -0.1718  0.1499 -0.0929
 2369POPC   C1A28685  15.788  28.908   6.934 -0.0710  0.3297  0.1212
 2369POPC   D2A28686  15.715  29.060   6.547  0.1632 -0.0133 -0.0206
 2369POPC   C3A28687  15.965  28.949   6.165  0.3616 -0.1396 -0.1557
 2369POPC   C4A28688  15.804  28.865   5.747 -0.0566 -0.3478 -0.2339
 2369POPC   C1B28689  16.463  28.747   6.927  0.1869  0.2260  0.3905
 2369POPC   C2B28690  16.865  28.597   6.786 -0.0250  0.1076  0.1155
 2369POPC   C3B28691  17.260  28.437   6.570 -0.0155  0.0647 -0.2134
 2369POPC   C4B28692  17.342  28.301   6.147  0.3442 -0.1928  0.2800
 2370POPC   NC328693  15.237  18.956   9.218 -0.1939 -0.0328  0.1449
 2370POPC   PO428694  15.348  18.719   8.913  0.0532  0.0707 -0.0122
 2370POPC   GL128695  15.644  18.935   8.696  0.6028  0.1685 -0.1526
 2370POPC   GL228696  15.884  19.120   8.605  0.0511 -0.1593 -0.1239
 2370POPC   C1A28697  15.853  18.606   8.454 -0.1331 -0.0344 -0.0305
 2370POPC   D2A28698  16.200  18.378   8.295 -0.0468 -0.2127  0.2249
 2370POPC   C3A28699  16.526  18.482   8.528 -0.1070 -0.0628 -0.0576
 2370POPC   C4A28700  16.887  18.792   8.525 -0.1956  0.1127 -0.0035
 2370POPC   C1B28701  16.181  18.958   8.311  0.0846  0.2331 -0.1074
 2370POPC   C2B28702  16.494  18.752   8.034 -0.3194 -0.2409  0.0017
 2370POPC   C3B28703  16.688  18.430   7.729  0.0379 -0.0801  0.1288
 2370POPC   C4B28704  16.876  18.464   7.300 -0.2593 -0.1792  0.0380
 2371POPC   NC328705   7.668   9.338   7.546 -0.1223  0.2973 -0.0712
 2371POPC   PO428706   7.731   8.956   7.470  0.2578 -0.0706 -0.0647
 2371POPC   GL128707   7.657   8.716   7.125  0.1184  0.2376 -0.1544
 2371POPC   GL228708   7.493   8.493   7.271  0.0383 -0.1219  0.1231
 2371POPC   C1A28709   7.848   8.359   6.896  0.0746  0.0795  0.1133
 2371POPC   D2A28710   8.167   8.147   6.560 -0.2609  0.2103  0.2142
 2371POPC   C3A28711   8.150   7.957   6.139  0.2052 -0.1491 -0.4746
 2371POPC   C4A28712   8.185   7.825   5.673  0.1242 -0.0338  0.0659
 2371POPC   C1B28713   7.314   8.608   6.841  0.2488  0.0312  0.0560
 2371POPC   C2B28714   7.343   8.754   6.362 -0.2180 -0.0210 -0.3031
 2371POPC   C3B28715   7.364   8.910   5.902 -0.0535 -0.0904 -0.2165
 2371POPC   C4B28716   7.465   9.039   5.470  0.2117  0.1029 -0.0481
 2372POPC   NC328717  10.752   4.852   8.081 -0.0537  0.0055 -0.2540
 2372POPC   PO428718  10.444   4.849   7.841  0.2652 -0.3000  0.0336
 2372POPC   GL128719  10.628   4.678   7.543 -0.0461 -0.1153  0.3002
 2372POPC   GL228720  10.672   4.412   7.477  0.1339 -0.3299  0.0043
 2372POPC   C1A28721  10.746   4.858   7.078 -0.1150  0.0802 -0.0148
 2372POPC   D2A28722  10.785   4.834   6.669  0.0116  0.2784 -0.0873
 2372POPC   C3A28723  10.771   4.535   6.382  0.2034  0.0993  0.4929
 2372POPC   C4A28724  10.798   4.257   6.006 -0.2086 -0.2517  0.1260
 2372POPC   C1B28725  11.004   4.389   7.186 -0.0721 -0.0760  0.0718
 2372POPC   C2B28726  11.128   4.362   6.690 -0.1339 -0.2842  0.0343
 2372POPC   C3B28727  11.194   4.174   6.263  0.1722  0.0692 -0.1549
 2372POPC   C4B28728  11.189   3.998   5.924 -0.2607  0.2560 -0.0858
 2373POPC   NC328729   8.510  15.698   7.978 -0.0438 -0.2140 -0.3814
 2373POPC   PO428730   8.357  16.067   7.916  0.1428  0.2110 -0.1508
 2373POPC   GL128731   8.539  16.094   7.591  0.2125  0.0727  0.1825
 2373POPC   GL228732   8.527  15.783   7.487 -0.2343 -0.1431  0.2111
 2373POPC   C1A28733   8.495  16.291   7.168 -0.2370 -0.1396  0.2770
 2373POPC   D2A28734   8.501  16.649   6.865 -0.3856  0.0761  0.0159
 2373POPC   C3A28735   8.196  16.762   6.538 -0.2370 -0.1738  0.0746
 2373POPC   C4A28736   8.124  16.584   6.130  0.0469 -0.0102 -0.0729
 2373POPC   C1B28737   8.931  16.077   7.345 -0.0500  0.0301  0.1232
 2373POPC   C2B28738   9.197  16.138   6.982 -0.1527 -0.0584 -0.3565
 2373POPC   C3B28739   9.389  16.311   6.624 -0.0586  0.0013  0.2795
 2373POPC   C4B28740   9.518  16.746   6.546 -0.2381 -0.4472  0.0361
 2374POPC   NC328741   2.967  31.007   8.604  0.0018 -0.3960  0.1320
 2374POPC   PO428742   2.981  31.399   8.541  0.2194  0.1374 -0.0530
 2374POPC   GL128743   2.708  31.343   8.229 -0.0267  0.5012  0.1713
 2374POPC   GL228744   2.692  31.069   8.188 -0.2577  0.1183  0.1099
 2374POPC   C1A28745   2.250  31.356   8.165 -0.1995  0.0664 -0.1202
 2374POPC   D2A28746   1.877  31.178   7.950 -0.2583 -0.1247 -0.0443
 2374POPC   C3A28747   1.723  31.488   7.651  0.4288  0.1553 -0.1424
 2374POPC   C4A28748   1.620  31.565   7.190  0.1233 -0.0527  0.0707
 2374POPC   C1B28749   2.403  30.853   7.975  0.0877 -0.0025  0.0993
 2374POPC   C2B28750   2.222  30.674   7.568  0.0429 -0.0438 -0.4246
 2374POPC   C3B28751   2.313  30.450   7.174 -0.0327  0.2839 -0.1626
 2374POPC   C4B28752   2.128  30.318   6.730  0.0450 -0.0220 -0.2131
 2375POPC   NC328753  12.533  11.140   8.011 -0.0677  0.1835  0.2289
 2375POPC   PO428754  12.938  11.099   7.864 -0.2641 -0.0458 -0.1976
 2375POPC   GL128755  12.549  10.939   7.591 -0.2405  0.0978  0.0392
 2375POPC   GL228756  12.502  11.164   7.446 -0.4233  0.0334  0.0888
 2375POPC   C1A28757  12.358  10.697   7.229  0.0745  0.1786 -0.2676
 2375POPC   D2A28758  12.614  10.599   6.883  0.1907 -0.1272 -0.0952
 2375POPC   C3A28759  12.519  10.411   6.469 -0.1559 -0.0748  0.0077
 2375POPC   C4A28760  12.679  10.344   6.027 -0.1769 -0.1138 -0.2534
 2375POPC   C1B28761  12.861  11.176   7.128  0.1513  0.0184  0.0171
 2375POPC   C2B28762  13.153  11.059   6.758  0.0823 -0.3384  0.1465
 2375POPC   C3B28763  13.432  10.790   6.445  0.1717 -0.0215 -0.0887
 2375POPC   C4B28764  13.553  10.570   6.108  0.2761  0.0117 -0.2950
 2376POPC   NC328765   7.375  30.592   7.704  0.2452  0.1103 -0.2502
 2376POPC   PO428766   6.994  30.586   7.690 -0.1429  0.1715  0.2066
 2376POPC   GL128767   6.988  30.594   7.357 -0.0764 -0.2765  0.1595
 2376POPC   GL228768   7.221  30.355   7.230  0.2768  0.2311 -0.1031
 2376POPC   C1A28769   6.810  30.549   6.955  0.3619 -0.0612  0.0206
 2376POPC   D2A28770   6.898  30.241   6.621 -0.1526 -0.1593  0.1419
 2376POPC   C3A28771   6.822  30.312   6.177  0.1025  0.2276 -0.0798
 2376POPC   C4A28772   6.994  30.559   5.785  0.2544 -0.0797  0.2200
 2376POPC   C1B28773   7.416  30.125   6.856  0.2091  0.2183  0.0266
 2376POPC   C2B28774   7.364  30.094   6.309 -0.1758 -0.0757 -0.4187
 2376POPC   C3B28775   7.453  30.057   5.897  0.1798 -0.2096 -0.2874
 2376POPC   C4B28776   7.883  30.028   5.780 -0.2130  0.2218  0.2936
 2377POPC   NC328777  14.883  19.551   7.886 -0.1019 -0.2132 -0.0945
 2377POPC   PO428778  14.678  19.266   7.696  0.2662  0.0656  0.1050
 2377POPC   GL128779  15.053  19.210   7.479  0.4758 -0.0987  0.2340
 2377POPC   GL228780  15.232  19.334   7.574 -0.3123  0.0154  0.3126
 2377POPC   C1A28781  15.176  19.394   7.084 -0.0363  0.0183 -0.1409
 2377POPC   D2A28782  15.294  19.782   6.811 -0.2082  0.3141  0.1350
 2377POPC   C3A28783  15.353  19.719   6.374 -0.1699 -0.1234 -0.1771
 2377POPC   C4A28784  15.729  19.605   6.158  0.1341 -0.1228  0.2008
 2377POPC   C1B28785  15.663  19.282   7.416  0.0658  0.1941 -0.1012
 2377POPC   C2B28786  15.966  19.247   7.063 -0.1311  0.2082  0.1156
 2377POPC   C3B28787  16.341  19.238   6.794  0.1693 -0.1070 -0.0435
 2377POPC   C4B28788  16.415  19.229   6.356  0.1978 -0.1123  0.0210
 2378POPC   NC328789   2.423  21.275   8.271  0.0239 -0.1321  0.1450
 2378POPC   PO428790   2.567  21.641   8.107 -0.2403  0.0124  0.0227
 2378POPC   GL128791   2.540  21.658   7.651 -0.0430 -0.0244  0.0998
 2378POPC   GL228792   2.614  21.792   7.446 -0.2894  0.0869  0.1947
 2378POPC   C1A28793   2.234  21.550   7.358  0.1008 -0.0026  0.1202
 2378POPC   D2A28794   1.768  21.585   7.305 -0.0349  0.0044 -0.2442
 2378POPC   C3A28795   1.398  21.591   6.974 -0.0769 -0.0741 -0.0469
 2378POPC   C4A28796   1.010  21.363   6.900 -0.1843 -0.2494 -0.0935
 2378POPC   C1B28797   2.522  21.680   7.013 -0.2703 -0.1769 -0.0018
 2378POPC   C2B28798   2.218  21.472   6.714 -0.1038 -0.1238  0.0213
 2378POPC   C3B28799   1.998  21.267   6.334 -0.0529  0.0087 -0.1978
 2378POPC   C4B28800   1.730  20.854   6.345  0.0690  0.0978  0.2789
 2379POPC   NC328801   7.712  28.255   7.938  0.2723 -0.0495  0.0020
 2379POPC   PO428802   7.884  28.455   8.203  0.2752 -0.1772 -0.0880
 2379POPC   GL128803   8.180  28.237   8.127  0.4217  0.2302 -0.0307
 2379POPC   GL228804   8.168  28.278   7.818 -0.0440  0.0816 -0.4142
 2379POPC   C1A28805   8.621  28.259   7.988  0.1488 -0.0891  0.0132
 2379POPC   D2A28806   9.098  28.137   8.009 -0.1583 -0.2055 -0.2192
 2379POPC   C3A28807   9.403  28.001   7.618  0.1901 -0.0629 -0.0381
 2379POPC   C4A28808   9.326  28.077   7.186 -0.0480 -0.1497  0.0813
 2379POPC   C1B28809   7.947  28.463   7.472 -0.1307  0.1319 -0.0078
 2379POPC   C2B28810   7.783  28.570   7.066  0.1063  0.1281  0.0788
 2379POPC   C3B28811   7.828  28.598   6.613 -0.1292  0.3031  0.1302
 2379POPC   C4B28812   7.907  28.420   6.154  0.2851 -0.1384 -0.2176
 2380POPC   NC328813   9.411  25.794   7.924 -0.1699 -0.2361 -0.0359
 2380POPC   PO428814   9.753  25.633   7.751 -0.0111  0.1024 -0.0626
 2380POPC   GL128815   9.604  25.603   7.467  0.4550  0.2260  0.2632
 2380POPC   GL228816   9.444  25.887   7.439  0.1711 -0.0316  0.0370
 2380POPC   C1A28817   9.583  25.562   7.016  0.1006  0.1746  0.0531
 2380POPC   D2A28818   9.616  25.744   6.592 -0.4077 -0.0378  0.0154
 2380POPC   C3A28819   9.319  26.134   6.482  0.1945  0.1809  0.2196
 2380POPC   C4A28820   9.223  26.532   6.208 -0.1546 -0.2183 -0.2198
 2380POPC   C1B28821   9.089  26.087   7.182 -0.1797 -0.1071 -0.1826
 2380POPC   C2B28822   8.849  26.063   6.774 -0.1741 -0.0465 -0.1398
 2380POPC   C3B28823   8.805  26.141   6.342  0.0044 -0.0412  0.0366
 2380POPC   C4B28824   8.940  26.328   5.875  0.0808  0.1182 -0.0374
 2381POPC   NC328825   6.844  28.151   8.247 -0.1624 -0.0243 -0.0107
 2381POPC   PO428826   6.865  28.356   7.908 -0.1987  0.0154  0.0660
 2381POPC   GL128827   6.887  28.290   7.626  0.1951  0.5777  0.0065
 2381POPC   GL228828   7.060  28.376   7.437 -0.3194  0.1528  0.1233
 2381POPC   C1A28829   6.666  28.045   7.295 -0.1105  0.2208  0.1137
 2381POPC   D2A28830   6.310  27.827   7.001  0.0237 -0.2251 -0.0791
 2381POPC   C3A28831   6.465  27.904   6.562 -0.2456  0.1394 -0.1933
 2381POPC   C4A28832   6.661  27.797   6.156 -0.1793  0.1453  0.1276
 2381POPC   C1B28833   7.474  28.168   7.396  0.1579  0.0871  0.3858
 2381POPC   C2B28834   7.778  27.949   7.108 -0.2631  0.2510  0.1817
 2381POPC   C3B28835   8.118  27.755   6.812 -0.0493  0.1925  0.1805
 2381POPC   C4B28836   8.531  27.835   6.603  0.0783 -0.0865  0.1233
 2382POPC   NC328837  10.762  24.229   7.843  0.1132  0.0075 -0.2457
 2382POPC   PO428838  10.473  24.008   7.798  0.3613 -0.0478  0.0953
 2382POPC   GL128839  10.237  23.988   7.522  0.0436 -0.0793 -0.2251
 2382POPC   GL228840  10.215  23.807   7.289  0.2047 -0.0851 -0.1034
 2382POPC   C1A28841  10.012  24.223   7.242  0.0571 -0.0477  0.0998
 2382POPC   D2A28842   9.634  24.307   6.933  0.0505  0.0733 -0.2151
 2382POPC   C3A28843   9.672  24.260   6.454  0.1515 -0.3585  0.1418
 2382POPC   C4A28844   9.477  24.352   6.050  0.0509 -0.1612 -0.2205
 2382POPC   C1B28845  10.121  23.755   6.810  0.1938 -0.1293 -0.1060
 2382POPC   C2B28846  10.023  23.896   6.331 -0.0047 -0.2565 -0.1934
 2382POPC   C3B28847   9.876  24.072   5.904  0.1719  0.2422 -0.3499
 2382POPC   C4B28848   9.425  23.902   5.801 -0.1366  0.1953 -0.1549
 2383POPC   NC328849   5.631  23.692   7.373  0.2016  0.1925 -0.0165
 2383POPC   PO428850   5.895  23.573   7.653  0.0207  0.0698  0.1464
 2383POPC   GL128851   6.114  23.662   7.388  0.4134 -0.3162 -0.1446
 2383POPC   GL228852   6.026  23.882   7.209 -0.0603  0.1266  0.3120
 2383POPC   C1A28853   6.310  23.362   7.094  0.1611 -0.3677  0.0345
 2383POPC   D2A28854   6.640  23.097   6.982  0.0021 -0.0152  0.0477
 2383POPC   C3A28855   6.682  22.971   6.521 -0.0246  0.0541 -0.1900
 2383POPC   C4A28856   6.472  22.820   6.130 -0.0449  0.1070 -0.2231
 2383POPC   C1B28857   6.237  23.776   6.789 -0.0666 -0.2622  0.0607
 2383POPC   C2B28858   6.269  23.448   6.461 -0.2588 -0.1139 -0.1794
 2383POPC   C3B28859   6.305  23.398   5.999  0.0781  0.2237  0.1228
 2383POPC   C4B28860   6.181  23.457   5.518  0.2596  0.1954  0.0410
 2384POPC   NC328861   6.817  16.695   7.369 -0.1929 -0.0341  0.0770
 2384POPC   PO428862   6.533  16.793   7.583 -0.0604 -0.1752 -0.1087
 2384POPC   GL128863   6.391  17.007   7.299  0.0483 -0.0762  0.1605
 2384POPC   GL228864   6.580  17.203   7.295 -0.0558  0.4238  0.0374
 2384POPC   C1A28865   6.630  16.993   6.892  0.2179 -0.0744  0.1906
 2384POPC   D2A28866   6.832  16.896   6.491 -0.1271 -0.1352 -0.0814
 2384POPC   C3A28867   6.928  16.516   6.343  0.1970  0.0266 -0.0364
 2384POPC   C4A28868   6.945  16.203   6.070  0.0681  0.1454 -0.1787
 2384POPC   C1B28869   6.906  17.385   7.010 -0.3153  0.1306 -0.0841
 2384POPC   C2B28870   7.246  17.359   6.688 -0.1142  0.2811  0.3138
 2384POPC   C3B28871   7.663  17.513   6.372  0.1869 -0.1101 -0.2266
 2384POPC   C4B28872   7.995  17.688   6.101 -0.0193  0.0112  0.2866
 2385POPC   NC328873   3.586  17.502   7.167  0.0624 -0.0264  0.1662
 2385POPC   PO428874   3.432  17.199   7.374 -0.0436 -0.0703  0.2808
 2385POPC   GL128875   3.250  17.080   7.048  0.0722  0.0285 -0.0520
 2385POPC   GL228876   3.221  17.324   6.834  0.2790  0.3349  0.1389
 2385POPC   C1A28877   3.274  16.805   6.665  0.0390 -0.1750 -0.0860
 2385POPC   D2A28878   3.595  16.766   6.351  0.1712 -0.1479 -0.0094
 2385POPC   C3A28879   3.541  16.467   6.040 -0.1312 -0.0481  0.0632
 2385POPC   C4A28880   3.634  16.187   5.695  0.2810 -0.2274 -0.2886
 2385POPC   C1B28881   3.104  17.217   6.408  0.1743 -0.3027  0.1805
 2385POPC   C2B28882   2.990  17.386   5.971 -0.0610  0.0008 -0.0301
 2385POPC   C3B28883   2.789  17.431   5.576 -0.1298 -0.0589 -0.1343
 2385POPC   C4B28884   2.848  17.610   5.160 -0.0073 -0.0103 -0.3378
 2386POPC   NC328885   2.089  13.441   7.790 -0.0030 -0.0691  0.1343
 2386POPC   PO428886   1.971  13.077   7.749 -0.0707 -0.1580 -0.3135
 2386POPC   GL128887   1.724  13.135   7.439 -0.2331  0.0294 -0.0674
 2386POPC   GL228888   1.892  13.012   7.282 -0.1691  0.4073  0.0385
 2386POPC   C1A28889   1.237  13.119   7.313  0.0051 -0.0136  0.0714
 2386POPC   D2A28890   0.884  13.013   6.984  0.0333 -0.2192  0.0106
 2386POPC   C3A28891   0.964  13.178   6.588 -0.0045  0.2480 -0.0863
 2386POPC   C4A28892   1.138  13.021   6.189  0.0164  0.0130 -0.1663
 2386POPC   C1B28893   1.824  12.994   6.816 -0.0331  0.1144 -0.3298
 2386POPC   C2B28894   1.891  12.731   6.409  0.1065 -0.0892  0.1386
 2386POPC   C3B28895   2.122  12.370   6.214  0.1391  0.0583  0.1437
 2386POPC   C4B28896   2.129  12.124   5.819  0.0879  0.0117 -0.2019
 2387POPC   NC328897  12.224  18.059   7.462  0.2065 -0.0179 -0.1175
 2387POPC   PO428898  12.351  18.422   7.431  0.0597 -0.0006  0.0336
 2387POPC   GL128899  12.444  18.355   7.105 -0.1274 -0.1073  0.3319
 2387POPC   GL228900  12.589  18.089   7.149 -0.1936 -0.0379 -0.2935
 2387POPC   C1A28901  12.382  18.351   6.632  0.0651  0.1222 -0.0070
 2387POPC   D2A28902  12.341  18.802   6.488  0.6085  0.0290  0.0983
 2387POPC   C3A28903  11.880  18.769   6.556 -0.2481  0.1985  0.2754
 2387POPC   C4A28904  11.682  18.635   6.906 -0.2346  0.1445  0.2184
 2387POPC   C1B28905  12.249  17.929   6.856  0.0967  0.2936 -0.0085
 2387POPC   C2B28906  12.127  17.853   6.440 -0.2747  0.0069  0.4076
 2387POPC   C3B28907  12.391  17.957   6.069  0.0088 -0.3792  0.1531
 2387POPC   C4B28908  12.364  17.719   5.673 -0.0414  0.1575 -0.0416
 2388POPC   NC328909  15.433  11.955   7.748  0.2009 -0.2420  0.4258
 2388POPC   PO428910  15.767  11.770   7.701 -0.0920 -0.0407 -0.0475
 2388POPC   GL128911  15.749  11.851   7.377 -0.3321  0.0062  0.1864
 2388POPC   GL228912  15.812  12.117   7.368 -0.2793 -0.0764  0.1326
 2388POPC   C1A28913  15.677  11.686   6.916 -0.2027 -0.0375 -0.0306
 2388POPC   D2A28914  16.050  11.804   6.587 -0.2019  0.0643 -0.0133
 2388POPC   C3A28915  15.967  11.941   6.179 -0.0269 -0.2311  0.3966
 2388POPC   C4A28916  15.906  12.137   5.758  0.0728  0.1038 -0.2665
 2388POPC   C1B28917  16.127  11.901   7.093 -0.0497 -0.1242 -0.2859
 2388POPC   C2B28918  16.492  12.022   6.893 -0.2032 -0.0619  0.2208
 2388POPC   C3B28919  16.516  11.986   6.417 -0.2565  0.0533 -0.3148
 2388POPC   C4B28920  16.492  11.946   5.966  0.1158 -0.0116 -0.1078
 2389POPC   NC328921  14.593  13.251   7.789  0.1018  0.1857 -0.2769
 2389POPC   PO428922  14.918  13.394   7.711  0.1301  0.0585 -0.0521
 2389POPC   GL128923  14.989  13.191   7.364 -0.2001 -0.0088 -0.4292
 2389POPC   GL228924  15.209  13.428   7.228  0.0394 -0.1264 -0.1044
 2389POPC   C1A28925  14.931  13.022   6.957  0.1938  0.2300 -0.0472
 2389POPC   D2A28926  14.846  13.169   6.516 -0.0039  0.1794  0.2103
 2389POPC   C3A28927  14.573  13.219   6.104 -0.2147 -0.1639  0.2095
 2389POPC   C4A28928  14.305  13.455   5.834  0.0202  0.1284 -0.2620
 2389POPC   C1B28929  15.302  13.540   6.799 -0.1711  0.2170  0.2318
 2389POPC   C2B28930  15.340  13.539   6.317  0.0292  0.1515  0.0354
 2389POPC   C3B28931  15.018  13.515   5.930  0.0491 -0.1875 -0.0578
 2389POPC   C4B28932  14.734  13.627   5.589  0.0366  0.1608 -0.0673
 2390POPC   NC328933  12.875  19.321   7.355  0.3052  0.1025 -0.0907
 2390POPC   PO428934  12.580  19.074   7.403 -0.2943 -0.1464  0.1036
 2390POPC   GL128935  12.428  19.044   6.996 -0.0223  0.2023  0.4464
 2390POPC   GL228936  12.571  18.773   6.901 -0.1453 -0.2659 -0.1812
 2390POPC   C1A28937  12.384  19.474   6.848 -0.0599  0.1611  0.3756
 2390POPC   D2A28938  12.429  19.668   6.455  0.2256  0.0324 -0.1825
 2390POPC   C3A28939  12.372  19.426   6.065  0.1032 -0.2846  0.0038
 2390POPC   C4A28940  12.507  18.979   5.980  0.1908 -0.0747  0.0297
 2390POPC   C1B28941  12.765  19.102   6.654 -0.1156  0.3581 -0.1513
 2390POPC   C2B28942  12.864  19.347   6.254 -0.0208 -0.2682  0.0212
 2390POPC   C3B28943  12.971  19.252   5.821  0.1368  0.0787 -0.0432
 2390POPC   C4B28944  13.181  19.531   5.506 -0.0343  0.1287 -0.1305
 2391POPC   NC328945  13.082  22.492   7.347 -0.1449  0.0007 -0.3795
 2391POPC   PO428946  13.138  22.902   7.284  0.0727  0.1233 -0.0890
 2391POPC   GL128947  13.135  22.756   6.902  0.4337 -0.2390 -0.2400
 2391POPC   GL228948  13.427  22.718   6.834 -0.5398  0.3841 -0.2231
 2391POPC   C1A28949  13.106  22.683   6.440  0.1438  0.3040 -0.0005
 2391POPC   D2A28950  13.112  22.597   5.946  0.2422  0.0240 -0.0494
 2391POPC   C3A28951  12.760  22.800   5.693  0.1697 -0.0750 -0.0258
 2391POPC   C4A28952  12.336  22.878   5.598  0.0353 -0.3849 -0.1659
 2391POPC   C1B28953  13.695  23.061   6.679  0.3005  0.0522 -0.2066
 2391POPC   C2B28954  13.943  23.278   6.426 -0.2595 -0.3235  0.1933
 2391POPC   C3B28955  14.022  23.448   6.002 -0.0755 -0.2423 -0.1830
 2391POPC   C4B28956  14.197  23.688   5.640  0.0090  0.4258 -0.2601
 2392POPC   NC328957  12.644  24.420   7.739 -0.0883  0.0245 -0.0045
 2392POPC   PO428958  12.256  24.385   7.639  0.1351 -0.0142 -0.2220
 2392POPC   GL128959  12.270  24.451   7.251 -0.3458  0.0121  0.2693
 2392POPC   GL228960  12.011  24.538   7.148 -0.0376 -0.1156  0.0812
 2392POPC   C1A28961  12.293  24.232   6.808  0.3830 -0.1719 -0.0233
 2392POPC   D2A28962  11.933  23.996   6.608 -0.2002 -0.3287 -0.0426
 2392POPC   C3A28963  11.767  24.219   6.249  0.3084  0.0720 -0.0083
 2392POPC   C4A28964  11.821  24.616   6.049  0.1079 -0.1502 -0.1432
 2392POPC   C1B28965  11.984  24.581   6.696  0.2514  0.0543 -0.1129
 2392POPC   C2B28966  12.206  24.415   6.309  0.1299 -0.0380 -0.3001
 2392POPC   C3B28967  12.142  24.184   5.922 -0.2450  0.2614  0.2621
 2392POPC   C4B28968  11.816  23.870   5.832  0.0432 -0.1015 -0.0471
 2393POPC   NC328969   7.873   5.878   7.483 -0.1228 -0.0757 -0.0307
 2393POPC   PO428970   7.788   5.499   7.530  0.0796  0.5282 -0.3667
 2393POPC   GL128971   7.622   5.487   7.220  0.0921 -0.2802  0.2782
 2393POPC   GL228972   7.375   5.687   7.213  0.0240 -0.3106 -0.0711
 2393POPC   C1A28973   7.451   5.133   6.942 -0.0937 -0.1003  0.2294
 2393POPC   D2A28974   7.189   4.811   6.768 -0.0271  0.1144 -0.0176
 2393POPC   C3A28975   6.798   4.775   6.962 -0.1133  0.3282  0.0810
 2393POPC   C4A28976   6.384   4.807   6.719 -0.0157  0.0219  0.1034
 2393POPC   C1B28977   6.998   5.484   7.054 -0.0595  0.0853  0.3407
 2393POPC   C2B28978   6.953   5.227   6.673  0.1293 -0.2035  0.1658
 2393POPC   C3B28979   6.820   4.819   6.419 -0.1620  0.0121  0.3145
 2393POPC   C4B28980   6.499   4.467   6.368  0.1525 -0.2661 -0.1663
 2394POPC   NC328981  13.691   2.399   8.163  0.1425 -0.2018  0.0030
 2394POPC   PO428982  13.394   2.357   7.888 -0.0479  0.0588 -0.1629
 2394POPC   GL128983  13.591   2.686   7.672 -0.4522  0.0186  0.2012
 2394POPC   GL228984  13.444   2.659   7.470  0.1751 -0.0533 -0.0089
 2394POPC   C1A28985  13.725   3.068   7.457 -0.3883 -0.2939  0.2077
 2394POPC   D2A28986  13.628   3.336   7.074  0.1138  0.1917 -0.0473
 2394POPC   C3A28987  13.227   3.540   6.959  0.1218  0.0879  0.1150
 2394POPC   C4A28988  13.054   3.725   6.583 -0.1099  0.0719  0.1957
 2394POPC   C1B28989  13.683   2.718   7.117  0.1747 -0.0701 -0.3275
 2394POPC   C2B28990  13.611   2.895   6.742  0.0495  0.0993 -0.0592
 2394POPC   C3B28991  13.581   2.794   6.324  0.0126  0.0816 -0.0725
 2394POPC   C4B28992  13.773   2.711   5.946  0.0717  0.0987 -0.0096
 2395POPC   NC328993   4.372   9.869   8.143 -0.0929  0.0757 -0.0026
 2395POPC   PO428994   4.152  10.120   7.934  0.1391 -0.1956  0.0427
 2395POPC   GL128995   3.933  10.015   7.614  0.0775  0.0676 -0.2194
 2395POPC   GL228996   4.081   9.778   7.449  0.1036 -0.3811  0.1952
 2395POPC   C1A28997   3.846  10.157   7.138 -0.0151  0.1280  0.2240
 2395POPC   D2A28998   3.792  10.036   6.736 -0.2699 -0.0733  0.0742
 2395POPC   C3A28999   3.920   9.877   6.339  0.2496  0.0752  0.0393
 2395POPC   C4A29000   3.830   9.887   5.852 -0.1326 -0.0567 -0.0680
 2395POPC   C1B29001   3.841   9.545   7.116 -0.2067  0.0905 -0.0906
 2395POPC   C2B29002   3.963   9.524   6.651 -0.0730  0.1387 -0.1421
 2395POPC   C3B29003   4.428   9.592   6.479  0.1673  0.0067 -0.3436
 2395POPC   C4B29004   4.550   9.336   6.145  0.1253 -0.0858  0.2401
 2396POPC   NC329005   5.860   2.150   7.509  0.3264  0.1004  0.0362
 2396POPC   PO429006   5.637   2.104   7.787  0.0364 -0.0116  0.0322
 2396POPC   GL129007   5.450   2.405   7.501  0.1634  0.5540  0.3005
 2396POPC   GL229008   5.665   2.614   7.415 -0.0910  0.2506  0.0558
 2396POPC   C1A29009   5.327   2.408   7.036 -0.2358  0.0033 -0.0981
 2396POPC   D2A29010   5.276   2.431   6.541 -0.1080  0.2130  0.1509
 2396POPC   C3A29011   5.113   2.769   6.244  0.0231  0.2698  0.1021
 2396POPC   C4A29012   4.897   3.000   5.907  0.0842  0.0189 -0.1884
 2396POPC   C1B29013   5.298   2.834   7.341 -0.0985  0.0223 -0.3177
 2396POPC   C2B29014   5.211   3.230   7.613 -0.1697  0.2718 -0.0015
 2396POPC   C3B29015   5.295   3.391   8.043  0.1158  0.0411 -0.2096
 2396POPC   C4B29016   5.595   3.698   8.264 -0.0094 -0.2260 -0.0162
 2397POPC   NC329017   5.418  15.562   7.664  0.0922  0.0609 -0.0162
 2397POPC   PO429018   5.353  15.219   7.825  0.3228  0.2812 -0.1691
 2397POPC   GL129019   5.365  15.080   7.498 -0.2267 -0.0870  0.3011
 2397POPC   GL229020   5.422  15.231   7.301 -0.0198 -0.0813  0.1341
 2397POPC   C1A29021   5.224  14.721   7.275 -0.0004  0.1281 -0.0081
 2397POPC   D2A29022   5.173  14.571   6.855  0.0724 -0.1956 -0.0225
 2397POPC   C3A29023   4.785  14.626   6.634  0.3874 -0.1133  0.4660
 2397POPC   C4A29024   4.810  14.972   6.267  0.0632 -0.2900  0.2638
 2397POPC   C1B29025   5.467  15.180   6.860  0.1333 -0.1477  0.1769
 2397POPC   C2B29026   5.688  15.155   6.456 -0.3058  0.1459 -0.1181
 2397POPC   C3B29027   5.690  15.423   6.082  0.2890  0.1189 -0.1010
 2397POPC   C4B29028   5.544  15.586   5.671 -0.2133  0.2295  0.1916
 2398POPC   NC329029   9.517   5.990   7.465 -0.0189 -0.1376 -0.2690
 2398POPC   PO429030   9.370   5.717   7.664  0.0621 -0.0947  0.1085
 2398POPC   GL129031   9.488   5.424   7.358  0.3319  0.1603  0.0587
 2398POPC   GL229032   9.243   5.561   7.141  0.0768 -0.0913  0.3413
 2398POPC   C1A29033   9.883   5.250   7.226 -0.2500  0.3530 -0.0502
 2398POPC   D2A29034  10.294   5.337   7.179  0.3194  0.0853  0.0875
 2398POPC   C3A29035  10.533   5.253   6.799  0.0134  0.0069 -0.1009
 2398POPC   C4A29036  10.516   5.103   6.394 -0.0569  0.0525 -0.2801
 2398POPC   C1B29037   9.442   5.432   6.691  0.1078 -0.0280  0.0788
 2398POPC   C2B29038   9.645   5.459   6.273 -0.2409 -0.2236 -0.1311
 2398POPC   C3B29039   9.560   5.573   5.830  0.0877 -0.0673  0.2633
 2398POPC   C4B29040   9.523   5.888   5.539 -0.0166 -0.1313  0.0814
 2399POPC   NC329041   2.623  16.922   7.493  0.2353  0.0711 -0.5289
 2399POPC   PO429042   2.475  16.936   7.872  0.1721  0.2262  0.0642
 2399POPC   GL129043   2.264  17.217   7.645  0.3859  0.1994 -0.3097
 2399POPC   GL229044   2.135  16.985   7.546 -0.0097 -0.0645 -0.0523
 2399POPC   C1A29045   2.161  17.649   7.499  0.2558  0.0110  0.1707
 2399POPC   D2A29046   2.196  17.728   7.039 -0.0787 -0.1747 -0.1911
 2399POPC   C3A29047   1.847  17.808   6.785  0.1636  0.0874  0.0434
 2399POPC   C4A29048   1.491  17.725   6.511 -0.1699  0.0194  0.1074
 2399POPC   C1B29049   2.171  17.227   7.191  0.1287  0.1020  0.1812
 2399POPC   C2B29050   2.211  17.309   6.744  0.0136  0.1282 -0.3280
 2399POPC   C3B29051   2.238  17.728   6.472 -0.0668 -0.0589 -0.1240
 2399POPC   C4B29052   1.880  17.960   6.323 -0.1278  0.1171 -0.0874
 2400POPC   NC329053   4.174  26.317   8.052 -0.1279 -0.0791  0.0239
 2400POPC   PO429054   4.399  26.581   7.857  0.1847 -0.0417  0.1255
 2400POPC   GL129055   4.727  26.734   7.815 -0.4312  0.1132 -0.1830
 2400POPC   GL229056   4.777  26.714   7.537  0.1193 -0.1134  0.1895
 2400POPC   C1A29057   4.768  27.176   7.601 -0.1319 -0.2201  0.3524
 2400POPC   D2A29058   4.814  27.651   7.439  0.3962  0.1843 -0.2131
 2400POPC   C3A29059   4.902  27.741   7.025  0.1001  0.1463  0.2085
 2400POPC   C4A29060   5.080  27.706   6.612  0.0869 -0.0886 -0.0634
 2400POPC   C1B29061   4.720  26.521   7.120  0.2140  0.0842  0.0498
 2400POPC   C2B29062   4.518  26.678   6.722  0.1596  0.1144  0.0187
 2400POPC   C3B29063   4.544  26.418   6.328  0.0435 -0.2048  0.2423
 2400POPC   C4B29064   4.550  26.605   5.880 -0.1204  0.1902  0.0333
 2401POPC   NC329065  12.443  30.639   8.047  0.0403  0.1217 -0.2051
 2401POPC   PO429066  12.520  30.887   7.736 -0.1817  0.3069  0.0135
 2401POPC   GL129067  12.540  30.797   7.414 -0.0262  0.1811  0.3205
 2401POPC   GL229068  12.261  30.542   7.333 -0.0911 -0.2231 -0.0323
 2401POPC   C1A29069  12.261  30.973   7.089  0.0059 -0.4610 -0.3524
 2401POPC   D2A29070  12.209  31.319   6.808 -0.1135  0.0749 -0.1162
 2401POPC   C3A29071  12.116  31.467   6.377  0.1936 -0.0290 -0.0092
 2401POPC   C4A29072  12.317  31.664   6.030  0.1094 -0.1541 -0.1688
 2401POPC   C1B29073  12.585  30.611   7.019  0.0083 -0.0806 -0.1474
 2401POPC   C2B29074  12.799  30.585   6.575  0.1451 -0.0330 -0.1733
 2401POPC   C3B29075  13.055  30.699   6.154  0.0406 -0.0140 -0.1138
 2401POPC   C4B29076  13.258  30.540   5.825  0.0056 -0.0117  0.0059
 2402POPC   NC329077  13.065  15.094   7.690  0.0077 -0.1897  0.0458
 2402POPC   PO429078  13.464  15.022   7.731 -0.0996 -0.0909 -0.1591
 2402POPC   GL129079  13.313  15.023   7.346 -0.2077 -0.0955 -0.6132
 2402POPC   GL229080  13.151  15.239   7.261  0.1595  0.1630 -0.1191
 2402POPC   C1A29081  13.207  14.705   7.004  0.0260 -0.1031  0.2684
 2402POPC   D2A29082  13.276  14.571   6.547 -0.0463  0.1349  0.2715
 2402POPC   C3A29083  13.416  14.933   6.227  0.0639 -0.0433 -0.2650
 2402POPC   C4A29084  13.389  15.356   5.992 -0.0310  0.1605 -0.1096
 2402POPC   C1B29085  12.870  15.075   6.889  0.2057 -0.1839 -0.0887
 2402POPC   C2B29086  12.561  15.354   6.685  0.2429  0.3205  0.3471
 2402POPC   C3B29087  12.347  15.559   6.325  0.3051 -0.0410  0.0906
 2402POPC   C4B29088  12.430  15.885   6.017  0.1004 -0.2686  0.1605
 2403POPC   NC329089  15.380   3.440   8.807  0.0273  0.0421  0.2612
 2403POPC   PO429090  15.478   3.477   8.441  0.0952 -0.3641 -0.1905
 2403POPC   GL129091  15.173   3.670   8.271  0.3389  0.0497  0.0450
 2403POPC   GL229092  15.117   3.881   8.450  0.0796  0.0688  0.1032
 2403POPC   C1A29093  14.902   3.956   8.042  0.1275  0.1186  0.1441
 2403POPC   D2A29094  14.441   4.020   8.123 -0.0793 -0.1762  0.1528
 2403POPC   C3A29095  14.372   4.453   8.149 -0.2561  0.0204 -0.3011
 2403POPC   C4A29096  14.028   4.769   8.108 -0.0650  0.3086 -0.0638
 2403POPC   C1B29097  14.773   4.200   8.434 -0.1497  0.0219 -0.1081
 2403POPC   C2B29098  14.705   4.690   8.499  0.0078  0.3273  0.0659
 2403POPC   C3B29099  14.794   5.060   8.323 -0.1307 -0.0981 -0.0987
 2403POPC   C4B29100  14.908   5.400   8.572 -0.0076 -0.0846  0.2065
 2404POPC   NC329101   8.700  26.009   8.000 -0.2681  0.1457  0.2725
 2404POPC   PO429102   8.950  25.672   8.049  0.2835  0.0468 -0.2199
 2404POPC   GL129103   9.004  25.830   7.632  0.2609 -0.1653 -0.3018
 2404POPC   GL229104   9.022  26.128   7.672  0.2244  0.3084  0.1967
 2404POPC   C1A29105   9.147  25.575   7.275  0.2828 -0.0460  0.0849
 2404POPC   D2A29106   9.078  25.534   6.832 -0.3138  0.1079 -0.2710
 2404POPC   C3A29107   9.115  25.719   6.399 -0.0972  0.0226  0.1425
 2404POPC   C4A29108   8.949  25.830   5.939  0.2968  0.2427  0.1978
 2404POPC   C1B29109   9.258  26.507   7.400  0.3539  0.1987  0.0272
 2404POPC   C2B29110   9.254  26.836   7.027  0.4506  0.1834 -0.1137
 2404POPC   C3B29111   9.177  27.008   6.616 -0.1216 -0.1313  0.1859
 2404POPC   C4B29112   9.382  27.386   6.461 -0.1322  0.0608 -0.1554
 2405POPC   NC329113   3.066  26.202   7.842 -0.0485 -0.1505  0.0785
 2405POPC   PO429114   3.351  26.075   7.571 -0.1786 -0.0797  0.1418
 2405POPC   GL129115   3.427  26.026   7.212 -0.0083  0.0923  0.0658
 2405POPC   GL229116   3.309  25.758   7.226  0.0612 -0.1723 -0.2383
 2405POPC   C1A29117   3.176  26.009   6.818  0.0818 -0.2574 -0.0585
 2405POPC   D2A29118   2.928  25.995   6.412  0.0209 -0.1776  0.1414
 2405POPC   C3A29119   3.179  26.027   6.071  0.4281 -0.0569  0.2562
 2405POPC   C4A29120   3.215  25.902   5.634 -0.3359  0.0601  0.1266
 2405POPC   C1B29121   3.683  25.513   6.953  0.2258  0.3628  0.3057
 2405POPC   C2B29122   3.742  25.293   6.528 -0.0858 -0.2852 -0.1550
 2405POPC   C3B29123   3.630  25.045   6.236 -0.1800 -0.1437 -0.0865
 2405POPC   C4B29124   3.361  24.650   6.170 -0.0195 -0.4142  0.2549
 2406POPC   NC329125  12.418  26.403   7.676  0.0678 -0.0594 -0.1199
 2406POPC   PO429126  12.635  26.114   7.509  0.0784  0.3303 -0.1693
 2406POPC   GL129127  12.896  26.226   7.232  0.3600 -0.3221 -0.0316
 2406POPC   GL229128  13.173  26.136   7.293 -0.2654 -0.0164 -0.0430
 2406POPC   C1A29129  12.951  26.168   6.784 -0.1577  0.1620  0.0157
 2406POPC   D2A29130  12.825  26.312   6.412  0.4080  0.1366 -0.1022
 2406POPC   C3A29131  12.768  26.511   5.943  0.2899  0.1355  0.2962
 2406POPC   C4A29132  12.403  26.411   5.648  0.2161  0.0994 -0.2324
 2406POPC   C1B29133  13.274  25.791   6.992  0.3205 -0.4503  0.2876
 2406POPC   C2B29134  13.383  25.571   6.597  0.1332 -0.0847  0.1411
 2406POPC   C3B29135  13.496  25.709   6.142 -0.0553 -0.1473  0.0048
 2406POPC   C4B29136  13.539  26.189   6.002  0.0812  0.4764 -0.1449
 2407POPC   NC329137   7.253   0.911   7.636 -0.1408 -0.0441  0.2006
 2407POPC   PO429138   7.571   1.130   7.718  0.0968  0.1353  0.0383
 2407POPC   GL129139   7.426   1.286   7.389 -0.2170 -0.2369 -0.0384
 2407POPC   GL229140   7.593   1.180   7.216  0.3416 -0.1165  0.0125
 2407POPC   C1A29141   7.214   1.371   6.944  0.0890 -0.0273 -0.1678
 2407POPC   D2A29142   7.147   1.322   6.497  0.0401  0.0129 -0.1751
 2407POPC   C3A29143   7.040   1.476   6.069  0.0078 -0.2102  0.1525
 2407POPC   C4A29144   6.785   1.584   5.678  0.2691 -0.1570  0.1893
 2407POPC   C1B29145   7.748   1.361   6.834 -0.0058 -0.2203 -0.1549
 2407POPC   C2B29146   8.002   1.279   6.397  0.2082  0.0621 -0.0559
 2407POPC   C3B29147   8.126   1.144   5.991 -0.0411 -0.0693  0.0354
 2407POPC   C4B29148   8.204   0.978   5.578  0.0845 -0.0829 -0.1279
 2408POPC   NC329149  11.273   7.254   7.700  0.0538 -0.0683 -0.1275
 2408POPC   PO429150  11.544   7.042   7.522 -0.0215  0.1026 -0.0439
 2408POPC   GL129151  11.480   7.356   7.229 -0.1301  0.0480 -0.1328
 2408POPC   GL229152  11.240   7.347   7.196  0.0430 -0.1509  0.2589
 2408POPC   C1A29153  11.645   7.537   6.802  0.1935  0.1206  0.0199
 2408POPC   D2A29154  11.882   7.808   6.513 -0.1960 -0.2107 -0.2152
 2408POPC   C3A29155  11.656   7.904   6.083 -0.0638 -0.0594  0.0762
 2408POPC   C4A29156  11.209   8.015   5.929  0.4071  0.3434  0.2678
 2408POPC   C1B29157  11.114   6.953   6.960  0.0298 -0.0333 -0.4392
 2408POPC   C2B29158  10.945   6.795   6.536 -0.0534  0.1068 -0.0959
 2408POPC   C3B29159  11.124   6.485   6.297  0.0236  0.0780 -0.2388
 2408POPC   C4B29160  11.511   6.292   6.057 -0.0975  0.0118  0.0180
 2409POPC   NC329161   1.951  26.380   7.226 -0.0824 -0.2332 -0.1590
 2409POPC   PO429162   1.742  26.586   7.506 -0.0773 -0.0927 -0.1087
 2409POPC   GL129163   1.860  26.825   7.192  0.2656  0.0427  0.3345
 2409POPC   GL229164   2.043  26.985   7.070 -0.0068 -0.0545 -0.2660
 2409POPC   C1A29165   1.704  26.970   6.743  0.0828  0.0029  0.3652
 2409POPC   D2A29166   1.709  27.023   6.273  0.0974 -0.1050 -0.1326
 2409POPC   C3A29167   1.484  26.992   5.846 -0.1036  0.0308 -0.2291
 2409POPC   C4A29168   1.150  26.746   5.644  0.2676  0.0668 -0.0060
 2409POPC   C1B29169   2.138  26.727   6.683  0.0117 -0.0438  0.0161
 2409POPC   C2B29170   2.182  26.708   6.281  0.1119  0.0353  0.3331
 2409POPC   C3B29171   2.315  26.543   5.872 -0.1244 -0.0688  0.2929
 2409POPC   C4B29172   2.226  26.528   5.452 -0.0705  0.1032  0.2044
 2410POPC   NC329173  10.004  26.064   7.879  0.2175 -0.0436 -0.0679
 2410POPC   PO429174  10.326  25.904   7.796 -0.0833 -0.1892 -0.0707
 2410POPC   GL129175  10.146  25.932   7.467  0.0455 -0.0944  0.0515
 2410POPC   GL229176  10.003  25.746   7.337  0.0781  0.0382  0.0675
 2410POPC   C1A29177  10.202  26.129   7.008 -0.4220 -0.1658 -0.1304
 2410POPC   D2A29178  10.122  26.074   6.546 -0.2165  0.1790 -0.3444
 2410POPC   C3A29179  10.217  26.468   6.380  0.2168 -0.1091 -0.3347
 2410POPC   C4A29180  10.133  26.769   6.025  0.5205  0.2352  0.2560
 2410POPC   C1B29181  10.071  25.618   6.890  0.1034  0.0186  0.1621
 2410POPC   C2B29182  10.439  25.400   6.691 -0.1589  0.0780 -0.0572
 2410POPC   C3B29183  10.686  24.992   6.674 -0.3085  0.0052  0.0263
 2410POPC   C4B29184  10.545  24.531   6.610 -0.0490 -0.3979  0.3393
 2411POPC   NC329185  13.415  27.369   7.449  0.0246  0.1188 -0.1346
 2411POPC   PO429186  13.142  27.588   7.428  0.2195 -0.1101  0.1323
 2411POPC   GL129187  13.284  27.827   7.095  0.0257 -0.1394 -0.1707
 2411POPC   GL229188  13.568  27.804   7.119 -0.0474 -0.4032  0.0273
 2411POPC   C1A29189  13.193  27.944   6.647 -0.0982  0.0272 -0.1588
 2411POPC   D2A29190  13.071  27.962   6.186 -0.1453 -0.1582 -0.0347
 2411POPC   C3A29191  12.714  28.150   6.000 -0.0359  0.0778 -0.0377
 2411POPC   C4A29192  12.390  27.859   5.880  0.0848  0.1638  0.0205
 2411POPC   C1B29193  13.577  27.527   6.742 -0.0197 -0.2069 -0.0724
 2411POPC   C2B29194  13.688  27.572   6.296  0.2858 -0.2850  0.0949
 2411POPC   C3B29195  13.372  27.599   5.971  0.0098  0.1510  0.1254
 2411POPC   C4B29196  12.983  27.742   5.760 -0.1258 -0.2035 -0.3768
 2412POPC   NC329197   9.483  30.473   8.023  0.1464  0.4740  0.0209
 2412POPC   PO429198   9.817  30.539   7.814  0.0845 -0.1005  0.2232
 2412POPC   GL129199   9.656  30.342   7.476  0.0051 -0.1830 -0.0196
 2412POPC   GL229200   9.366  30.347   7.531 -0.0500  0.1157  0.1380
 2412POPC   C1A29201   9.924  30.284   7.076 -0.3432  0.1542 -0.0821
 2412POPC   D2A29202  10.186  30.088   6.785 -0.2705 -0.1309  0.2123
 2412POPC   C3A29203  10.183  30.213   6.372  0.0412 -0.1882  0.2102
 2412POPC   C4A29204  10.354  30.581   6.102 -0.0278  0.0756 -0.0142
 2412POPC   C1B29205   9.680  29.958   7.297  0.0660 -0.1098  0.0420
 2412POPC   C2B29206   9.791  29.836   6.843  0.3107  0.1176  0.0638
 2412POPC   C3B29207   9.977  29.614   6.491  0.2467 -0.1818  0.0754
 2412POPC   C4B29208   9.874  29.569   6.052 -0.1583  0.1111  0.4632
 2413POPC   NC329209   0.010  11.961   8.132 -0.0710 -0.2216  0.0848
 2413POPC   PO429210   0.429  12.083   8.187  0.0889  0.2686  0.0817
 2413POPC   GL129211   0.299  12.070   7.804  0.0592  0.0697  0.0382
 2413POPC   GL229212   0.454  11.859   7.652  0.1807  0.0034  0.2312
 2413POPC   C1A29213   0.351  12.309   7.420 -0.2774 -0.0835 -0.2223
 2413POPC   D2A29214   0.462  12.466   7.016 -0.0564  0.2858 -0.2837
 2413POPC   C3A29215   0.307  12.344   6.604  0.0938 -0.3342  0.2169
 2413POPC   C4A29216   0.207  12.571   6.192 -0.0293 -0.0907  0.0204
 2413POPC   C1B29217   0.717  11.863   7.322 -0.2169  0.2527  0.0201
 2413POPC   C2B29218   0.986  11.610   7.031  0.2381  0.0530  0.3992
 2413POPC   C3B29219   0.963  11.685   6.597  0.0745 -0.1134 -0.0265
 2413POPC   C4B29220   0.895  11.587   6.140  0.0374 -0.0068  0.1636
 2414POPC   NC329221  12.601  13.520   7.660 -0.1478 -0.0812 -0.1061
 2414POPC   PO429222  12.521  13.914   7.685  0.1178  0.1283 -0.2843
 2414POPC   GL129223  12.691  14.044   7.398 -0.6213 -0.1754 -0.2402
 2414POPC   GL229224  12.751  13.798   7.213 -0.1648 -0.0174 -0.1504
 2414POPC   C1A29225  12.801  14.370   7.043 -0.0843 -0.0974 -0.4069
 2414POPC   D2A29226  12.814  14.620   6.669  0.4042 -0.0352  0.1130
 2414POPC   C3A29227  12.950  14.567   6.166 -0.1070  0.1097  0.0803
 2414POPC   C4A29228  12.971  14.518   5.711 -0.0016  0.3969  0.1406
 2414POPC   C1B29229  12.586  13.925   6.825 -0.0490 -0.0254  0.3847
 2414POPC   C2B29230  12.370  13.972   6.374 -0.1867  0.1433  0.0330
 2414POPC   C3B29231  12.297  13.596   6.154 -0.1001  0.3052  0.1909
 2414POPC   C4B29232  12.241  13.329   5.744  0.0137 -0.2113  0.2591
 2415POPC   NC329233   4.770  21.846   8.422 -0.2324  0.1572  0.0697
 2415POPC   PO429234   4.717  21.624   8.095  0.3008 -0.1990  0.0250
 2415POPC   GL129235   4.914  21.431   7.801  0.1467  0.1429  0.0647
 2415POPC   GL229236   4.813  21.652   7.581  0.1518 -0.0922 -0.0799
 2415POPC   C1A29237   5.107  21.079   7.592 -0.1202 -0.4279  0.1253
 2415POPC   D2A29238   5.056  20.999   7.164  0.0987 -0.0299  0.1177
 2415POPC   C3A29239   5.260  21.061   6.769 -0.2838 -0.0877 -0.3729
 2415POPC   C4A29240   5.531  20.853   6.488  0.0450 -0.2818 -0.2270
 2415POPC   C1B29241   5.251  21.667   7.392 -0.2965  0.1147 -0.0061
 2415POPC   C2B29242   5.467  21.290   7.177  0.3292 -0.0742  0.0028
 2415POPC   C3B29243   5.576  20.848   7.076 -0.0085 -0.2974 -0.0568
 2415POPC   C4B29244   5.807  20.463   7.042 -0.4274 -0.1937  0.1376
 2416POPC   NC329245   0.967  28.692   7.544 -0.0075 -0.0852 -0.2089
 2416POPC   PO429246   1.293  28.708   7.742 -0.2376  0.1186  0.3585
 2416POPC   GL129247   1.382  28.946   7.389  0.0565  0.0227  0.2346
 2416POPC   GL229248   1.558  28.707   7.311  0.0055  0.0463 -0.0450
 2416POPC   C1A29249   1.361  28.905   6.897  0.1260 -0.0819  0.1542
 2416POPC   D2A29250   1.535  28.960   6.467  0.1714 -0.1958  0.0247
 2416POPC   C3A29251   1.553  29.356   6.241 -0.1286  0.0880 -0.0063
 2416POPC   C4A29252   1.809  29.724   6.165 -0.1488 -0.1607 -0.1721
 2416POPC   C1B29253   1.360  28.361   7.088 -0.0885 -0.0135  0.2268
 2416POPC   C2B29254   1.314  27.880   7.034  0.0937 -0.0773  0.0200
 2416POPC   C3B29255   1.551  27.565   6.774 -0.1162  0.1223 -0.1425
 2416POPC   C4B29256   1.795  27.500   6.420 -0.1114  0.0635  0.3379
 2417POPC   NC329257   2.660   1.095   8.208  0.2189 -0.0758  0.2278
 2417POPC   PO429258   2.782   1.272   7.893  0.0784 -0.2443  0.0170
 2417POPC   GL129259   3.083   1.277   7.596  0.2019 -0.0859 -0.1829
 2417POPC   GL229260   2.976   0.952   7.558  0.0634  0.0249  0.1147
 2417POPC   C1A29261   2.908   1.301   7.176 -0.0261  0.0527  0.1501
 2417POPC   D2A29262   2.720   1.667   7.023 -0.0405 -0.1895  0.1956
 2417POPC   C3A29263   2.841   1.673   6.623 -0.0098  0.0022 -0.0334
 2417POPC   C4A29264   2.925   1.927   6.279 -0.0604  0.2293 -0.1564
 2417POPC   C1B29265   3.015   0.597   7.332 -0.0058  0.1096 -0.1519
 2417POPC   C2B29266   3.277   0.356   7.027  0.0941 -0.0991 -0.2506
 2417POPC   C3B29267   3.114   0.243   6.627 -0.0273  0.1127  0.0602
 2417POPC   C4B29268   3.187   0.079   6.192 -0.1367 -0.3460 -0.0998
 2418POPC   NC329269   2.046  28.778   8.312 -0.1218  0.0229  0.1371
 2418POPC   PO429270   1.754  28.740   8.056 -0.0860  0.0837 -0.1810
 2418POPC   GL129271   1.953  29.044   7.858  0.3344 -0.0806  0.1855
 2418POPC   GL229272   1.796  29.188   7.699  0.1165  0.0009  0.3847
 2418POPC   C1A29273   2.260  28.962   7.451 -0.0811  0.1036  0.2748
 2418POPC   D2A29274   2.200  28.843   7.050 -0.2759 -0.0227 -0.0703
 2418POPC   C3A29275   2.347  28.958   6.663 -0.0097 -0.4453 -0.3696
 2418POPC   C4A29276   2.607  29.201   6.344 -0.0406 -0.0261  0.0533
 2418POPC   C1B29277   1.777  29.151   7.242  0.3989 -0.0233 -0.2777
 2418POPC   C2B29278   1.854  29.123   6.847  0.0069  0.1467 -0.2333
 2418POPC   C3B29279   2.037  29.257   6.462 -0.0305  0.0558 -0.2202
 2418POPC   C4B29280   2.245  29.521   6.157  0.2442  0.2635 -0.0976
 2419POPC   NC329281  10.406   7.043   7.775 -0.2829  0.1946  0.1970
 2419POPC   PO429282  10.160   7.324   7.859 -0.0766 -0.1195 -0.0732
 2419POPC   GL129283  10.173   7.287   7.422  0.4138  0.2636 -0.2831
 2419POPC   GL229284  10.161   7.586   7.328  0.1126  0.0043 -0.1075
 2419POPC   C1A29285   9.835   7.143   7.140  0.3134 -0.1270 -0.0584
 2419POPC   D2A29286   9.724   6.894   6.760  0.0324 -0.1253  0.0636
 2419POPC   C3A29287   9.986   6.640   6.914 -0.1485  0.0428  0.1686
 2419POPC   C4A29288  10.294   6.320   7.114 -0.2317 -0.0797  0.0358
 2419POPC   C1B29289  10.314   7.529   6.859 -0.0088 -0.0051  0.1015
 2419POPC   C2B29290  10.316   7.428   6.394 -0.1765  0.1303  0.1499
 2419POPC   C3B29291  10.241   7.200   5.979  0.2965  0.0790  0.2585
 2419POPC   C4B29292  10.257   6.964   5.570 -0.2382  0.0984  0.3050
 2420POPC   NC329293   7.005   2.796   8.003  0.0562  0.0436 -0.1201
 2420POPC   PO429294   7.149   2.952   7.647 -0.2146 -0.0366  0.0102
 2420POPC   GL129295   6.935   2.982   7.324  0.3261  0.0900  0.3585
 2420POPC   GL229296   6.768   2.702   7.337  0.1237 -0.1544 -0.1410
 2420POPC   C1A29297   6.847   3.264   6.964  0.0571 -0.0286  0.1239
 2420POPC   D2A29298   6.998   3.369   6.511  0.1587 -0.0855 -0.1302
 2420POPC   C3A29299   6.765   3.246   6.149  0.1285  0.0102 -0.1928
 2420POPC   C4A29300   6.555   3.376   5.761  0.4218 -0.3609 -0.1909
 2420POPC   C1B29301   6.823   2.544   6.960 -0.0711 -0.0552  0.0203
 2420POPC   C2B29302   6.763   2.409   6.560  0.0007  0.3278  0.2388
 2420POPC   C3B29303   6.839   2.372   6.094  0.0712 -0.0260 -0.2341
 2420POPC   C4B29304   7.134   2.359   5.769  0.0975 -0.4708  0.0934
 2421POPC   NC329305   4.512   2.216   8.023 -0.0607  0.2328  0.1635
 2421POPC   PO429306   4.346   2.135   7.680 -0.2641  0.1173  0.0002
 2421POPC   GL129307   4.556   1.974   7.410 -0.0118  0.0516 -0.3964
 2421POPC   GL229308   4.699   1.694   7.330 -0.1393 -0.2582  0.2074
 2421POPC   C1A29309   4.435   2.323   7.064 -0.0491  0.1266  0.1124
 2421POPC   D2A29310   4.365   2.559   6.719  0.1364  0.0601  0.1319
 2421POPC   C3A29311   4.166   2.365   6.387 -0.0331  0.1676  0.0661
 2421POPC   C4A29312   4.029   2.466   5.932  0.4119  0.1372  0.2240
 2421POPC   C1B29313   4.540   1.878   6.945 -0.0797  0.0494 -0.2244
 2421POPC   C2B29314   4.589   2.085   6.574  0.2216 -0.1463 -0.1257
 2421POPC   C3B29315   4.659   2.495   6.339 -0.2329  0.0285 -0.0247
 2421POPC   C4B29316   4.436   2.825   6.124 -0.2968 -0.1046  0.0114
 2422POPC   NC329317  14.305   7.271   7.567  0.0762 -0.0111  0.2897
 2422POPC   PO429318  13.882   7.293   7.562  0.1229  0.0817 -0.0046
 2422POPC   GL129319  13.864   7.158   7.090  0.3095 -0.0323 -0.6762
 2422POPC   GL229320  13.640   7.339   7.086 -0.2954  0.0745  0.1985
 2422POPC   C1A29321  14.055   7.033   6.725 -0.1673 -0.3552 -0.3121
 2422POPC   D2A29322  14.211   7.244   6.336  0.2858 -0.1652 -0.3593
 2422POPC   C3A29323  14.302   6.830   6.176  0.1935 -0.3715  0.0565
 2422POPC   C4A29324  14.373   6.410   6.303 -0.2467  0.1106 -0.1657
 2422POPC   C1B29325  13.474   7.374   6.674  0.2368  0.5009 -0.1024
 2422POPC   C2B29326  13.552   7.194   6.286 -0.0976 -0.3820 -0.0045
 2422POPC   C3B29327  13.871   7.086   5.901 -0.1462  0.0468 -0.3118
 2422POPC   C4B29328  14.139   6.938   5.516 -0.3365  0.0446 -0.1129
 2423POPC   NC329329   0.974  23.147   7.792  0.3664 -0.0243  0.0028
 2423POPC   PO429330   0.661  23.280   7.697  0.1003  0.0418 -0.2247
 2423POPC   GL129331   0.497  23.212   7.350  0.3668 -0.3166 -0.1596
 2423POPC   GL229332   0.575  23.509   7.240  0.0125 -0.0906 -0.0009
 2423POPC   C1A29333   0.400  23.035   6.956 -0.0940  0.0984  0.3243
 2423POPC   D2A29334   0.175  23.107   6.602  0.1646 -0.0359  0.0197
 2423POPC   C3A29335  -0.259  23.171   6.458  0.2814  0.0200 -0.1050
 2423POPC   C4A29336  -0.594  23.450   6.429 -0.1321 -0.0495  0.1030
 2423POPC   C1B29337   0.502  23.497   6.787  0.1473  0.2076 -0.1235
 2423POPC   C2B29338   0.391  23.468   6.357 -0.2088 -0.2930 -0.0118
 2423POPC   C3B29339   0.509  23.233   5.950 -0.1563  0.1602 -0.2692
 2423POPC   C4B29340   0.644  23.078   5.583 -0.3982  0.2110 -0.0667
 2424POPC   NC329341   3.570  26.501   7.686 -0.2648  0.0503 -0.1824
 2424POPC   PO429342   3.671  26.251   7.960  0.1268  0.3339  0.3006
 2424POPC   GL129343   3.873  26.105   7.656 -0.2104  0.1520 -0.0915
 2424POPC   GL229344   4.045  26.345   7.554 -0.0364 -0.2778 -0.1243
 2424POPC   C1A29345   3.843  25.893   7.223  0.2844 -0.2073 -0.1927
 2424POPC   D2A29346   3.796  25.899   6.735 -0.0298  0.1112  0.1355
 2424POPC   C3A29347   4.006  25.712   6.366 -0.1713  0.1049  0.0581
 2424POPC   C4A29348   4.072  25.292   6.121  0.1312 -0.4318 -0.0432
 2424POPC   C1B29349   3.783  26.362   7.211  0.0983  0.1769 -0.2540
 2424POPC   C2B29350   3.599  26.393   6.817  0.1840 -0.0425 -0.1569
 2424POPC   C3B29351   3.596  26.213   6.377 -0.2441  0.0344 -0.0694
 2424POPC   C4B29352   3.678  26.173   5.938 -0.0641  0.0071 -0.2143
 2425POPC   NC329353   7.617   1.629   7.896 -0.0624  0.2641 -0.1595
 2425POPC   PO429354   7.807   1.959   7.773  0.0070 -0.3212 -0.0308
 2425POPC   GL129355   7.706   1.929   7.383  0.2651  0.4527  0.0423
 2425POPC   GL229356   7.486   1.735   7.347  0.0475  0.0069  0.0448
 2425POPC   C1A29357   7.953   1.725   7.067 -0.1080  0.0461  0.1384
 2425POPC   D2A29358   8.177   1.640   6.698  0.1085 -0.1491 -0.4140
 2425POPC   C3A29359   8.510   1.328   6.620  0.0544  0.2541  0.0282
 2425POPC   C4A29360   8.816   1.059   6.854 -0.1468  0.1435 -0.1423
 2425POPC   C1B29361   7.069   1.839   7.131 -0.1960  0.0825  0.1246
 2425POPC   C2B29362   7.125   1.830   6.680  0.1585  0.1161  0.1670
 2425POPC   C3B29363   7.282   1.964   6.279  0.0828  0.1547 -0.1725
 2425POPC   C4B29364   7.153   1.891   5.876 -0.1190 -0.2926  0.1670
 2426POPC   NC329365   5.226  10.129   7.791  0.0534 -0.1578 -0.5504
 2426POPC   PO429366   5.117  10.470   7.903  0.2942 -0.1219  0.0106
 2426POPC   GL129367   5.146  10.668   7.485 -0.2877 -0.0971  0.1851
 2426POPC   GL229368   4.891  10.776   7.289 -0.0722 -0.2032  0.0935
 2426POPC   C1A29369   5.213  11.152   7.499 -0.1685  0.0066  0.1395
 2426POPC   D2A29370   5.404  11.634   7.500 -0.0073  0.0094  0.2825
 2426POPC   C3A29371   5.246  11.872   7.183  0.1706  0.0250  0.0985
 2426POPC   C4A29372   4.920  11.860   6.848 -0.4093  0.0363  0.0429
 2426POPC   C1B29373   4.620  11.085   6.945  0.0691  0.0534 -0.3326
 2426POPC   C2B29374   4.366  11.222   6.566 -0.1598 -0.0200 -0.1225
 2426POPC   C3B29375   3.991  10.983   6.394  0.0741 -0.1453 -0.2152
 2426POPC   C4B29376   3.671  10.683   6.199  0.1782  0.1671 -0.2702
 2427POPC   NC329377  12.478   3.706   8.504 -0.1341 -0.3322  0.1672
 2427POPC   PO429378  12.401   3.429   8.248  0.1499 -0.2384 -0.1272
 2427POPC   GL129379  12.590   3.384   7.822 -0.0309  0.0620 -0.1897
 2427POPC   GL229380  12.773   3.551   7.901  0.2410  0.0328 -0.0813
 2427POPC   C1A29381  12.593   3.276   7.376 -0.0059 -0.2699  0.0908
 2427POPC   D2A29382  12.739   3.472   6.987 -0.3484 -0.0060  0.0930
 2427POPC   C3A29383  12.738   3.899   6.942 -0.0723  0.1414  0.2492
 2427POPC   C4A29384  12.676   4.133   6.568 -0.1018 -0.1141 -0.0435
 2427POPC   C1B29385  12.922   3.619   7.474 -0.0214  0.2116 -0.1006
 2427POPC   C2B29386  13.160   3.938   7.317 -0.0499  0.1267 -0.1325
 2427POPC   C3B29387  13.344   4.003   6.880  0.0800  0.0182  0.0300
 2427POPC   C4B29388  13.536   4.190   6.501 -0.1997 -0.0019 -0.2705
 2428POPC   NC329389  15.281   0.603   7.443  0.1793  0.0575 -0.0684
 2428POPC   PO429390  15.629   0.424   7.563 -0.2453 -0.1172  0.4014
 2428POPC   GL129391  15.661   0.320   7.146 -0.4169  0.0285  0.2074
 2428POPC   GL229392  15.556   0.537   7.009 -0.3183 -0.1068 -0.0289
 2428POPC   C1A29393  15.961   0.292   6.757 -0.2311 -0.0476  0.0552
 2428POPC   D2A29394  15.833   0.194   6.320 -0.0283 -0.2304  0.1291
 2428POPC   C3A29395  15.994   0.371   5.917 -0.2419 -0.0806  0.0637
 2428POPC   C4A29396  16.361   0.439   5.587 -0.0373 -0.1249  0.3129
 2428POPC   C1B29397  15.581   0.566   6.531  0.1080 -0.0585  0.0834
 2428POPC   C2B29398  15.523   0.489   6.068 -0.2488 -0.1592  0.1737
 2428POPC   C3B29399  15.357   0.314   5.650  0.0861  0.0512  0.1614
 2428POPC   C4B29400  15.192   0.499   5.259  0.4253 -0.1142  0.1556
 2429POPC   NC329401   3.381  22.722   7.463 -0.1566  0.1724  0.0000
 2429POPC   PO429402   3.315  23.120   7.584 -0.2675 -0.3624 -0.0342
 2429POPC   GL129403   3.401  23.226   7.185 -0.2608  0.1778  0.5239
 2429POPC   GL229404   3.288  23.021   7.010  0.0680  0.0864  0.2397
 2429POPC   C1A29405   3.543  23.460   6.821 -0.1425  0.2125  0.1546
 2429POPC   D2A29406   3.487  23.790   6.535 -0.0932  0.1789  0.0056
 2429POPC   C3A29407   3.172  23.786   6.217  0.0671 -0.1378  0.2561
 2429POPC   C4A29408   2.894  24.002   5.927  0.1010 -0.1786  0.1842
 2429POPC   C1B29409   3.332  22.989   6.585  0.0938  0.1626  0.0112
 2429POPC   C2B29410   3.440  22.915   6.121 -0.0592 -0.1049  0.3356
 2429POPC   C3B29411   3.646  22.941   5.690 -0.0000 -0.0453 -0.0537
 2429POPC   C4B29412   3.803  22.733   5.374  0.1648  0.1253 -0.0177
 2430POPC   NC329413   9.664  23.967   8.019  0.1728  0.0660 -0.0537
 2430POPC   PO429414   9.987  24.196   7.986  0.0959  0.1034  0.0095
 2430POPC   GL129415  10.045  24.377   7.690 -0.0715 -0.1881  0.2586
 2430POPC   GL229416  10.318  24.400   7.533  0.1100  0.0391 -0.0999
 2430POPC   C1A29417   9.709  24.556   7.458  0.5369 -0.0246 -0.1095
 2430POPC   D2A29418   9.272  24.605   7.189  0.0491 -0.2601 -0.0209
 2430POPC   C3A29419   9.313  24.689   6.786  0.1716  0.0087 -0.1262
 2430POPC   C4A29420   9.427  24.824   6.329  0.1044  0.1043 -0.0429
 2430POPC   C1B29421  10.141  24.708   7.236  0.0698  0.0942  0.1089
 2430POPC   C2B29422  10.172  25.007   6.894  0.1172  0.2939 -0.1306
 2430POPC   C3B29423   9.933  25.238   6.605  0.0474 -0.4060  0.3110
 2430POPC   C4B29424  10.008  25.533   6.267 -0.3515  0.0168  0.0655
 2431POPC   NC329425  11.647   5.806   7.914  0.0846  0.0233 -0.0084
 2431POPC   PO429426  11.577   5.485   7.656  0.0137 -0.0594 -0.3157
 2431POPC   GL129427  11.601   5.636   7.313 -0.0086  0.1812  0.1333
 2431POPC   GL229428  11.475   5.421   7.118  0.1055  0.0805  0.0855
 2431POPC   C1A29429  11.982   5.845   7.056 -0.1684  0.0724  0.1646
 2431POPC   D2A29430  12.154   5.958   6.656  0.1702  0.3415  0.0351
 2431POPC   C3A29431  12.243   5.561   6.501 -0.3179  0.0720  0.0323
 2431POPC   C4A29432  12.422   5.095   6.469  0.1940  0.1363  0.0219
 2431POPC   C1B29433  11.425   5.111   6.726  0.0047  0.2182  0.3216
 2431POPC   C2B29434  11.373   4.766   6.432  0.0664 -0.1355  0.4005
 2431POPC   C3B29435  11.474   4.610   5.994  0.4317 -0.0763  0.1974
 2431POPC   C4B29436  11.558   4.774   5.588  0.0231 -0.0718  0.2714
 2432POPC   NC329437   4.315  21.328   8.146 -0.4546  0.0349  0.0720
 2432POPC   PO429438   4.455  21.282   7.790  0.0629 -0.0644 -0.1434
 2432POPC   GL129439   4.732  21.199   7.445 -0.0391 -0.0464 -0.3117
 2432POPC   GL229440   4.499  21.334   7.327  0.0013 -0.0535  0.2750
 2432POPC   C1A29441   4.954  21.439   7.071  0.2536 -0.0857 -0.1554
 2432POPC   D2A29442   5.289  21.596   6.842 -0.2153  0.0618  0.0098
 2432POPC   C3A29443   5.700  21.358   6.739  0.1771 -0.2410  0.2090
 2432POPC   C4A29444   5.967  20.975   6.835 -0.0339 -0.0868  0.1222
 2432POPC   C1B29445   4.468  21.283   6.916  0.1262  0.0239 -0.1903
 2432POPC   C2B29446   4.245  21.405   6.483  0.1083  0.0587  0.1518
 2432POPC   C3B29447   3.989  21.646   6.182 -0.1863  0.1958 -0.0330
 2432POPC   C4B29448   3.855  21.993   5.906  0.5282  0.1935 -0.2577
 2433POPC   NC329449  10.706  25.594   7.710  0.4250  0.3270  0.1432
 2433POPC   PO429450  10.372  25.373   7.688  0.1186 -0.3851 -0.0273
 2433POPC   GL129451  10.372  25.391   7.327 -0.4913 -0.2026  0.2508
 2433POPC   GL229452  10.494  25.072   7.301  0.0863  0.0838 -0.2055
 2433POPC   C1A29453  10.537  25.770   7.116 -0.4393  0.1023  0.2345
 2433POPC   D2A29454  10.656  26.095   6.808 -0.1717  0.0029 -0.2865
 2433POPC   C3A29455  10.644  25.862   6.419  0.1693  0.2024  0.1369
 2433POPC   C4A29456  10.856  25.696   6.018  0.2834  0.1541  0.2311
 2433POPC   C1B29457  10.752  24.761   7.127  0.2583 -0.4624  0.3038
 2433POPC   C2B29458  10.988  24.412   6.937  0.1319  0.1196 -0.2385
 2433POPC   C3B29459  11.003  24.224   6.508 -0.0493 -0.0833  0.1112
 2433POPC   C4B29460  11.292  24.268   6.143 -0.2502 -0.1367  0.3395
 2434POPC   NC329461   5.134   4.856   8.287 -0.1178  0.2013  0.3453
 2434POPC   PO429462   5.524   4.890   8.319  0.1629 -0.0034 -0.4155
 2434POPC   GL129463   5.521   4.664   8.022 -0.1618  0.0159  0.2876
 2434POPC   GL229464   5.507   4.780   7.666  0.1262  0.3216 -0.1728
 2434POPC   C1A29465   5.659   4.326   7.790 -0.0027  0.0139  0.4508
 2434POPC   D2A29466   5.541   4.221   7.326  0.0238 -0.0606 -0.3325
 2434POPC   C3A29467   5.243   3.973   7.097 -0.0548 -0.1982 -0.0598
 2434POPC   C4A29468   4.840   3.860   7.134 -0.3169 -0.0117 -0.1870
 2434POPC   C1B29469   5.399   4.682   7.232  0.0280  0.2189 -0.2547
 2434POPC   C2B29470   5.327   4.432   6.832 -0.0624  0.0322 -0.0640
 2434POPC   C3B29471   5.276   4.104   6.508 -0.1913  0.0087 -0.0116
 2434POPC   C4B29472   4.991   3.983   6.207 -0.1991  0.1116  0.1415
 2435POPC   NC329473   5.820   0.799   7.601 -0.0195  0.1725 -0.1418
 2435POPC   PO429474   5.487   0.635   7.762 -0.1361  0.2261 -0.5766
 2435POPC   GL129475   5.427   0.613   7.384  0.1908 -0.0395 -0.4305
 2435POPC   GL229476   5.409   0.848   7.253 -0.1152  0.3849  0.3485
 2435POPC   C1A29477   5.276   0.456   6.981  0.0374 -0.0117  0.1281
 2435POPC   D2A29478   5.306   0.446   6.511  0.2936 -0.0279 -0.1109
 2435POPC   C3A29479   5.294   0.669   6.144 -0.0728 -0.0560 -0.0674
 2435POPC   C4A29480   5.475   0.468   5.768  0.2943  0.2273 -0.2381
 2435POPC   C1B29481   5.361   0.938   6.800 -0.3513  0.1831 -0.2136
 2435POPC   C2B29482   5.240   1.117   6.407 -0.3289 -0.4752 -0.4070
 2435POPC   C3B29483   5.384   1.344   6.033  0.0417 -0.0014 -0.1491
 2435POPC   C4B29484   5.437   1.468   5.608  0.3896  0.0114 -0.2427
 2436POPC   NC329485  10.406  17.723   8.381 -0.2694 -0.0349 -0.0354
 2436POPC   PO429486  10.399  17.378   8.163  0.1150 -0.0608  0.0426
 2436POPC   GL129487  10.458  17.506   7.791 -0.1782  0.0011 -0.2590
 2436POPC   GL229488  10.201  17.581   7.729 -0.0084 -0.2212 -0.0843
 2436POPC   C1A29489  10.542  17.161   7.444 -0.0187 -0.3192  0.0553
 2436POPC   D2A29490  10.731  17.057   7.007 -0.2157 -0.0282 -0.1170
 2436POPC   C3A29491  10.993  17.009   6.640  0.0917  0.1684  0.2889
 2436POPC   C4A29492  10.993  17.158   6.207  0.2806 -0.1420 -0.1239
 2436POPC   C1B29493  10.064  17.727   7.295 -0.2870  0.0305 -0.0689
 2436POPC   C2B29494   9.995  17.555   6.852 -0.2802  0.0945  0.3772
 2436POPC   C3B29495  10.031  17.409   6.405 -0.1407 -0.1719 -0.0069
 2436POPC   C4B29496  10.089  17.751   6.037 -0.4679 -0.1114  0.0377
 2437POPC   NC329497  15.750  12.724   7.872  0.1998 -0.3601 -0.2348
 2437POPC   PO429498  15.649  12.379   7.843  0.2099  0.0037 -0.1736
 2437POPC   GL129499  15.480  12.570   7.506 -0.0584  0.0309 -0.2351
 2437POPC   GL229500  15.787  12.607   7.342 -0.1020  0.2436  0.0912
 2437POPC   C1A29501  15.382  12.535   7.057  0.1714 -0.0338  0.0921
 2437POPC   D2A29502  15.080  12.562   6.726 -0.1919  0.1226 -0.2290
 2437POPC   C3A29503  15.124  12.437   6.301 -0.4536 -0.0660  0.1210
 2437POPC   C4A29504  15.304  12.693   5.967 -0.1919 -0.1768  0.1067
 2437POPC   C1B29505  15.785  12.332   6.923 -0.0681  0.0269  0.1289
 2437POPC   C2B29506  15.688  12.399   6.452 -0.0310 -0.0167 -0.1312
 2437POPC   C3B29507  15.509  12.269   6.044  0.3832 -0.0240 -0.3273
 2437POPC   C4B29508  15.451  11.882   5.807 -0.3279 -0.3318 -0.1526
 2438POPC   NC329509   4.335  22.298   8.088 -0.0422  0.3868  0.1611
 2438POPC   PO429510   4.581  22.561   7.975  0.0227 -0.1744  0.2344
 2438POPC   GL129511   4.709  22.602   7.541  0.1852  0.2830  0.0409
 2438POPC   GL229512   4.530  22.314   7.483  0.0170 -0.0189 -0.3370
 2438POPC   C1A29513   5.003  22.407   7.226  0.4465 -0.2838  0.1449
 2438POPC   D2A29514   5.047  21.982   7.052  0.1314  0.1634 -0.2735
 2438POPC   C3A29515   5.008  22.017   6.591 -0.0444  0.3721 -0.0958
 2438POPC   C4A29516   4.820  21.812   6.259  0.0656  0.0755  0.3167
 2438POPC   C1B29517   4.541  22.209   6.985  0.0017 -0.0893 -0.1862
 2438POPC   C2B29518   4.407  22.173   6.569  0.0926 -0.0332  0.2141
 2438POPC   C3B29519   4.316  21.964   6.133 -0.1999  0.1665  0.1008
 2438POPC   C4B29520   4.493  21.487   6.044  0.0111 -0.2068 -0.0968
 2439POPC   NC329521  11.666  13.941   7.408 -0.1696 -0.0660  0.2674
 2439POPC   PO429522  11.561  13.692   7.672  0.2175 -0.1388  0.1049
 2439POPC   GL129523  11.311  13.624   7.299 -0.2486  0.1149  0.3581
 2439POPC   GL229524  11.452  13.380   7.215 -0.0579  0.1324 -0.0469
 2439POPC   C1A29525  11.408  13.734   6.853 -0.0725  0.2057 -0.0747
 2439POPC   D2A29526  11.679  13.763   6.481 -0.0029 -0.1587  0.1268
 2439POPC   C3A29527  12.042  13.596   6.666  0.0074 -0.2612  0.0840
 2439POPC   C4A29528  12.493  13.499   6.611 -0.0991  0.0880  0.2510
 2439POPC   C1B29529  11.637  13.191   6.796 -0.3823 -0.1255  0.2530
 2439POPC   C2B29530  11.782  13.233   6.345  0.2073  0.1090  0.1682
 2439POPC   C3B29531  11.749  13.242   5.905  0.0192  0.0581 -0.1609
 2439POPC   C4B29532  11.537  13.347   5.512 -0.2219  0.3268  0.0466
 2440POPC   NC329533   1.415  13.387   7.801 -0.0267 -0.0623 -0.0106
 2440POPC   PO429534   1.650  13.653   8.017 -0.2279  0.0889  0.0203
 2440POPC   GL129535   1.701  13.661   7.605 -0.2619 -0.3053  0.1785
 2440POPC   GL229536   1.514  13.863   7.559  0.2356  0.2185 -0.0726
 2440POPC   C1A29537   1.535  13.536   7.192  0.2273 -0.0737  0.0927
 2440POPC   D2A29538   1.426  13.237   6.874 -0.0902 -0.0969  0.0364
 2440POPC   C3A29539   1.582  13.144   6.374  0.0971  0.1733  0.0588
 2440POPC   C4A29540   1.766  13.039   6.011  0.0620 -0.0282 -0.1308
 2440POPC   C1B29541   1.611  14.065   7.149 -0.0525  0.1307 -0.0753
 2440POPC   C2B29542   1.620  13.942   6.698  0.0745 -0.1107 -0.1922
 2440POPC   C3B29543   1.340  13.973   6.318  0.1965  0.4576  0.0665
 2440POPC   C4B29544   1.001  13.843   6.051 -0.2689  0.1488  0.0940
 2441POPC   NC329545   7.642  18.572   8.152 -0.1436 -0.4265 -0.0695
 2441POPC   PO429546   7.328  18.562   7.864 -0.0118  0.1207  0.0226
 2441POPC   GL129547   7.304  18.473   7.492 -0.1339 -0.0578  0.2164
 2441POPC   GL229548   7.165  18.206   7.473  0.0843 -0.0734  0.0887
 2441POPC   C1A29549   7.439  18.745   7.185 -0.0530  0.1845 -0.1365
 2441POPC   D2A29550   7.508  18.944   6.750  0.0584  0.2072 -0.2800
 2441POPC   C3A29551   7.248  19.116   6.424  0.0451  0.1040  0.0991
 2441POPC   C4A29552   6.985  19.356   6.136 -0.0344 -0.0861  0.2870
 2441POPC   C1B29553   6.993  18.354   7.076  0.2099  0.1975  0.0217
 2441POPC   C2B29554   6.871  18.314   6.636  0.1646  0.0984  0.2085
 2441POPC   C3B29555   6.802  18.201   6.199  0.3352  0.1707 -0.0192
 2441POPC   C4B29556   6.667  17.985   5.840 -0.1406 -0.1005  0.0116
 2442POPC   NC329557  11.823   9.813   8.160  0.2701 -0.1931 -0.0677
 2442POPC   PO429558  12.168   9.685   8.283 -0.0122  0.2392  0.0231
 2442POPC   GL129559  12.240   9.675   7.879 -0.0362  0.1867  0.1802
 2442POPC   GL229560  11.968   9.714   7.677 -0.1782 -0.1302 -0.4068
 2442POPC   C1A29561  12.444   9.943   7.528 -0.1883 -0.1926  0.0004
 2442POPC   D2A29562  12.505  10.248   7.206 -0.3119  0.2613  0.1282
 2442POPC   C3A29563  12.400  10.009   6.828 -0.4164 -0.1602 -0.4573
 2442POPC   C4A29564  12.605   9.925   6.415 -0.2380  0.1239 -0.1800
 2442POPC   C1B29565  12.259   9.553   7.325 -0.0916 -0.2413  0.1268
 2442POPC   C2B29566  12.672   9.636   7.220 -0.1598 -0.0362 -0.0677
 2442POPC   C3B29567  13.057   9.396   7.383  0.2390  0.0881  0.1846
 2442POPC   C4B29568  13.259   9.174   7.064  0.0083  0.0365 -0.1135
 2443POPC   NC329569   6.866  15.524   7.839 -0.4664 -0.1570  0.1335
 2443POPC   PO429570   6.745  15.851   7.788 -0.1039  0.2420 -0.2021
 2443POPC   GL129571   6.857  15.891   7.426 -0.2636  0.0548 -0.3689
 2443POPC   GL229572   7.103  16.117   7.494 -0.0679  0.1639  0.1222
 2443POPC   C1A29573   6.552  16.103   7.152 -0.1655  0.3665  0.0291
 2443POPC   D2A29574   6.253  16.059   6.768  0.0085  0.1020  0.1388
 2443POPC   C3A29575   6.337  16.057   6.310 -0.0312  0.2048 -0.3905
 2443POPC   C4A29576   6.473  16.290   5.965 -0.1242 -0.1064  0.0700
 2443POPC   C1B29577   7.036  16.082   7.013 -0.2941 -0.4380  0.0122
 2443POPC   C2B29578   6.721  16.114   6.649 -0.3546 -0.2513  0.3239
 2443POPC   C3B29579   6.775  15.847   6.304  0.2156  0.3449 -0.1672
 2443POPC   C4B29580   6.690  15.473   6.076 -0.1045  0.0387 -0.1527
 2444POPC   NC329581   1.767   9.860   7.748 -0.0096 -0.0650 -0.1455
 2444POPC   PO429582   1.620   9.515   7.966 -0.3798  0.0445 -0.1774
 2444POPC   GL129583   1.554   9.420   7.561  0.1996  0.1396  0.2129
 2444POPC   GL229584   1.487   9.577   7.362  0.0792  0.0441  0.0555
 2444POPC   C1A29585   1.617   9.121   7.181 -0.2719 -0.2329  0.0255
 2444POPC   D2A29586   1.651   9.076   6.698  0.1339  0.0718  0.0205
 2444POPC   C3A29587   1.643   8.997   6.213 -0.0075 -0.0065  0.2304
 2444POPC   C4A29588   1.718   9.063   5.728 -0.1642  0.1751 -0.3237
 2444POPC   C1B29589   1.489   9.513   6.913  0.2550  0.0755 -0.1215
 2444POPC   C2B29590   1.548   9.515   6.447  0.2172 -0.2161 -0.1947
 2444POPC   C3B29591   1.710   9.605   6.032  0.1693 -0.2678  0.1317
 2444POPC   C4B29592   2.074   9.641   5.789  0.1990 -0.2274  0.2066
 2445POPC   NC329593  13.735  20.864   7.526 -0.1123 -0.0543 -0.0637
 2445POPC   PO429594  13.447  20.601   7.439  0.0587  0.0350  0.3673
 2445POPC   GL129595  13.416  20.672   7.083  0.4053 -0.1550  0.1705
 2445POPC   GL229596  13.479  21.003   7.078  0.1061 -0.2062  0.2054
 2445POPC   C1A29597  13.219  20.637   6.663  0.2167 -0.0405  0.0272
 2445POPC   D2A29598  13.015  20.392   6.285 -0.0811  0.1371 -0.2484
 2445POPC   C3A29599  13.069  20.417   5.799 -0.5109 -0.1461  0.1046
 2445POPC   C4A29600  13.184  20.543   5.372 -0.1559 -0.1156  0.1851
 2445POPC   C1B29601  13.647  20.929   6.601  0.1451  0.2631 -0.0919
 2445POPC   C2B29602  13.413  20.728   6.152  0.0247  0.3482 -0.1705
 2445POPC   C3B29603  13.288  20.875   5.715  0.0420  0.1124 -0.1308
 2445POPC   C4B29604  13.089  21.136   5.485  0.1194 -0.0068 -0.2228
 2446POPC   NC329605  11.112   3.577   7.795  0.1446  0.1972 -0.0859
 2446POPC   PO429606  10.875   3.256   7.843  0.0450 -0.1149  0.1800
 2446POPC   GL129607  10.891   3.047   7.527 -0.0062  0.0784 -0.1732
 2446POPC   GL229608  10.780   2.826   7.461  0.1946  0.4597 -0.0177
 2446POPC   C1A29609  10.961   3.103   7.090 -0.2525 -0.0778  0.3686
 2446POPC   D2A29610  10.863   3.332   6.700 -0.2683  0.2742  0.0226
 2446POPC   C3A29611  11.099   3.102   6.392 -0.3277 -0.0390  0.0633
 2446POPC   C4A29612  11.345   3.174   6.010  0.0788  0.0510 -0.3303
 2446POPC   C1B29613  10.829   2.653   7.059  0.0811 -0.0097 -0.2396
 2446POPC   C2B29614  10.797   2.762   6.585 -0.0117  0.2247  0.3178
 2446POPC   C3B29615  10.808   2.734   6.143  0.0670  0.1617 -0.3429
 2446POPC   C4B29616  10.624   2.926   5.803  0.2277  0.0406  0.0481
 2447POPC   NC329617   5.313   6.645   7.452 -0.1743 -0.1676 -0.1214
 2447POPC   PO429618   5.559   6.347   7.556  0.3447 -0.1364 -0.0166
 2447POPC   GL129619   5.786   6.111   7.308 -0.0314 -0.1977 -0.0840
 2447POPC   GL229620   5.579   5.895   7.246 -0.1675  0.2656  0.3790
 2447POPC   C1A29621   5.965   6.120   6.862 -0.1526  0.0885  0.2272
 2447POPC   D2A29622   6.207   5.868   6.574  0.1689  0.1121 -0.0573
 2447POPC   C3A29623   6.451   5.900   6.193 -0.2057  0.2273 -0.1277
 2447POPC   C4A29624   6.508   6.172   5.796 -0.3599 -0.1547  0.0499
 2447POPC   C1B29625   5.145   5.965   7.059  0.0230 -0.0610  0.1228
 2447POPC   C2B29626   4.974   6.070   6.597 -0.1970 -0.1780 -0.0917
 2447POPC   C3B29627   5.111   5.936   6.178 -0.0961 -0.2367  0.0590
 2447POPC   C4B29628   5.466   5.709   6.014 -0.2488 -0.0085  0.1103
 2448POPC   NC329629   8.510  16.496   8.278  0.0492  0.1608  0.0756
 2448POPC   PO429630   8.255  16.562   7.936  0.1722 -0.4308 -0.2258
 2448POPC   GL129631   8.130  16.435   7.538  0.1504 -0.2491 -0.2769
 2448POPC   GL229632   8.049  16.170   7.528 -0.2112 -0.0134  0.5526
 2448POPC   C1A29633   8.021  16.382   7.083  0.1385 -0.3014 -0.3972
 2448POPC   D2A29634   8.095  16.293   6.630 -0.0709 -0.0622  0.0788
 2448POPC   C3A29635   7.764  16.399   6.353 -0.3135  0.0606  0.2431
 2448POPC   C4A29636   7.381  16.599   6.208 -0.0750  0.2496  0.0289
 2448POPC   C1B29637   8.154  15.883   7.183  0.2022 -0.2552  0.1764
 2448POPC   C2B29638   8.234  15.848   6.771  0.2814  0.0023  0.0360
 2448POPC   C3B29639   8.331  15.933   6.351 -0.0582 -0.3051  0.0348
 2448POPC   C4B29640   8.549  16.144   6.032 -0.1950 -0.2359  0.0089
 2449POPC   NC329641   5.149   6.731   8.324 -0.0962  0.1072 -0.1757
 2449POPC   PO429642   5.208   6.729   7.954  0.1925  0.0495  0.1569
 2449POPC   GL129643   4.894   6.747   7.722  0.0501  0.1902  0.0358
 2449POPC   GL229644   4.831   6.458   7.595  0.0388 -0.3877  0.1297
 2449POPC   C1A29645   4.855   6.964   7.301 -0.0171  0.1211 -0.2118
 2449POPC   D2A29646   4.637   6.944   6.854 -0.0678 -0.2809  0.1960
 2449POPC   C3A29647   4.579   7.106   6.437 -0.0432  0.1773 -0.0566
 2449POPC   C4A29648   4.446   6.982   5.990 -0.0687  0.3211  0.2590
 2449POPC   C1B29649   4.943   6.419   7.162  0.5614 -0.0930  0.0162
 2449POPC   C2B29650   4.988   6.550   6.735 -0.3725 -0.0875  0.0122
 2449POPC   C3B29651   5.303   6.513   6.370 -0.1968  0.2212  0.0626
 2449POPC   C4B29652   5.542   6.172   6.132  0.2816 -0.0870  0.1156
 2450POPC   NC329653  10.140   3.772   8.090 -0.0617  0.0556 -0.0357
 2450POPC   PO429654   9.876   3.577   7.933  0.0435  0.0035  0.0010
 2450POPC   GL129655   9.754   3.473   7.505  0.1899  0.1879 -0.2423
 2450POPC   GL229656   9.523   3.451   7.314  0.1245 -0.4611 -0.1331
 2450POPC   C1A29657  10.012   3.522   7.070 -0.0886 -0.0160 -0.1381
 2450POPC   D2A29658   9.939   3.452   6.623 -0.1485 -0.1794 -0.0980
 2450POPC   C3A29659   9.865   3.864   6.483 -0.0228 -0.1345  0.0897
 2450POPC   C4A29660   9.877   4.066   6.096  0.2086 -0.0334 -0.0694
 2450POPC   C1B29661   9.505   3.233   6.845 -0.0596  0.0283 -0.0729
 2450POPC   C2B29662   9.532   3.104   6.386  0.0057 -0.2211 -0.1322
 2450POPC   C3B29663   9.502   3.160   5.982  0.0299  0.1165  0.0911
 2450POPC   C4B29664   9.521   3.216   5.560 -0.1750  0.2647 -0.0406
 2451POPC   NC329665  10.616  14.164   7.401 -0.0310 -0.2155  0.2134
 2451POPC   PO429666  10.822  14.435   7.640  0.1811  0.1125 -0.0876
 2451POPC   GL129667  10.882  14.632   7.322  0.3456  0.4355 -0.0224
 2451POPC   GL229668  10.960  14.888   7.382  0.0889 -0.0589 -0.0738
 2451POPC   C1A29669  10.611  14.748   6.943 -0.2125  0.0434  0.0731
 2451POPC   D2A29670  10.287  14.631   6.684 -0.2329  0.0691 -0.1488
 2451POPC   C3A29671  10.422  14.477   6.264  0.1258 -0.0025  0.2838
 2451POPC   C4A29672  10.545  14.205   5.929  0.3133  0.3195 -0.1030
 2451POPC   C1B29673  10.997  15.094   6.989  0.0887 -0.0040 -0.0725
 2451POPC   C2B29674  10.972  15.214   6.521 -0.3596  0.1161 -0.3081
 2451POPC   C3B29675  11.092  15.169   6.068 -0.0674 -0.0911  0.2323
 2451POPC   C4B29676  11.088  14.869   5.716  0.0249  0.1051 -0.1719
 2452POPC   NC329677  15.594  18.305   8.108 -0.4582  0.1497  0.1098
 2452POPC   PO429678  15.238  18.493   8.108 -0.0436  0.1410 -0.1258
 2452POPC   GL129679  15.458  18.606   7.730  0.3182  0.3762  0.2824
 2452POPC   GL229680  15.430  18.318   7.599 -0.3968  0.0334 -0.1937
 2452POPC   C1A29681  15.800  18.842   7.509 -0.1427  0.0308 -0.0787
 2452POPC   D2A29682  16.204  19.059   7.417 -0.4253 -0.1072 -0.2205
 2452POPC   C3A29683  16.606  18.935   7.157  0.1871 -0.4991  0.0918
 2452POPC   C4A29684  16.747  18.894   6.739  0.1299  0.0502 -0.1760
 2452POPC   C1B29685  15.633  18.516   7.231  0.1390 -0.1396 -0.3230
 2452POPC   C2B29686  16.073  18.620   7.094  0.2755 -0.2998 -0.0805
 2452POPC   C3B29687  16.352  18.591   6.734  0.1692  0.0383 -0.1805
 2452POPC   C4B29688  16.611  18.583   6.367 -0.3263 -0.1015  0.1835
 2453POPC   NC329689   6.582   0.827   7.408  0.0960 -0.4370  0.2151
 2453POPC   PO429690   6.759   1.099   7.635 -0.2037  0.1509 -0.0839
 2453POPC   GL129691   6.977   1.276   7.301  0.3504 -0.0188 -0.1108
 2453POPC   GL229692   6.804   1.138   7.132  0.1278 -0.3074  0.2173
 2453POPC   C1A29693   6.769   1.522   6.887  0.0246 -0.0487 -0.2258
 2453POPC   D2A29694   6.618   1.544   6.439 -0.0050 -0.2124 -0.0455
 2453POPC   C3A29695   6.598   1.861   6.117 -0.0892  0.0378 -0.1322
 2453POPC   C4A29696   6.630   2.111   5.768  0.4181  0.2197  0.3494
 2453POPC   C1B29697   6.916   0.887   6.715 -0.0066 -0.0475 -0.4397
 2453POPC   C2B29698   7.056   0.635   6.457  0.0916  0.0906  0.0486
 2453POPC   C3B29699   6.956   0.395   6.112  0.0321  0.2639  0.0362
 2453POPC   C4B29700   7.099   0.057   5.757 -0.1086 -0.3954 -0.2414
 2454POPC   NC329701   9.783  26.768   8.400 -0.3615 -0.4148 -0.2387
 2454POPC   PO429702   9.809  26.482   8.173  0.0792  0.2126  0.0056
 2454POPC   GL129703   9.879  26.501   7.816  0.1484 -0.0052 -0.4852
 2454POPC   GL229704   9.737  26.668   7.758  0.0064 -0.0598  0.1490
 2454POPC   C1A29705   9.816  26.294   7.392 -0.1534  0.1998 -0.1413
 2454POPC   D2A29706   9.693  26.049   7.055  0.0737 -0.2165  0.1201
 2454POPC   C3A29707   9.381  26.332   6.885 -0.1450 -0.2487 -0.0237
 2454POPC   C4A29708   8.972  26.529   6.746 -0.2196 -0.0020 -0.0210
 2454POPC   C1B29709   9.677  26.804   7.358 -0.1110  0.0632  0.3161
 2454POPC   C2B29710   9.711  26.925   6.894  0.1146  0.0071 -0.1498
 2454POPC   C3B29711   9.844  27.341   6.748  0.0520  0.0239  0.0665
 2454POPC   C4B29712   9.952  27.641   6.408  0.1674  0.2425 -0.1551
 2455POPC   NC329713   0.801  28.661   8.097 -0.0210  0.4364  0.1579
 2455POPC   PO429714   0.974  28.324   7.965  0.2776 -0.0583 -0.1384
 2455POPC   GL129715   0.794  28.205   7.572  0.1412 -0.4142  0.2779
 2455POPC   GL229716   1.068  28.166   7.490  0.2337  0.0754 -0.3533
 2455POPC   C1A29717   0.448  28.115   7.308  0.1449  0.0248  0.2869
 2455POPC   D2A29718   0.084  28.412   7.082  0.0736 -0.4770  0.0466
 2455POPC   C3A29719   0.205  28.484   6.607  0.0576  0.0138  0.0090
 2455POPC   C4A29720  -0.056  28.471   6.175  0.0885 -0.0699 -0.1403
 2455POPC   C1B29721   0.923  28.189   7.050 -0.0082  0.0076 -0.0459
 2455POPC   C2B29722   1.066  28.093   6.634 -0.0871  0.1158 -0.1911
 2455POPC   C3B29723   1.457  27.910   6.456 -0.0849 -0.1184  0.0374
 2455POPC   C4B29724   1.678  27.859   6.047 -0.1332  0.3554  0.1340
 2456POPC   NC329725  11.662  21.907   7.750 -0.0207  0.0264 -0.2032
 2456POPC   PO429726  11.757  22.173   7.468 -0.1391 -0.0253 -0.0363
 2456POPC   GL129727  11.674  21.989   7.158  0.4185 -0.1268  0.1286
 2456POPC   GL229728  11.962  22.052   7.041  0.4015 -0.1390 -0.1019
 2456POPC   C1A29729  11.313  22.015   6.911  0.1331  0.0576  0.0705
 2456POPC   D2A29730  11.032  22.281   6.672  0.1405 -0.4472  0.2054
 2456POPC   C3A29731  11.018  22.219   6.216 -0.1986 -0.0687  0.0272
 2456POPC   C4A29732  11.260  22.161   5.813 -0.2054 -0.2413  0.1086
 2456POPC   C1B29733  11.763  22.076   6.636 -0.1466 -0.0533 -0.0861
 2456POPC   C2B29734  11.575  22.094   6.254 -0.1481  0.1064 -0.4192
 2456POPC   C3B29735  11.742  21.887   5.869 -0.0522  0.2152 -0.0701
 2456POPC   C4B29736  12.170  21.974   5.806 -0.1084 -0.0852  0.3699
 2457POPC   NC329737   5.846  26.898   8.327  0.0254  0.1381 -0.1326
 2457POPC   PO429738   5.965  27.202   8.069  0.0462  0.2008  0.1420
 2457POPC   GL129739   5.942  27.041   7.799  0.1936  0.1890  0.4002
 2457POPC   GL229740   5.735  27.132   7.608 -0.1556 -0.0004  0.2619
 2457POPC   C1A29741   6.165  27.106   7.355 -0.0719 -0.2884 -0.0461
 2457POPC   D2A29742   6.163  27.240   6.914 -0.1886 -0.4414 -0.3574
 2457POPC   C3A29743   5.770  27.191   6.635 -0.0783 -0.2660 -0.4525
 2457POPC   C4A29744   5.498  27.521   6.465  0.1434 -0.2461  0.1397
 2457POPC   C1B29745   5.589  27.218   7.207  0.2859  0.2943 -0.0307
 2457POPC   C2B29746   5.308  27.196   6.845  0.2901 -0.2134 -0.0361
 2457POPC   C3B29747   5.284  26.983   6.452  0.0389 -0.1593 -0.2888
 2457POPC   C4B29748   5.170  26.840   5.995 -0.1729 -0.2124 -0.2189
 2458POPC   NC329749  13.431  10.010   8.538  0.1697  0.0601 -0.1696
 2458POPC   PO429750  13.647  10.253   8.331 -0.0442  0.1223  0.1277
 2458POPC   GL129751  13.519  10.088   8.050  0.0870 -0.0783  0.1040
 2458POPC   GL229752  13.695  10.043   7.840 -0.0801 -0.0395  0.1852
 2458POPC   C1A29753  13.212   9.827   7.894  0.0616 -0.0408 -0.0082
 2458POPC   D2A29754  12.744   9.823   7.966  0.0098  0.1418 -0.2979
 2458POPC   C3A29755  12.666   9.398   7.840 -0.0541 -0.2431 -0.1494
 2458POPC   C4A29756  12.286   9.182   7.677  0.0637  0.2706  0.0749
 2458POPC   C1B29757  13.442   9.996   7.461  0.0453  0.0631  0.2652
 2458POPC   C2B29758  13.350   9.958   6.997  0.0285 -0.0052 -0.0036
 2458POPC   C3B29759  13.129   9.889   6.601 -0.0206  0.0738 -0.2546
 2458POPC   C4B29760  13.294   9.953   6.164 -0.0129 -0.2447  0.0107
 2459POPC   NC329761   2.916   0.688   8.541  0.1528 -0.3206 -0.0571
 2459POPC   PO429762   2.539   0.650   8.376 -0.1280  0.4425  0.2075
 2459POPC   GL129763   2.450   0.509   8.022  0.0989 -0.0261  0.1013
 2459POPC   GL229764   2.530   0.733   7.856 -0.0284 -0.0559  0.1856
 2459POPC   C1A29765   2.025   0.517   7.812 -0.1217 -0.1817  0.2010
 2459POPC   D2A29766   1.642   0.615   7.583 -0.0172 -0.2025 -0.2713
 2459POPC   C3A29767   1.553   0.527   7.113 -0.1663  0.4228 -0.1363
 2459POPC   C4A29768   1.389   0.230   6.820 -0.1659 -0.0512 -0.0085
 2459POPC   C1B29769   2.455   0.425   7.469  0.3086  0.0126  0.0050
 2459POPC   C2B29770   2.339   0.085   7.195 -0.2426  0.0586 -0.1481
 2459POPC   C3B29771   2.197  -0.267   7.010  0.0198  0.2383  0.1551
 2459POPC   C4B29772   2.026  -0.383   6.612 -0.0681 -0.0561 -0.2094
 2460POPC   NC329773  10.681   5.141   7.475  0.1962  0.2473 -0.1563
 2460POPC   PO429774  10.629   5.528   7.503  0.0714 -0.3252  0.2277
 2460POPC   GL129775  10.756   5.572   7.098  0.0895 -0.3879 -0.1259
 2460POPC   GL229776  10.973   5.331   7.057  0.0587 -0.1560 -0.4400
 2460POPC   C1A29777  10.701   5.703   6.656  0.1603 -0.2143  0.0726
 2460POPC   D2A29778  10.578   5.773   6.243 -0.0192  0.1863  0.1896
 2460POPC   C3A29779  10.210   5.528   6.276  0.3824  0.0571 -0.1125
 2460POPC   C4A29780   9.992   5.189   6.525  0.0140  0.2005 -0.0988
 2460POPC   C1B29781  11.014   5.334   6.579  0.2280 -0.1790 -0.1112
 2460POPC   C2B29782  11.014   5.010   6.207 -0.0621  0.3924  0.2250
 2460POPC   C3B29783  10.698   4.836   5.916  0.0981 -0.4824 -0.0427
 2460POPC   C4B29784  10.396   4.903   5.591  0.0569  0.1191  0.2805
 2461POPC   NC329785   5.098  19.504   8.108  0.0241  0.2075 -0.3578
 2461POPC   PO429786   4.834  19.827   8.135 -0.1342 -0.1041  0.0535
 2461POPC   GL129787   4.840  19.701   7.778  0.2533 -0.0549 -0.0629
 2461POPC   GL229788   4.538  19.725   7.632  0.3557  0.1368  0.2503
 2461POPC   C1A29789   5.049  19.875   7.401 -0.0538  0.3012  0.1056
 2461POPC   D2A29790   4.943  20.006   7.006  0.0455  0.3882 -0.5344
 2461POPC   C3A29791   4.985  20.060   6.553 -0.0286 -0.0891 -0.0746
 2461POPC   C4A29792   4.962  20.083   6.101 -0.0313 -0.1867  0.0242
 2461POPC   C1B29793   4.619  20.118   7.417  0.1231  0.0827  0.1840
 2461POPC   C2B29794   4.956  20.411   7.426  0.2560  0.1290  0.0157
 2461POPC   C3B29795   5.372  20.300   7.223  0.0639 -0.1095 -0.2192
 2461POPC   C4B29796   5.720  20.036   7.351  0.5412  0.0495  0.1328
 2462POPC   NC329797   6.944   4.855   8.143 -0.2163  0.2856 -0.0296
 2462POPC   PO429798   7.202   4.903   7.806  0.1782  0.2162 -0.3147
 2462POPC   GL129799   7.024   4.604   7.773 -0.2652  0.2601  0.1373
 2462POPC   GL229800   7.149   4.419   7.972  0.1292 -0.1375  0.0410
 2462POPC   C1A29801   6.836   4.315   7.439  0.0497 -0.0660  0.4548
 2462POPC   D2A29802   6.496   4.038   7.236  0.1600  0.2018  0.1073
 2462POPC   C3A29803   6.590   3.650   7.031 -0.0489 -0.1995 -0.3832
 2462POPC   C4A29804   6.504   3.471   6.598  0.0376 -0.0002  0.1640
 2462POPC   C1B29805   6.716   4.312   7.915 -0.1752  0.0538  0.2081
 2462POPC   C2B29806   6.339   4.277   8.133  0.3089  0.0740  0.1342
 2462POPC   C3B29807   6.076   3.908   7.952 -0.1038  0.3313 -0.2339
 2462POPC   C4B29808   5.694   3.617   7.791 -0.1334 -0.1000 -0.0106
 2463POPC   NC329809  12.621  28.826   7.732  0.0740 -0.2415 -0.1679
 2463POPC   PO429810  12.530  29.225   7.683  0.0658 -0.0039  0.0138
 2463POPC   GL129811  12.431  29.190   7.222 -0.0724 -0.0672  0.3035
 2463POPC   GL229812  12.568  28.919   7.183  0.1170  0.1719 -0.1704
 2463POPC   C1A29813  12.294  29.332   6.779 -0.1299  0.0800 -0.1705
 2463POPC   D2A29814  12.102  29.335   6.349 -0.0133  0.5274  0.0934
 2463POPC   C3A29815  11.724  29.572   6.273 -0.2681 -0.1321 -0.1044
 2463POPC   C4A29816  11.287  29.576   6.054 -0.3828  0.1131  0.1186
 2463POPC   C1B29817  12.417  28.821   6.762 -0.2309 -0.0145  0.0046
 2463POPC   C2B29818  12.304  28.841   6.286 -0.0539  0.1909 -0.0666
 2463POPC   C3B29819  12.008  28.973   5.954 -0.1584 -0.1656 -0.1578
 2463POPC   C4B29820  11.617  29.148   5.820  0.3664  0.0651  0.0706
 2464POPC   NC329821   4.876   9.131   8.110 -0.1839 -0.0186  0.0004
 2464POPC   PO429822   4.711   9.496   8.221  0.1507  0.0097 -0.2009
 2464POPC   GL129823   4.604   9.612   7.871 -0.3708 -0.0369  0.2230
 2464POPC   GL229824   4.524   9.368   7.771  0.2470 -0.1789  0.2705
 2464POPC   C1A29825   4.570   9.869   7.488  0.0373 -0.0829 -0.0069
 2464POPC   D2A29826   4.500  10.179   7.174 -0.4018 -0.1555 -0.3085
 2464POPC   C3A29827   4.778  10.089   6.808 -0.0881  0.0361  0.3506
 2464POPC   C4A29828   5.291  10.012   6.666  0.1035  0.0301 -0.2986
 2464POPC   C1B29829   4.708   9.046   7.435 -0.2152  0.0299 -0.0136
 2464POPC   C2B29830   4.702   9.129   6.927 -0.1184 -0.3305  0.0696
 2464POPC   C3B29831   4.826   9.069   6.501 -0.1560 -0.1682  0.1526
 2464POPC   C4B29832   5.264   9.031   6.312  0.2579  0.2555 -0.0461
 2465POPC   NC329833  14.399  14.200   7.452  0.2246 -0.1783 -0.2286
 2465POPC   PO429834  14.565  14.508   7.578 -0.3535  0.2225 -0.0312
 2465POPC   GL129835  14.403  14.673   7.290  0.1485  0.0497  0.0833
 2465POPC   GL229836  14.688  14.750   7.137 -0.0399  0.1147  0.0672
 2465POPC   C1A29837  14.180  14.914   6.926 -0.0247  0.1047 -0.2269
 2465POPC   D2A29838  13.942  15.092   6.617 -0.0344 -0.2023  0.0475
 2465POPC   C3A29839  13.864  15.231   6.170  0.1553  0.1177  0.1691
 2465POPC   C4A29840  14.102  15.243   5.775 -0.1664 -0.2224 -0.0401
 2465POPC   C1B29841  14.707  14.840   6.701 -0.1509 -0.0434 -0.0132
 2465POPC   C2B29842  14.379  14.895   6.372  0.1485 -0.4427 -0.1922
 2465POPC   C3B29843  14.442  14.941   5.948  0.0513  0.0061  0.1122
 2465POPC   C4B29844  14.518  14.973   5.549  0.1856  0.1725  0.3833
 2466POPC   NC329845   6.545  21.018   7.900  0.0553  0.1750  0.0841
 2466POPC   PO429846   6.877  21.221   7.814 -0.1243  0.0405 -0.0224
 2466POPC   GL129847   6.836  21.012   7.472  0.2798  0.3614  0.0807
 2466POPC   GL229848   6.615  21.115   7.355  0.2361  0.0768  0.1931
 2466POPC   C1A29849   6.740  20.750   7.093 -0.2335 -0.1399 -0.1362
 2466POPC   D2A29850   6.725  20.384   6.744 -0.1692 -0.2979 -0.1355
 2466POPC   C3A29851   6.633  20.449   6.318 -0.0822  0.0388 -0.1037
 2466POPC   C4A29852   6.714  20.590   5.857 -0.1465  0.1062  0.0154
 2466POPC   C1B29853   6.435  21.156   6.895  0.4239  0.0111 -0.1232
 2466POPC   C2B29854   6.166  21.273   6.543 -0.0170  0.0210 -0.0265
 2466POPC   C3B29855   6.070  21.078   6.159  0.1229  0.3197 -0.1404
 2466POPC   C4B29856   5.840  20.737   5.901  0.2531 -0.1636 -0.0683
 2467POPC   NC329857   8.539  22.077   7.784  0.2721 -0.0557  0.1191
 2467POPC   PO429858   8.698  22.316   7.538  0.2282 -0.0510  0.1381
 2467POPC   GL129859   8.697  22.455   7.166  0.2033 -0.2550 -0.1210
 2467POPC   GL229860   8.856  22.650   7.254  0.0402 -0.0010  0.1840
 2467POPC   C1A29861   8.850  22.556   6.767  0.0395 -0.1104 -0.0448
 2467POPC   D2A29862   9.123  22.808   6.556  0.1203  0.1287  0.0213
 2467POPC   C3A29863   9.256  22.844   6.127  0.1204 -0.2524  0.1174
 2467POPC   C4A29864   9.361  22.875   5.652  0.1341 -0.1721  0.0993
 2467POPC   C1B29865   9.232  22.778   7.012 -0.0207  0.2285  0.1311
 2467POPC   C2B29866   9.307  23.190   6.832 -0.0607 -0.1905 -0.1380
 2467POPC   C3B29867   9.363  23.395   6.366 -0.0767  0.2580 -0.0991
 2467POPC   C4B29868   9.731  23.522   6.095 -0.1905  0.2423 -0.1171
 2468POPC   NC329869   6.243  27.849   8.091 -0.2427 -0.1709  0.1618
 2468POPC   PO429870   6.386  28.237   8.111 -0.0221 -0.0134 -0.2710
 2468POPC   GL129871   6.470  28.218   7.675  0.1809  0.0374 -0.1676
 2468POPC   GL229872   6.475  28.525   7.564 -0.2596 -0.0431  0.1175
 2468POPC   C1A29873   6.164  27.953   7.475  0.0840  0.0157 -0.0269
 2468POPC   D2A29874   5.916  27.563   7.348 -0.1540 -0.2153 -0.1781
 2468POPC   C3A29875   5.832  27.584   6.892  0.0494 -0.1218 -0.1731
 2468POPC   C4A29876   5.989  27.659   6.475 -0.0192  0.1654 -0.0451
 2468POPC   C1B29877   6.678  28.552   7.188 -0.1901 -0.1238  0.2324
 2468POPC   C2B29878   6.988  28.269   6.935  0.1003 -0.0189 -0.3774
 2468POPC   C3B29879   7.355  28.104   6.870  0.3347  0.1269  0.0777
 2468POPC   C4B29880   7.756  28.100   6.660  0.0807 -0.1021  0.3196
 2469POPC   NC329881  14.539   8.128   7.938 -0.1773  0.1989  0.3224
 2469POPC   PO429882  14.636   8.344   7.625 -0.2059  0.1759  0.1335
 2469POPC   GL129883  14.364   8.206   7.432  0.0262 -0.2124 -0.0606
 2469POPC   GL229884  14.116   8.275   7.523 -0.0355  0.2428 -0.0652
 2469POPC   C1A29885  14.395   8.261   6.978  0.0934 -0.0168 -0.2274
 2469POPC   D2A29886  14.321   8.528   6.618 -0.1382  0.0134 -0.3164
 2469POPC   C3A29887  14.578   8.336   6.283 -0.2993 -0.2822 -0.2039
 2469POPC   C4A29888  14.550   8.146   5.844 -0.1269  0.0681 -0.0740
 2469POPC   C1B29889  14.156   8.604   7.236 -0.0728 -0.2319 -0.0483
 2469POPC   C2B29890  14.152   8.902   6.907 -0.2742 -0.1626 -0.0872
 2469POPC   C3B29891  14.241   9.070   6.457 -0.1214  0.0134  0.2467
 2469POPC   C4B29892  14.272   9.132   5.981 -0.0027 -0.0113  0.3272
 2470POPC   NC329893   2.174  15.924   7.946 -0.1317  0.1509  0.0282
 2470POPC   PO429894   1.952  16.096   7.672 -0.0575  0.3071  0.3356
 2470POPC   GL129895   1.721  16.311   7.410  0.0409  0.0839 -0.2742
 2470POPC   GL229896   1.397  16.243   7.525 -0.0948 -0.0460  0.0837
 2470POPC   C1A29897   1.526  16.478   7.074 -0.0144 -0.1595  0.1522
 2470POPC   D2A29898   1.445  16.779   6.689  0.2859 -0.2299 -0.0591
 2470POPC   C3A29899   1.000  16.837   6.723 -0.2565 -0.0729 -0.0105
 2470POPC   C4A29900   0.676  16.648   6.447  0.1788  0.1756  0.0603
 2470POPC   C1B29901   1.176  16.654   7.425 -0.2264  0.1932 -0.0603
 2470POPC   C2B29902   0.875  16.859   7.195 -0.2366  0.2096 -0.2792
 2470POPC   C3B29903   0.434  16.865   6.927 -0.2685 -0.0896 -0.2693
 2470POPC   C4B29904   0.127  16.678   6.594  0.0963 -0.4248 -0.1707
 2471POPC   NC329905  15.720  22.327   7.647 -0.0470 -0.0840  0.0752
 2471POPC   PO429906  16.016  22.471   7.475  0.0376 -0.0151 -0.1266
 2471POPC   GL129907  15.726  22.362   7.184  0.3190 -0.2980 -0.0463
 2471POPC   GL229908  15.658  22.083   7.143 -0.1808  0.0158 -0.1733
 2471POPC   C1A29909  15.321  22.392   6.923  0.1220 -0.0894  0.4274
 2471POPC   D2A29910  14.943  22.360   6.660  0.0159 -0.1767 -0.5084
 2471POPC   C3A29911  14.986  22.489   6.190 -0.1104  0.0730  0.0607
 2471POPC   C4A29912  14.748  22.263   5.838  0.1308 -0.2563  0.0884
 2471POPC   C1B29913  15.810  22.271   6.721  0.0649 -0.2597 -0.0402
 2471POPC   C2B29914  15.918  22.273   6.323 -0.0790  0.1448 -0.1015
 2471POPC   C3B29915  15.988  22.201   5.862  0.1289  0.3366 -0.0670
 2471POPC   C4B29916  16.204  22.246   5.441 -0.0517  0.0966 -0.2043
 2472POPC   NC329917   7.946  10.450   7.242 -0.2070 -0.0659  0.2438
 2472POPC   PO429918   8.252  10.209   7.281 -0.0844  0.1688  0.0357
 2472POPC   GL129919   8.407  10.453   7.074  0.1955  0.5142  0.1553
 2472POPC   GL229920   8.672  10.334   7.126 -0.2136 -0.2200  0.1166
 2472POPC   C1A29921   8.325  10.654   6.706 -0.0400  0.1857 -0.0659
 2472POPC   D2A29922   8.478  10.663   6.238 -0.0436  0.0262  0.2029
 2472POPC   C3A29923   8.357  10.560   5.770  0.0861  0.0528  0.0401
 2472POPC   C4A29924   8.071  10.283   5.531  0.0827 -0.1992  0.2522
 2472POPC   C1B29925   8.784  10.539   6.690  0.0578 -0.1859 -0.1384
 2472POPC   C2B29926   8.997  10.626   6.340  0.0695 -0.0691  0.1135
 2472POPC   C3B29927   8.871  10.631   5.900  0.0430 -0.0898  0.1506
 2472POPC   C4B29928   8.878  10.460   5.448 -0.1238  0.1118 -0.1762
 2473POPC   NC329929   6.212   5.942   7.224  0.4042  0.0954 -0.0088
 2473POPC   PO429930   6.411   5.693   7.457 -0.0937 -0.0006 -0.5533
 2473POPC   GL129931   6.579   5.588   7.115  0.1230 -0.0966  0.2823
 2473POPC   GL229932   6.470   5.350   6.985 -0.0489  0.1695  0.2415
 2473POPC   C1A29933   6.671   5.657   6.680 -0.0176  0.2603  0.0273
 2473POPC   D2A29934   6.896   6.028   6.451 -0.1670  0.2918  0.2873
 2473POPC   C3A29935   7.347   6.177   6.409  0.0629  0.1888 -0.2102
 2473POPC   C4A29936   7.491   6.595   6.337  0.2319 -0.1733  0.4642
 2473POPC   C1B29937   6.417   5.299   6.506  0.0296 -0.1279  0.0305
 2473POPC   C2B29938   6.529   5.086   6.109  0.0997 -0.2718  0.0387
 2473POPC   C3B29939   6.624   4.652   5.972 -0.2276 -0.1597  0.2408
 2473POPC   C4B29940   6.791   4.235   6.015 -0.1003 -0.2280 -0.2031
 2474POPC   NC329941   7.817  20.064   7.894  0.0283  0.2727 -0.1426
 2474POPC   PO429942   7.968  19.806   7.681 -0.0508 -0.0051  0.0341
 2474POPC   GL129943   7.900  20.185   7.500  0.0688 -0.0325 -0.1040
 2474POPC   GL229944   8.116  20.259   7.420 -0.0629 -0.1095 -0.1154
 2474POPC   C1A29945   7.710  20.553   7.272  0.2691  0.3099  0.0227
 2474POPC   D2A29946   7.817  20.773   6.872 -0.2678 -0.3044  0.0287
 2474POPC   C3A29947   8.123  20.762   6.504  0.3626  0.1402  0.3011
 2474POPC   C4A29948   8.361  20.713   6.152  0.4012  0.3587  0.0240
 2474POPC   C1B29949   8.028  20.308   6.955  0.0913  0.0714  0.1198
 2474POPC   C2B29950   7.988  20.162   6.480  0.1528 -0.0371  0.0415
 2474POPC   C3B29951   8.116  20.136   6.048  0.3158 -0.1429  0.0477
 2474POPC   C4B29952   8.066  20.172   5.547 -0.1622  0.2217 -0.1632
 2475POPC   NC329953  15.776   5.624   7.931 -0.3069 -0.0706 -0.1255
 2475POPC   PO429954  15.409   5.815   7.933 -0.1547  0.2556  0.1291
 2475POPC   GL129955  15.071   5.588   7.923 -0.0695 -0.1238  0.0176
 2475POPC   GL229956  15.152   5.412   8.082  0.0920 -0.1846  0.0628
 2475POPC   C1A29957  14.758   5.265   7.752  0.0823 -0.1913  0.2530
 2475POPC   D2A29958  14.514   4.986   7.447  0.0889  0.1530 -0.3753
 2475POPC   C3A29959  14.549   4.643   7.224  0.0182  0.0189 -0.3505
 2475POPC   C4A29960  14.441   4.249   7.071  0.2751  0.1174  0.3010
 2475POPC   C1B29961  15.219   5.298   7.593  0.1916 -0.2343 -0.0298
 2475POPC   C2B29962  14.947   5.116   7.249 -0.0198 -0.0657 -0.1379
 2475POPC   C3B29963  14.618   5.072   6.908  0.0092 -0.0822  0.0270
 2475POPC   C4B29964  14.325   4.770   6.777 -0.1063  0.0568 -0.3100
 2476POPC   NC329965  12.842  27.812   7.088  0.0045 -0.1032 -0.0454
 2476POPC   PO429966  12.658  27.992   7.373  0.1404 -0.0033 -0.2091
 2476POPC   GL129967  12.673  28.259   7.008 -0.1354  0.0757 -0.3265
 2476POPC   GL229968  12.820  28.593   6.909 -0.0994  0.0607 -0.1044
 2476POPC   C1A29969  12.707  28.176   6.523  0.0817  0.1310 -0.1750
 2476POPC   D2A29970  12.579  27.796   6.321 -0.1076  0.1722 -0.1349
 2476POPC   C3A29971  12.102  27.704   6.265 -0.2437  0.1244  0.2571
 2476POPC   C4A29972  12.016  27.416   5.920  0.1164 -0.2505  0.3731
 2476POPC   C1B29973  12.794  28.699   6.405  0.1864 -0.0097 -0.1331
 2476POPC   C2B29974  12.951  28.614   5.971 -0.2079 -0.0392  0.2453
 2476POPC   C3B29975  13.237  28.286   5.735  0.0101 -0.0804 -0.1058
 2476POPC   C4B29976  13.545  27.989   5.694  0.1069 -0.0265 -0.1354
 2477POPC   NC329977   4.537  24.391   8.144  0.0093 -0.1597 -0.3205
 2477POPC   PO429978   4.553  24.114   7.899  0.0973  0.0244  0.5330
 2477POPC   GL129979   4.716  24.397   7.679 -0.1942  0.0367  0.5551
 2477POPC   GL229980   4.729  24.268   7.352 -0.1502  0.0688  0.1291
 2477POPC   C1A29981   4.574  24.747   7.391 -0.1631  0.0288 -0.0072
 2477POPC   D2A29982   4.784  25.000   7.047 -0.1455 -0.0541 -0.4140
 2477POPC   C3A29983   4.368  25.050   7.032 -0.0382 -0.0531 -0.0659
 2477POPC   C4A29984   4.084  25.413   7.192 -0.2724 -0.2056 -0.3117
 2477POPC   C1B29985   4.568  24.477   6.942  0.0732 -0.1479 -0.1359
 2477POPC   C2B29986   4.583  24.591   6.530 -0.0124 -0.1821 -0.2007
 2477POPC   C3B29987   4.379  24.654   6.091  0.1385  0.0213 -0.1230
 2477POPC   C4B29988   4.216  24.400   5.688  0.2374 -0.1382  0.0286
 2478POPC   NC329989   2.608  25.412   6.974 -0.3290 -0.2378 -0.2480
 2478POPC   PO429990   2.412  25.633   7.260  0.0842 -0.0462  0.5666
 2478POPC   GL129991   2.260  25.907   6.946  0.0434  0.4905 -0.1327
 2478POPC   GL229992   2.130  25.687   6.814  0.1641  0.1698  0.3260
 2478POPC   C1A29993   2.016  26.172   6.687  0.1251  0.0330  0.3335
 2478POPC   D2A29994   1.653  26.320   6.411 -0.1141  0.3150 -0.0333
 2478POPC   C3A29995   1.703  26.531   5.991 -0.1778  0.1426 -0.2237
 2478POPC   C4A29996   1.964  26.898   5.850 -0.0084  0.3704  0.0116
 2478POPC   C1B29997   2.086  25.729   6.329 -0.1360 -0.0307 -0.2698
 2478POPC   C2B29998   2.043  25.728   5.911  0.2875 -0.2378 -0.1462
 2478POPC   C3B29999   1.745  25.584   5.632 -0.1865  0.0963 -0.2162
 2478POPC   C4B30000   1.342  25.641   5.459 -0.4801  0.1473  0.1266
 2479POPC   NC330001   3.996  25.854   8.004 -0.0475  0.0593 -0.1872
 2479POPC   PO430002   4.397  25.841   8.100  0.1860  0.1714 -0.1628
 2479POPC   GL130003   4.438  26.035   7.745 -0.0997 -0.2476 -0.1201
 2479POPC   GL230004   4.565  26.267   7.512  0.0170  0.2137  0.2843
 2479POPC   C1A30005   4.314  25.816   7.379 -0.0729 -0.0656  0.0343
 2479POPC   D2A30006   4.324  25.771   6.914  0.2793  0.4027 -0.0741
 2479POPC   C3A30007   4.193  25.360   6.671 -0.3462 -0.4060  0.0813
 2479POPC   C4A30008   4.113  24.984   6.512  0.4441 -0.1484 -0.2101
 2479POPC   C1B30009   4.288  26.216   7.140 -0.0987 -0.3499  0.1520
 2479POPC   C2B30010   4.084  26.302   6.723 -0.2327 -0.0451  0.1262
 2479POPC   C3B30011   4.146  26.167   6.289 -0.1848  0.0536  0.0582
 2479POPC   C4B30012   4.146  26.219   5.784 -0.1559  0.0717  0.1286
 2480POPC   NC330013  14.011  15.854   7.861  0.3803 -0.0109  0.2194
 2480POPC   PO430014  13.790  15.536   7.796  0.1581  0.0060 -0.0455
 2480POPC   GL130015  14.028  15.262   7.473  0.2218 -0.2427 -0.2173
 2480POPC   GL230016  13.930  15.032   7.451  0.2212  0.0161 -0.1953
 2480POPC   C1A30017  13.983  15.341   7.023 -0.0862  0.0832  0.0679
 2480POPC   D2A30018  14.081  15.637   6.653 -0.3240  0.0692  0.0077
 2480POPC   C3A30019  14.307  15.395   6.325 -0.0349 -0.2823  0.3616
 2480POPC   C4A30020  14.616  15.537   5.991  0.0313  0.2018  0.1451
 2480POPC   C1B30021  13.656  14.973   7.101  0.1022  0.0470 -0.1255
 2480POPC   C2B30022  13.401  15.082   6.712  0.0469  0.1101 -0.1778
 2480POPC   C3B30023  13.077  15.374   6.548 -0.1265 -0.1636 -0.0983
 2480POPC   C4B30024  12.857  15.681   6.305 -0.5962  0.2153  0.1000
 2481POPC   NC330025   4.900  23.766   8.125  0.1263  0.1559 -0.1041
 2481POPC   PO430026   5.031  23.453   7.966 -0.0752  0.0665  0.2517
 2481POPC   GL130027   4.876  23.438   7.636  0.0550 -0.1568  0.1644
 2481POPC   GL230028   4.680  23.704   7.684  0.3420 -0.2692  0.0326
 2481POPC   C1A30029   4.927  23.361   7.162 -0.0328  0.2796  0.1357
 2481POPC   D2A30030   5.026  23.238   6.688  0.3430 -0.1077 -0.0310
 2481POPC   C3A30031   4.792  23.330   6.250  0.0287 -0.1431 -0.0847
 2481POPC   C4A30032   4.531  23.238   5.902 -0.3085  0.0331  0.2878
 2481POPC   C1B30033   4.670  23.765   7.241 -0.1833  0.1312  0.2201
 2481POPC   C2B30034   4.879  24.088   6.928 -0.1611  0.3468  0.1149
 2481POPC   C3B30035   4.943  24.099   6.473  0.4794  0.1521 -0.0330
 2481POPC   C4B30036   5.015  23.966   6.054 -0.0705  0.0851 -0.1607
 2482POPC   NC330037   5.199   0.226   7.461 -0.0255  0.1726 -0.2426
 2482POPC   PO430038   5.311  -0.126   7.307 -0.2766  0.2682  0.1091
 2482POPC   GL130039   5.352  -0.199   6.875 -0.2430 -0.0487  0.3514
 2482POPC   GL230040   5.154  -0.011   6.839 -0.4765  0.3101 -0.0419
 2482POPC   C1A30041   5.652  -0.483   6.700  0.0444 -0.2837 -0.4097
 2482POPC   D2A30042   5.611  -0.881   6.488 -0.1072  0.0875  0.2143
 2482POPC   C3A30043   5.484  -0.935   6.076 -0.2296  0.4057 -0.4083
 2482POPC   C4A30044   5.586  -0.902   5.659 -0.1511 -0.1908 -0.0129
 2482POPC   C1B30045   4.863   0.257   6.550 -0.1601  0.1536 -0.0387
 2482POPC   C2B30046   4.520   0.180   6.200  0.0770 -0.3554 -0.0409
 2482POPC   C3B30047   4.209   0.091   5.890  0.1154  0.1000 -0.1089
 2482POPC   C4B30048   4.023  -0.275   5.618  0.1918 -0.1820 -0.3324
 2483POPC   NC330049  14.552   6.926   7.947 -0.1258 -0.2384 -0.2354
 2483POPC   PO430050  14.148   7.005   7.931 -0.0067  0.1082 -0.0582
 2483POPC   GL130051  14.170   6.743   7.623  0.2786  0.3017 -0.0244
 2483POPC   GL230052  14.166   6.864   7.355  0.1394 -0.0880  0.2123
 2483POPC   C1A30053  14.360   6.422   7.339 -0.3866 -0.0463  0.3212
 2483POPC   D2A30054  14.448   5.970   7.154  0.3345  0.0943 -0.1060
 2483POPC   C3A30055  14.408   6.106   6.752  0.0729 -0.1025  0.0477
 2483POPC   C4A30056  14.447   5.938   6.302 -0.0507 -0.0681 -0.1533
 2483POPC   C1B30057  13.907   6.662   7.115  0.0765  0.4104  0.0432
 2483POPC   C2B30058  13.929   6.235   6.829  0.1388 -0.0625  0.0376
 2483POPC   C3B30059  13.971   5.858   6.617 -0.0164  0.1860 -0.0534
 2483POPC   C4B30060  13.771   5.530   6.313 -0.1728 -0.0373  0.4038
 2484POPC   NC330061  12.348   6.386   8.038  0.0917 -0.0368 -0.1067
 2484POPC   PO430062  12.078   6.208   7.806  0.1188 -0.0812  0.1717
 2484POPC   GL130063  12.101   6.407   7.461 -0.0775 -0.0799  0.3073
 2484POPC   GL230064  12.038   6.570   7.163  0.2420 -0.2490 -0.2886
 2484POPC   C1A30065  12.338   6.203   7.068 -0.0068  0.2693  0.4050
 2484POPC   D2A30066  12.727   6.160   6.824 -0.1424 -0.1765 -0.1099
 2484POPC   C3A30067  12.732   5.742   6.639 -0.3593 -0.0071  0.1734
 2484POPC   C4A30068  12.660   5.540   6.238  0.2036  0.0491 -0.1253
 2484POPC   C1B30069  12.012   6.508   6.708 -0.2484 -0.0465 -0.1646
 2484POPC   C2B30070  11.952   6.267   6.287 -0.4106  0.0683 -0.1161
 2484POPC   C3B30071  12.111   5.922   5.927  0.0599  0.2612 -0.0857
 2484POPC   C4B30072  12.226   5.520   5.714 -0.0154  0.1360  0.2038
 2485POPC   NC330073   5.093  22.636   8.078 -0.1256 -0.0481 -0.3034
 2485POPC   PO430074   5.457  22.489   7.944  0.1297  0.0010  0.2199
 2485POPC   GL130075   5.368  22.512   7.594  0.3509 -0.3060  0.1241
 2485POPC   GL230076   5.578  22.574   7.387  0.0775 -0.0786  0.0344
 2485POPC   C1A30077   5.396  22.107   7.378 -0.0951 -0.1278 -0.1761
 2485POPC   D2A30078   5.696  21.781   7.206 -0.1497  0.1699  0.1189
 2485POPC   C3A30079   5.741  21.907   6.763  0.0107 -0.0134 -0.0007
 2485POPC   C4A30080   5.411  21.825   6.339 -0.1627 -0.2472 -0.1483
 2485POPC   C1B30081   5.486  22.330   6.956  0.1855 -0.0853  0.0460
 2485POPC   C2B30082   5.451  22.299   6.537 -0.2393  0.0442  0.3010
 2485POPC   C3B30083   5.677  22.143   6.121 -0.0661 -0.1468  0.1011
 2485POPC   C4B30084   6.117  22.031   5.925  0.0904 -0.0541  0.0048
 2486POPC   NC330085   9.940  12.065   7.239  0.0858 -0.0146  0.3733
 2486POPC   PO430086  10.105  11.877   7.494 -0.0262 -0.0099 -0.1680
 2486POPC   GL130087  10.274  11.600   7.243 -0.4736 -0.2399  0.1232
 2486POPC   GL230088  10.376  11.840   7.104 -0.0538 -0.2039 -0.1705
 2486POPC   C1A30089  10.366  11.511   6.786 -0.0627 -0.4587  0.5327
 2486POPC   D2A30090  10.377  11.659   6.355  0.0066  0.0483  0.2922
 2486POPC   C3A30091  10.506  12.083   6.215 -0.1538 -0.0105 -0.3311
 2486POPC   C4A30092  10.487  12.554   6.151 -0.1324  0.1809 -0.1267
 2486POPC   C1B30093  10.251  12.042   6.718  0.0032 -0.0759 -0.2894
 2486POPC   C2B30094  10.092  12.301   6.366  0.1360 -0.0205 -0.0715
 2486POPC   C3B30095  10.110  12.340   5.907  0.3511  0.0178 -0.2341
 2486POPC   C4B30096  10.061  12.332   5.508 -0.0645  0.1752  0.1084
 2487POPC   NC330097   3.606   0.268   8.370 -0.1793 -0.0614  0.2332
 2487POPC   PO430098   3.775   0.186   8.043 -0.1385 -0.0080  0.1737
 2487POPC   GL130099   3.550  -0.015   7.773 -0.0312  0.0043  0.1413
 2487POPC   GL230100   3.519   0.060   7.433 -0.1786 -0.1030 -0.1150
 2487POPC   C1A30101   3.108  -0.107   7.729 -0.0374 -0.1328  0.1443
 2487POPC   D2A30102   2.706  -0.364   7.767 -0.0391 -0.1647 -0.0814
 2487POPC   C3A30103   2.310  -0.318   7.505 -0.0467  0.0171  0.3578
 2487POPC   C4A30104   1.924  -0.618   7.395 -0.2985 -0.0903 -0.3315
 2487POPC   C1B30105   3.229  -0.141   7.160  0.1414  0.2980  0.1184
 2487POPC   C2B30106   3.141  -0.352   6.792  0.4635 -0.1457 -0.2538
 2487POPC   C3B30107   2.949  -0.615   6.426 -0.1463  0.2254 -0.1642
 2487POPC   C4B30108   3.012  -1.080   6.332 -0.0833  0.2936 -0.0957
 2488POPC   NC330109  14.423  14.998   7.699 -0.1733 -0.4240 -0.6189
 2488POPC   PO430110  14.689  15.253   7.863  0.0504  0.0135 -0.1328
 2488POPC   GL130111  14.698  15.318   7.411 -0.3603  0.1687  0.1908
 2488POPC   GL230112  14.462  15.164   7.219 -0.2793 -0.4384  0.1490
 2488POPC   C1A30113  14.970  15.198   7.047 -0.0301 -0.0803 -0.0054
 2488POPC   D2A30114  15.188  14.997   6.710 -0.2654 -0.0669 -0.2551
 2488POPC   C3A30115  15.588  15.173   6.672 -0.0014 -0.0414  0.2182
 2488POPC   C4A30116  15.961  14.982   6.533 -0.2694 -0.1495  0.0831
 2488POPC   C1B30117  14.441  15.304   6.803  0.0254  0.1302 -0.0184
 2488POPC   C2B30118  14.751  15.358   6.460 -0.2544 -0.0802  0.0990
 2488POPC   C3B30119  14.965  15.159   6.071 -0.1523 -0.2536 -0.0761
 2488POPC   C4B30120  15.245  14.854   5.886  0.3004 -0.0728  0.0327
 2489POPC   NC330121  10.452  12.842   7.834  0.3698 -0.1333 -0.2719
 2489POPC   PO430122  10.199  13.193   7.686 -0.4994  0.3260 -0.2218
 2489POPC   GL130123  10.252  13.227   7.273 -0.1930 -0.2344  0.0568
 2489POPC   GL230124  10.261  13.470   7.113  0.4037 -0.2040 -0.0727
 2489POPC   C1A30125  10.149  13.091   6.846  0.1776  0.1219 -0.0382
 2489POPC   D2A30126   9.803  13.146   6.596  0.2247 -0.1284 -0.2494
 2489POPC   C3A30127   9.917  13.286   6.217 -0.1168  0.3080 -0.0617
 2489POPC   C4A30128  10.202  13.079   5.891  0.1339  0.2273  0.0088
 2489POPC   C1B30129  10.045  13.620   6.751  0.1626  0.2641  0.1397
 2489POPC   C2B30130   9.958  13.784   6.308 -0.0123  0.1456 -0.0834
 2489POPC   C3B30131  10.135  13.704   5.878 -0.0036  0.1942 -0.0716
 2489POPC   C4B30132  10.480  13.518   5.718  0.0212 -0.0886 -0.0419
 2490POPC   NC330133   9.836  13.030   7.208  0.0286  0.2723 -0.2427
 2490POPC   PO430134  10.084  12.733   7.378  0.0944  0.0155 -0.1262
 2490POPC   GL130135  10.378  12.673   7.161  0.1270 -0.1423 -0.2113
 2490POPC   GL230136  10.347  12.379   7.076  0.0487 -0.0457 -0.1019
 2490POPC   C1A30137  10.842  12.573   7.047  0.3012  0.0996 -0.0238
 2490POPC   D2A30138  11.094  12.246   6.822  0.2162 -0.2426 -0.2524
 2490POPC   C3A30139  11.480  12.192   6.710 -0.0315  0.2332  0.2183
 2490POPC   C4A30140  11.421  12.345   6.224  0.2859 -0.0269 -0.1288
 2490POPC   C1B30141  10.269  12.609   6.679 -0.0675  0.1804  0.0557
 2490POPC   C2B30142  10.228  12.947   6.363 -0.2377 -0.1608 -0.2618
 2490POPC   C3B30143  10.375  13.388   6.413 -0.0183 -0.2264  0.0811
 2490POPC   C4B30144  10.698  13.558   6.720 -0.1697 -0.1551 -0.3795
 2491POPC   NC330145  13.434  30.779   7.739 -0.0464 -0.0079  0.0444
 2491POPC   PO430146  13.343  31.120   7.886 -0.1796  0.0809 -0.0885
 2491POPC   GL130147  13.308  31.385   7.570 -0.1489 -0.0569  0.3278
 2491POPC   GL230148  13.434  31.235   7.341 -0.0504 -0.0221  0.0520
 2491POPC   C1A30149  13.046  31.618   7.291  0.2029 -0.1091 -0.0230
 2491POPC   D2A30150  12.610  31.716   7.142  0.0880 -0.1501 -0.0553
 2491POPC   C3A30151  12.581  31.634   6.641  0.1482 -0.2371 -0.3934
 2491POPC   C4A30152  12.848  31.842   6.356 -0.0401 -0.1622  0.1710
 2491POPC   C1B30153  13.076  31.194   7.033  0.2253 -0.1031 -0.1571
 2491POPC   C2B30154  12.693  31.062   6.794 -0.0560  0.0923  0.2721
 2491POPC   C3B30155  12.473  31.102   6.387  0.2061 -0.1789  0.1555
 2491POPC   C4B30156  12.325  31.190   5.939  0.2136 -0.2572  0.1260
 2492POPC   NC330157   8.365   4.643   7.340 -0.2308 -0.0031 -0.1282
 2492POPC   PO430158   7.998   4.636   7.509  0.1681  0.0688 -0.1243
 2492POPC   GL130159   7.891   4.609   7.155  0.0920 -0.2041  0.2707
 2492POPC   GL230160   7.719   4.793   7.110 -0.1606  0.2015 -0.1023
 2492POPC   C1A30161   7.964   4.274   6.909 -0.0077 -0.2088 -0.0287
 2492POPC   D2A30162   7.924   4.151   6.543  0.1381 -0.2072 -0.1850
 2492POPC   C3A30163   7.786   4.455   6.264  0.1002  0.2417 -0.3454
 2492POPC   C4A30164   7.520   4.833   6.053 -0.1392  0.3255  0.0534
 2492POPC   C1B30165   7.818   4.801   6.692 -0.2952  0.1472  0.1484
 2492POPC   C2B30166   8.003   4.941   6.316 -0.1385 -0.1413  0.0553
 2492POPC   C3B30167   7.960   4.889   5.836  0.0847 -0.2615  0.3328
 2492POPC   C4B30168   7.930   5.194   5.466  0.0646  0.1617 -0.3283
 2493POPC   NC330169  11.338  14.165   7.755 -0.0107 -0.1254  0.0399
 2493POPC   PO430170  11.070  13.886   7.635 -0.3092 -0.0543  0.1450
 2493POPC   GL130171  11.063  14.200   7.268  0.0424 -0.1294 -0.3406
 2493POPC   GL230172  11.301  14.185   7.183  0.1513 -0.2759 -0.0535
 2493POPC   C1A30173  10.836  14.306   6.891  0.1135 -0.0607 -0.2172
 2493POPC   D2A30174  10.905  14.350   6.422  0.1486  0.1754 -0.2721
 2493POPC   C3A30175  10.892  14.778   6.261 -0.1068 -0.2070  0.1851
 2493POPC   C4A30176  10.667  14.965   5.936  0.5498 -0.2459 -0.1676
 2493POPC   C1B30177  11.467  14.285   6.775  0.3657 -0.0267 -0.2489
 2493POPC   C2B30178  11.363  14.218   6.307 -0.3345 -0.1211 -0.2926
 2493POPC   C3B30179  11.429  14.125   5.838  0.4637  0.0546  0.0875
 2493POPC   C4B30180  11.330  13.927   5.459 -0.0327 -0.1071 -0.1609
 2494POPC   NC330181   6.189  17.680   7.392  0.2330  0.0356  0.1051
 2494POPC   PO430182   5.817  17.808   7.401  0.1522 -0.2345 -0.1079
 2494POPC   GL130183   5.901  17.857   6.983  0.2190 -0.3812  0.0497
 2494POPC   GL230184   5.619  17.771   6.864  0.1198  0.1166 -0.0911
 2494POPC   C1A30185   5.935  18.226   6.706 -0.1389  0.1417 -0.0699
 2494POPC   D2A30186   5.841  18.322   6.283 -0.0706 -0.2028  0.1715
 2494POPC   C3A30187   5.798  18.710   6.002 -0.2339  0.0173 -0.0676
 2494POPC   C4A30188   5.754  18.707   5.580  0.0809 -0.2271  0.1673
 2494POPC   C1B30189   5.955  17.625   6.530 -0.0035  0.0437 -0.0913
 2494POPC   C2B30190   5.907  17.331   6.210  0.0614 -0.0103 -0.0536
 2494POPC   C3B30191   5.631  17.155   5.910  0.1285  0.2254  0.0840
 2494POPC   C4B30192   5.303  17.125   5.550  0.0513  0.2147 -0.0069
 2495POPC   NC330193   3.966  18.879   7.657 -0.1399 -0.1739  0.1759
 2495POPC   PO430194   3.658  18.759   7.497 -0.1352  0.1084  0.0244
 2495POPC   GL130195   3.568  18.971   7.220  0.1836 -0.0336  0.3339
 2495POPC   GL230196   3.853  18.991   7.102 -0.3196  0.4828 -0.1674
 2495POPC   C1A30197   3.335  18.869   6.788 -0.2903  0.2514 -0.2956
 2495POPC   D2A30198   3.013  18.976   6.477  0.0718 -0.1908 -0.1185
 2495POPC   C3A30199   2.694  19.318   6.424  0.2568 -0.0504 -0.1646
 2495POPC   C4A30200   2.337  19.421   6.231  0.2041  0.1644  0.1528
 2495POPC   C1B30201   3.729  19.208   6.699  0.0678  0.1989 -0.0944
 2495POPC   C2B30202   3.477  19.055   6.348  0.2633  0.2920  0.1286
 2495POPC   C3B30203   3.170  18.828   6.028 -0.1531 -0.1390  0.0830
 2495POPC   C4B30204   3.209  18.500   5.692  0.0459  0.1807  0.1913
 2496POPC   NC330205   6.887   0.054   7.777 -0.1227 -0.3258 -0.2595
 2496POPC   PO430206   6.798   0.366   7.476 -0.1896  0.3394  0.0976
 2496POPC   GL130207   6.789   0.479   7.079 -0.0658  0.0170  0.2153
 2496POPC   GL230208   7.055   0.333   6.960 -0.2974  0.2781 -0.0766
 2496POPC   C1A30209   6.636   0.482   6.697 -0.0429 -0.0146  0.2643
 2496POPC   D2A30210   6.466   0.479   6.280  0.3847 -0.2006 -0.2296
 2496POPC   C3A30211   6.329   0.900   6.117  0.1313  0.1035  0.1063
 2496POPC   C4A30212   6.447   1.306   5.977 -0.2051 -0.2009  0.2534
 2496POPC   C1B30213   7.050   0.099   6.560  0.1490 -0.0394 -0.0353
 2496POPC   C2B30214   6.860  -0.143   6.243 -0.0133 -0.2422  0.1224
 2496POPC   C3B30215   6.831  -0.388   5.834 -0.1116 -0.2972 -0.0018
 2496POPC   C4B30216   6.508  -0.593   5.604  0.4763  0.0471  0.0263
 2497POPC   NC330217   8.890  20.452   7.442  0.3627 -0.0904  0.2193
 2497POPC   PO430218   9.163  20.271   7.604  0.1391 -0.2592 -0.1259
 2497POPC   GL130219   9.301  20.451   7.195  0.0970 -0.0278 -0.2264
 2497POPC   GL230220   9.319  20.706   7.137  0.0721  0.0824  0.1260
 2497POPC   C1A30221   9.372  20.257   6.803  0.0615 -0.1378 -0.0037
 2497POPC   D2A30222   9.394  20.055   6.350 -0.1381 -0.1699 -0.0639
 2497POPC   C3A30223   9.236  19.651   6.251 -0.2725 -0.1287 -0.0046
 2497POPC   C4A30224   9.004  19.445   5.919 -0.1909  0.1840 -0.1304
 2497POPC   C1B30225   8.954  20.574   6.966  0.0586 -0.0698  0.0166
 2497POPC   C2B30226   8.943  20.248   6.602  0.2279  0.2486  0.0513
 2497POPC   C3B30227   8.784  19.854   6.337  0.0880 -0.0219 -0.1131
 2497POPC   C4B30228   8.571  19.430   6.326 -0.0219  0.1066  0.1723
 2498POPC   NC330229   6.727  13.694   8.263 -0.0861  0.1482 -0.2673
 2498POPC   PO430230   6.413  13.787   7.988 -0.1074  0.0071 -0.1790
 2498POPC   GL130231   6.481  13.829   7.616 -0.0370  0.0432  0.0372
 2498POPC   GL230232   6.248  13.581   7.505 -0.3084 -0.2433  0.2731
 2498POPC   C1A30233   6.517  13.785   7.141 -0.0003 -0.0517 -0.0011
 2498POPC   D2A30234   6.247  13.815   6.746  0.1935 -0.1729  0.0069
 2498POPC   C3A30235   6.245  14.090   6.366 -0.0158 -0.0848  0.0870
 2498POPC   C4A30236   5.980  14.305   6.061  0.3283  0.0877 -0.2212
 2498POPC   C1B30237   6.189  13.436   7.056 -0.0624  0.0181 -0.2279
 2498POPC   C2B30238   6.436  13.212   6.646  0.0290  0.0940 -0.2163
 2498POPC   C3B30239   6.556  13.207   6.218 -0.1121 -0.0309 -0.2113
 2498POPC   C4B30240   7.054  13.199   6.181 -0.0490  0.0043 -0.1879
 2499POPC   NC330241   4.016  14.699   7.805  0.1110 -0.1458 -0.0589
 2499POPC   PO430242   3.703  14.576   7.581 -0.2003  0.0209 -0.2840
 2499POPC   GL130243   3.577  14.620   7.209 -0.0067  0.0508  0.0917
 2499POPC   GL230244   3.244  14.528   7.239  0.0475 -0.1032 -0.2868
 2499POPC   C1A30245   3.467  14.352   6.842  0.0916  0.1321  0.0072
 2499POPC   D2A30246   3.241  13.990   6.626 -0.3300  0.3733 -0.0230
 2499POPC   C3A30247   3.362  13.843   6.166  0.0262 -0.2126  0.0032
 2499POPC   C4A30248   3.465  14.118   5.817  0.0005 -0.1150  0.1531
 2499POPC   C1B30249   3.299  14.865   6.869  0.0561 -0.0948 -0.1528
 2499POPC   C2B30250   3.377  15.221   6.650 -0.2006  0.0797  0.3186
 2499POPC   C3B30251   3.565  15.395   6.329 -0.3711  0.1298 -0.1168
 2499POPC   C4B30252   3.759  15.407   5.934  0.1758  0.1019  0.0507
 2500POPC   NC330253   3.083   5.227   7.394  0.2669 -0.1795 -0.1018
 2500POPC   PO430254   3.014   4.883   7.636  0.1415 -0.1096  0.2533
 2500POPC   GL130255   2.980   4.795   7.232 -0.0014  0.0877  0.3693
 2500POPC   GL230256   3.097   4.506   7.341  0.1433 -0.1257 -0.2754
 2500POPC   C1A30257   3.005   5.137   6.885 -0.2290 -0.0990  0.1443
 2500POPC   D2A30258   2.914   5.306   6.477  0.1882 -0.0228 -0.2347
 2500POPC   C3A30259   2.744   5.023   6.131 -0.1451 -0.1015 -0.2754
 2500POPC   C4A30260   2.909   4.971   5.743 -0.1897 -0.0682 -0.2531
 2500POPC   C1B30261   2.748   4.487   7.047  0.2934 -0.0921  0.1464
 2500POPC   C2B30262   2.404   4.407   6.777  0.2632 -0.0474  0.1845
 2500POPC   C3B30263   2.219   4.187   6.390 -0.1036 -0.1062  0.0023
 2500POPC   C4B30264   2.042   4.300   5.984 -0.0968  0.2020  0.1783
 2501POPC   NC330265   8.378  30.625   8.140 -0.3436  0.1734  0.0173
 2501POPC   PO430266   8.522  30.381   7.887 -0.0417  0.4064 -0.2463
 2501POPC   GL130267   8.515  30.174   7.617  0.2773  0.2644  0.2546
 2501POPC   GL230268   8.734  29.979   7.651  0.0144  0.0701  0.3182
 2501POPC   C1A30269   8.436  30.019   7.173  0.1268  0.0130  0.2161
 2501POPC   D2A30270   8.346  30.096   6.702 -0.0120 -0.0779 -0.0059
 2501POPC   C3A30271   8.525  30.002   6.363  0.0892  0.2517 -0.2308
 2501POPC   C4A30272   8.705  30.011   5.947  0.1921 -0.0466 -0.2576
 2501POPC   C1B30273   9.011  30.128   7.256 -0.0978  0.3447  0.1566
 2501POPC   C2B30274   9.223  29.939   6.854  0.1970  0.0732 -0.3945
 2501POPC   C3B30275   9.392  29.605   6.625 -0.0214 -0.2151  0.1495
 2501POPC   C4B30276   9.599  29.300   6.353 -0.1819 -0.0481  0.0628
 2502POPC   NC330277   8.514  20.767   8.000  0.2456  0.2317 -0.0605
 2502POPC   PO430278   8.477  20.727   7.579 -0.2187  0.1825 -0.0886
 2502POPC   GL130279   8.515  20.586   7.135 -0.1203 -0.2905 -0.1195
 2502POPC   GL230280   8.319  20.814   6.984  0.1515 -0.1745 -0.0067
 2502POPC   C1A30281   8.495  20.214   6.818  0.3218 -0.0889  0.1777
 2502POPC   D2A30282   8.494  20.281   6.372  0.0391 -0.0394 -0.3640
 2502POPC   C3A30283   8.839  20.460   6.153 -0.1405  0.2333 -0.0538
 2502POPC   C4A30284   9.077  20.466   5.736 -0.0118  0.2433 -0.2578
 2502POPC   C1B30285   8.610  20.704   6.603 -0.2028  0.0312  0.2005
 2502POPC   C2B30286   9.107  20.680   6.529  0.1761  0.1370  0.2292
 2502POPC   C3B30287   9.473  20.565   6.243 -0.0019 -0.0960  0.3769
 2502POPC   C4B30288   9.562  20.216   5.909  0.0914 -0.3076 -0.0110
 2503POPC   NC330289   5.961  19.729   7.842  0.0464  0.1833  0.0131
 2503POPC   PO430290   6.123  19.830   8.166  0.2805 -0.1267 -0.0335
 2503POPC   GL130291   6.146  20.153   7.895 -0.2164  0.1869  0.0292
 2503POPC   GL230292   5.862  20.209   7.851 -0.0295  0.1515 -0.1365
 2503POPC   C1A30293   6.519  20.167   7.611 -0.0098  0.0278 -0.0605
 2503POPC   D2A30294   6.629  20.263   7.214 -0.1740  0.0994  0.1972
 2503POPC   C3A30295   6.545  19.939   6.832 -0.2337 -0.0171  0.1132
 2503POPC   C4A30296   6.570  19.766   6.355  0.4979 -0.1043 -0.1003
 2503POPC   C1B30297   6.043  20.548   7.641  0.2449  0.0710  0.0153
 2503POPC   C2B30298   5.976  20.930   7.372 -0.2216 -0.1210 -0.0577
 2503POPC   C3B30299   5.985  21.295   7.205 -0.0759 -0.1565  0.1452
 2503POPC   C4B30300   6.116  21.654   6.949 -0.0628  0.1766  0.0525
 2504POPC   NC330301  14.623  26.265   7.671 -0.2321 -0.1068 -0.1536
 2504POPC   PO430302  14.192  26.190   7.732  0.1222  0.1392  0.0216
 2504POPC   GL130303  14.261  26.332   7.357  0.3935 -0.3260  0.2195
 2504POPC   GL230304  13.985  26.462   7.329  0.1861 -0.1093  0.0977
 2504POPC   C1A30305  14.511  26.100   7.105  0.0647 -0.3305 -0.1147
 2504POPC   D2A30306  14.737  25.726   6.947 -0.1805 -0.0072  0.0960
 2504POPC   C3A30307  15.006  25.653   6.622  0.3520 -0.0889 -0.1004
 2504POPC   C4A30308  15.059  25.394   6.217 -0.0079 -0.2418 -0.0280
 2504POPC   C1B30309  14.013  26.359   6.862 -0.2196  0.2250  0.2994
 2504POPC   C2B30310  14.021  26.236   6.415  0.1459  0.1276 -0.0437
 2504POPC   C3B30311  14.080  26.053   5.945 -0.2347 -0.1079  0.2891
 2504POPC   C4B30312  14.371  25.856   5.571  0.1333  0.2237  0.1390
 2505POPC   NC330313   5.096  12.120   7.698  0.1157 -0.3357  0.0912
 2505POPC   PO430314   4.745  12.105   7.744 -0.3084 -0.1622 -0.0910
 2505POPC   GL130315   4.849  11.996   7.351  0.0534 -0.0020  0.0405
 2505POPC   GL230316   4.865  11.690   7.489  0.2191 -0.1752  0.3748
 2505POPC   C1A30317   5.029  12.311   7.031 -0.2966 -0.0200 -0.1701
 2505POPC   D2A30318   5.019  12.515   6.615  0.1060 -0.2728  0.0227
 2505POPC   C3A30319   4.950  12.221   6.240 -0.0318 -0.0147  0.1052
 2505POPC   C4A30320   4.942  11.822   5.987 -0.4636 -0.1016 -0.0895
 2505POPC   C1B30321   4.918  11.419   7.163  0.0890  0.1266 -0.0807
 2505POPC   C2B30322   4.924  11.397   6.672 -0.1252 -0.2149  0.1404
 2505POPC   C3B30323   4.704  11.476   6.260  0.0146  0.3717 -0.0413
 2505POPC   C4B30324   4.304  11.336   6.088 -0.1503  0.3451 -0.1717
 2506POPC   NC330325  11.797  28.520   7.958 -0.0901 -0.0321  0.0937
 2506POPC   PO430326  12.223  28.568   7.932  0.2002  0.2325  0.1356
 2506POPC   GL130327  12.179  28.494   7.457 -0.1745 -0.2874  0.0185
 2506POPC   GL230328  12.424  28.482   7.349  0.1118  0.2496  0.0857
 2506POPC   C1A30329  12.092  28.768   7.124 -0.0972 -0.2637 -0.0473
 2506POPC   D2A30330  11.952  29.228   7.086 -0.0597  0.3281  0.2844
 2506POPC   C3A30331  11.726  29.319   6.691 -0.0032 -0.2241  0.0495
 2506POPC   C4A30332  11.604  29.043   6.302  0.2548  0.0711 -0.2234
 2506POPC   C1B30333  12.207  28.390   6.890 -0.1974  0.4042 -0.1074
 2506POPC   C2B30334  12.171  28.240   6.416  0.1946  0.2181 -0.0708
 2506POPC   C3B30335  12.274  28.407   5.993  0.0417  0.0958 -0.0833
 2506POPC   C4B30336  12.450  28.746   5.794  0.0785 -0.1229 -0.4308
 2507POPC   NC330337  10.372   8.604   7.722 -0.0956 -0.0712 -0.1760
 2507POPC   PO430338  10.701   8.874   7.663  0.3592 -0.1000 -0.0707
 2507POPC   GL130339  10.810   9.242   7.473 -0.1791  0.1765  0.2583
 2507POPC   GL230340  11.099   9.174   7.555  0.0020 -0.2457  0.0115
 2507POPC   C1A30341  10.924   9.469   7.068  0.3325 -0.1666  0.0241
 2507POPC   D2A30342  11.162   9.498   6.633  0.1362 -0.0996 -0.1016
 2507POPC   C3A30343  11.555   9.325   6.530 -0.0502  0.3923  0.4348
 2507POPC   C4A30344  11.977   9.196   6.364  0.1792  0.0299 -0.3403
 2507POPC   C1B30345  11.354   8.854   7.321 -0.0691 -0.2751  0.1522
 2507POPC   C2B30346  11.349   8.540   6.963  0.1204  0.0295  0.0278
 2507POPC   C3B30347  11.357   8.358   6.525  0.0745 -0.1726  0.1731
 2507POPC   C4B30348  11.404   7.878   6.475  0.0381 -0.1024  0.1649
 2508POPC   NC330349   2.291  12.324   7.868 -0.1652 -0.1716 -0.1474
 2508POPC   PO430350   2.424  11.991   7.700  0.2485 -0.1720 -0.0906
 2508POPC   GL130351   2.446  11.874   7.277  0.1325 -0.3264  0.1988
 2508POPC   GL230352   2.244  12.064   7.200 -0.0747 -0.0908  0.2442
 2508POPC   C1A30353   2.760  11.545   7.111 -0.0613 -0.5087 -0.1150
 2508POPC   D2A30354   2.995  11.485   6.687  0.4054  0.0385  0.0582
 2508POPC   C3A30355   2.869  11.420   6.311 -0.1172  0.1353  0.0658
 2508POPC   C4A30356   2.562  11.168   6.075 -0.0042 -0.3507  0.0962
 2508POPC   C1B30357   2.407  11.750   6.833  0.1347  0.2522  0.1083
 2508POPC   C2B30358   2.449  11.380   6.554  0.2914  0.0070  0.0082
 2508POPC   C3B30359   2.222  10.909   6.461 -0.5131 -0.0271  0.1683
 2508POPC   C4B30360   2.184  10.583   6.153 -0.2493  0.3421 -0.0356
 2509POPC   NC330361  10.421   3.182   7.567 -0.0089 -0.3480 -0.1465
 2509POPC   PO430362  10.358   3.528   7.689 -0.1079 -0.0449  0.2428
 2509POPC   GL130363  10.666   3.637   7.492  0.2274 -0.0265 -0.1955
 2509POPC   GL230364  10.786   3.479   7.323 -0.1237  0.1076  0.0489
 2509POPC   C1A30365  10.633   3.988   7.219  0.0257 -0.3382 -0.1393
 2509POPC   D2A30366  10.600   4.321   6.913 -0.0248  0.0113 -0.2269
 2509POPC   C3A30367  10.710   4.031   6.621  0.1876  0.1219 -0.2945
 2509POPC   C4A30368  10.796   3.743   6.292 -0.0712 -0.0771  0.1128
 2509POPC   C1B30369  10.467   3.576   6.946 -0.2145  0.0778 -0.1271
 2509POPC   C2B30370  10.378   3.670   6.517  0.0607  0.1427  0.3242
 2509POPC   C3B30371  10.285   3.758   6.128 -0.0297 -0.1400  0.2448
 2509POPC   C4B30372  10.295   3.997   5.725  0.0845  0.0052 -0.0653
 2510POPC   NC330373   1.799  15.356   7.568  0.0233  0.1497 -0.1313
 2510POPC   PO430374   2.153  15.502   7.667 -0.2760  0.1662  0.2255
 2510POPC   GL130375   2.310  15.570   7.289 -0.0364 -0.2091  0.2668
 2510POPC   GL230376   2.090  15.450   7.171  0.0001  0.0808 -0.0591
 2510POPC   C1A30377   2.271  15.995   7.067  0.3692 -0.2130  0.1467
 2510POPC   D2A30378   1.872  16.154   6.857 -0.2543  0.3431 -0.0071
 2510POPC   C3A30379   1.810  16.478   6.601  0.2399  0.1299 -0.3084
 2510POPC   C4A30380   1.831  16.753   6.273  0.0153  0.1998  0.2401
 2510POPC   C1B30381   2.023  15.146   6.784  0.2339 -0.0411 -0.1139
 2510POPC   C2B30382   1.727  14.944   6.438 -0.1425 -0.0736 -0.1587
 2510POPC   C3B30383   1.297  14.777   6.305 -0.2992  0.0505 -0.1731
 2510POPC   C4B30384   0.928  14.816   5.994 -0.3115 -0.1572 -0.1576
 2511POPC   NC330385   7.234  27.453   7.825 -0.1063 -0.1755  0.0659
 2511POPC   PO430386   6.858  27.408   7.939  0.0519  0.1143  0.0099
 2511POPC   GL130387   6.804  27.492   7.588 -0.3986  0.0561 -0.1732
 2511POPC   GL230388   6.915  27.217   7.508 -0.0326  0.0533  0.0293
 2511POPC   C1A30389   6.538  27.469   7.221 -0.0181  0.2471  0.0854
 2511POPC   D2A30390   6.597  27.480   6.789 -0.1292  0.2562 -0.2397
 2511POPC   C3A30391   6.493  27.317   6.418  0.2004  0.2901 -0.1424
 2511POPC   C4A30392   6.708  26.928   6.296  0.0238 -0.2082  0.1012
 2511POPC   C1B30393   7.013  27.387   7.080 -0.1221 -0.2160 -0.0584
 2511POPC   C2B30394   7.053  27.229   6.678 -0.0832  0.0769  0.1558
 2511POPC   C3B30395   7.047  27.376   6.218  0.1634  0.3598  0.1847
 2511POPC   C4B30396   6.691  27.418   5.839 -0.0224  0.2196 -0.1223
 2512POPC   NC330397  11.147  21.837   7.338 -0.1337  0.2809 -0.0658
 2512POPC   PO430398  11.335  21.531   7.443  0.1054 -0.0839 -0.1211
 2512POPC   GL130399  11.441  21.578   7.064  0.1506 -0.1331  0.0407
 2512POPC   GL230400  11.693  21.577   6.886  0.2658 -0.3207  0.0776
 2512POPC   C1A30401  11.322  21.291   6.691 -0.1580  0.2389 -0.0860
 2512POPC   D2A30402  11.205  21.237   6.271  0.0566 -0.0991 -0.4391
 2512POPC   C3A30403  11.026  20.880   5.998 -0.0235 -0.0354  0.0518
 2512POPC   C4A30404  10.819  20.491   5.839 -0.2963  0.3470  0.2832
 2512POPC   C1B30405  11.693  21.559   6.428  0.0934  0.0414  0.0827
 2512POPC   C2B30406  11.663  21.295   6.027 -0.1596 -0.0881 -0.1952
 2512POPC   C3B30407  11.724  21.366   5.610 -0.1851  0.0899  0.0253
 2512POPC   C4B30408  11.841  21.776   5.376  0.2397  0.2058  0.0201
 2513POPC   NC330409  10.419  10.117   7.968 -0.1102 -0.0734  0.1056
 2513POPC   PO430410  10.514  10.205   7.601  0.1664 -0.3811  0.0861
 2513POPC   GL130411  10.724   9.973   7.377 -0.1752  0.1930  0.3030
 2513POPC   GL230412  10.633   9.959   7.149  0.0111  0.0180  0.1854
 2513POPC   C1A30413  11.153  10.042   7.203  0.0917  0.1019 -0.1169
 2513POPC   D2A30414  11.577  10.204   7.187  0.0052  0.1708  0.0794
 2513POPC   C3A30415  11.605  10.263   6.700  0.1901  0.3753  0.0586
 2513POPC   C4A30416  11.655  10.354   6.221  0.0310  0.2510 -0.2787
 2513POPC   C1B30417  10.919   9.917   6.757 -0.1308 -0.0458 -0.4242
 2513POPC   C2B30418  11.249   9.923   6.458 -0.2962 -0.2719 -0.0217
 2513POPC   C3B30419  11.370   9.591   6.179  0.1048 -0.1860  0.2935
 2513POPC   C4B30420  11.624   9.293   6.018 -0.1097 -0.3117  0.1225
 2514POPC   NC330421   4.072  20.600   8.307  0.0283 -0.4631  0.2713
 2514POPC   PO430422   4.311  20.773   8.021 -0.0080 -0.3580  0.1018
 2514POPC   GL130423   4.284  20.751   7.591  0.1163  0.1337  0.3047
 2514POPC   GL230424   4.577  20.754   7.563 -0.1701  0.0337  0.0259
 2514POPC   C1A30425   4.282  20.439   7.222  0.0635  0.1514 -0.2726
 2514POPC   D2A30426   4.183  20.031   7.042  0.2232 -0.1266 -0.1410
 2514POPC   C3A30427   4.436  19.657   7.161 -0.1880  0.1833  0.2163
 2514POPC   C4A30428   4.870  19.499   7.003  0.0466 -0.1641  0.2077
 2514POPC   C1B30429   4.620  20.768   7.097 -0.0756 -0.2181 -0.3009
 2514POPC   C2B30430   4.752  20.892   6.675 -0.0642 -0.0372  0.0381
 2514POPC   C3B30431   4.954  20.599   6.407 -0.1557 -0.1103  0.2398
 2514POPC   C4B30432   5.362  20.431   6.180  0.1053  0.2836  0.1326
 2515POPC   NC330433   9.847   9.893   7.569 -0.0508 -0.4186 -0.1189
 2515POPC   PO430434  10.016  10.242   7.697 -0.0847 -0.1508 -0.4221
 2515POPC   GL130435  10.145  10.342   7.297  0.0156  0.0772 -0.2399
 2515POPC   GL230436  10.196  10.099   7.137  0.0382 -0.2874 -0.1049
 2515POPC   C1A30437   9.996  10.724   7.072  0.1086 -0.0687 -0.1576
 2515POPC   D2A30438   9.762  10.782   6.704 -0.2729  0.2374  0.0888
 2515POPC   C3A30439   9.881  10.801   6.272 -0.0371  0.2072  0.1738
 2515POPC   C4A30440  10.128  11.003   5.969 -0.2087 -0.1752 -0.0587
 2515POPC   C1B30441  10.392  10.002   6.746  0.0546 -0.2189 -0.1753
 2515POPC   C2B30442  10.484   9.949   6.320  0.1129  0.0226  0.2671
 2515POPC   C3B30443  10.878   9.917   6.073 -0.0545 -0.0633 -0.0675
 2515POPC   C4B30444  11.298  10.094   6.005 -0.1359  0.4251 -0.2979
 2516POPC   NC330445  12.704  29.667   7.408  0.2705  0.0415 -0.0694
 2516POPC   PO430446  13.086  29.621   7.361 -0.2571 -0.1523  0.2177
 2516POPC   GL130447  13.249  29.660   6.992  0.1178 -0.1631  0.3386
 2516POPC   GL230448  13.264  29.916   6.950  0.2015  0.0205 -0.1969
 2516POPC   C1A30449  13.151  29.536   6.571  0.0873 -0.1003  0.1689
 2516POPC   D2A30450  13.001  29.611   6.157 -0.2478  0.0209 -0.0074
 2516POPC   C3A30451  13.276  29.516   5.803  0.1627  0.1314 -0.4160
 2516POPC   C4A30452  13.155  29.459   5.343 -0.1250 -0.2648 -0.1205
 2516POPC   C1B30453  13.609  30.011   6.613  0.3388  0.2873 -0.1569
 2516POPC   C2B30454  13.781  30.168   6.233 -0.1783 -0.0305 -0.0716
 2516POPC   C3B30455  13.776  30.583   5.916 -0.1048 -0.1691 -0.0856
 2516POPC   C4B30456  13.852  31.086   5.888  0.0651 -0.3157  0.1559
 2517POPC   NC330457  11.618   4.613   7.495 -0.1615 -0.0608  0.1993
 2517POPC   PO430458  11.835   4.354   7.579  0.1923 -0.0820 -0.2367
 2517POPC   GL130459  11.924   4.409   7.185  0.1860 -0.0252  0.2755
 2517POPC   GL230460  12.223   4.290   7.214  0.1397 -0.0040  0.0951
 2517POPC   C1A30461  12.035   4.194   6.781 -0.1307 -0.0437 -0.1266
 2517POPC   D2A30462  12.217   4.214   6.362  0.0724 -0.1915 -0.0622
 2517POPC   C3A30463  12.441   4.320   5.937 -0.2425  0.1464 -0.0667
 2517POPC   C4A30464  12.718   4.676   5.859 -0.0397  0.0318  0.0168
 2517POPC   C1B30465  12.560   4.461   6.929  0.3122  0.2806 -0.2098
 2517POPC   C2B30466  12.690   4.729   6.627  0.0208  0.1178  0.1006
 2517POPC   C3B30467  12.888   4.518   6.318  0.3358 -0.1739  0.1178
 2517POPC   C4B30468  13.131   4.096   6.217  0.3133 -0.3652  0.1777
 2518POPC   NC330469  11.358  11.695   7.659  0.1629  0.0362  0.0982
 2518POPC   PO430470  11.592  11.393   7.799  0.2562  0.2276  0.4069
 2518POPC   GL130471  11.762  11.287   7.490 -0.1949 -0.1259  0.2610
 2518POPC   GL230472  11.558  11.416   7.266  0.0752  0.0449 -0.1283
 2518POPC   C1A30473  12.093  11.400   7.183 -0.1411  0.1414 -0.2128
 2518POPC   D2A30474  12.193  11.496   6.789 -0.2785  0.0537 -0.2325
 2518POPC   C3A30475  12.468  11.113   6.803  0.1758 -0.0679 -0.2711
 2518POPC   C4A30476  12.751  10.873   6.500  0.4925 -0.1610  0.0633
 2518POPC   C1B30477  11.395  11.260   6.814 -0.1587 -0.1873  0.1982
 2518POPC   C2B30478  11.395  11.345   6.342  0.0686 -0.0613  0.0984
 2518POPC   C3B30479  11.358  11.480   5.875 -0.3779 -0.1930 -0.1744
 2518POPC   C4B30480  11.244  11.489   5.430  0.1656 -0.2777 -0.3340
 2519POPC   NC330481   3.387   1.272   7.915 -0.0668 -0.0458 -0.0606
 2519POPC   PO430482   3.428   0.929   7.835 -0.1223 -0.2429  0.0229
 2519POPC   GL130483   3.521   0.975   7.434  0.1218 -0.0666 -0.5751
 2519POPC   GL230484   3.521   1.264   7.350  0.1260 -0.2100  0.1651
 2519POPC   C1A30485   3.279   0.971   7.039  0.0039  0.0842  0.0916
 2519POPC   D2A30486   2.946   0.893   6.769 -0.0397  0.2162  0.0010
 2519POPC   C3A30487   3.053   0.798   6.284 -0.1001  0.1338  0.0792
 2519POPC   C4A30488   3.508   0.847   6.075  0.2706  0.0421 -0.1775
 2519POPC   C1B30489   3.688   1.166   6.922 -0.1465 -0.3836 -0.2836
 2519POPC   C2B30490   3.786   0.930   6.501  0.0034  0.1382 -0.2198
 2519POPC   C3B30491   4.044   0.781   6.123 -0.0117  0.1219 -0.0153
 2519POPC   C4B30492   4.295   0.556   5.827 -0.0165 -0.1416 -0.1878
 2520POPC   NC330493  14.625   7.761   7.540  0.1133  0.0963  0.2328
 2520POPC   PO430494  14.254   7.785   7.660  0.1966 -0.0890  0.3182
 2520POPC   GL130495  14.240   7.684   7.309  0.0764  0.0727  0.0362
 2520POPC   GL230496  13.993   7.879   7.240  0.2085 -0.0800  0.4607
 2520POPC   C1A30497  14.119   7.493   6.886 -0.0616 -0.1046  0.3240
 2520POPC   D2A30498  13.951   7.617   6.494  0.1517 -0.1842 -0.2024
 2520POPC   C3A30499  13.949   7.546   6.064 -0.0889 -0.1017 -0.0782
 2520POPC   C4A30500  13.850   7.453   5.578  0.1359 -0.1854  0.3065
 2520POPC   C1B30501  13.809   8.102   6.861  0.1952  0.0595 -0.4424
 2520POPC   C2B30502  13.802   8.464   6.553 -0.2203  0.0473  0.1283
 2520POPC   C3B30503  13.938   8.676   6.159  0.3844 -0.0573 -0.1427
 2520POPC   C4B30504  13.920   8.903   5.756  0.4005 -0.4403 -0.3324
 2521POPC   NC330505   9.826   7.732   7.790  0.0967  0.0861  0.0489
 2521POPC   PO430506   9.607   7.392   7.837 -0.4763  0.2027  0.0209
 2521POPC   GL130507   9.672   7.548   7.394 -0.1804 -0.0018  0.2201
 2521POPC   GL230508   9.403   7.722   7.480  0.2881 -0.0360 -0.4214
 2521POPC   C1A30509   9.553   7.467   6.997 -0.1915 -0.0016  0.1391
 2521POPC   D2A30510   9.804   7.361   6.592 -0.2310  0.1693  0.2067
 2521POPC   C3A30511   9.663   7.525   6.198  0.0952 -0.1791 -0.0905
 2521POPC   C4A30512   9.917   7.582   5.827  0.0270  0.0100  0.0737
 2521POPC   C1B30513   9.364   7.975   7.062  0.0396 -0.0541  0.3166
 2521POPC   C2B30514   9.172   8.142   6.650  0.4734  0.2481  0.1491
 2521POPC   C3B30515   9.279   8.404   6.331  0.3672 -0.0592  0.1535
 2521POPC   C4B30516   9.102   8.323   5.910 -0.1913  0.5148 -0.0210
 2522POPC   NC330517  14.047  23.962   7.712 -0.0329  0.0167 -0.2417
 2522POPC   PO430518  14.293  23.762   8.014  0.0507 -0.0105  0.0622
 2522POPC   GL130519  14.498  23.979   7.762  0.2562 -0.2129  0.0405
 2522POPC   GL230520  14.480  24.261   7.698 -0.0864  0.4531 -0.0238
 2522POPC   C1A30521  14.329  23.808   7.343 -0.2054 -0.0265 -0.0608
 2522POPC   D2A30522  14.161  23.602   6.971  0.0438  0.1555  0.1107
 2522POPC   C3A30523  14.470  23.568   6.601 -0.4820  0.0000  0.2269
 2522POPC   C4A30524  14.435  23.640   6.175  0.0702 -0.1085 -0.0278
 2522POPC   C1B30525  14.558  24.248   7.219 -0.1956 -0.1282 -0.0800
 2522POPC   C2B30526  14.376  24.522   6.878  0.1897  0.0125  0.0697
 2522POPC   C3B30527  14.237  24.474   6.444 -0.2952  0.1031  0.0106
 2522POPC   C4B30528  14.251  24.620   5.990  0.0898  0.0385  0.2236
 2523POPC   NC330529  14.059  30.022   7.360 -0.0984  0.0648  0.3388
 2523POPC   PO430530  14.077  29.606   7.364  0.0257  0.2149  0.0822
 2523POPC   GL130531  14.141  29.550   6.991  0.1673 -0.2441 -0.1963
 2523POPC   GL230532  14.394  29.748   6.958  0.0647  0.0995  0.0029
 2523POPC   C1A30533  14.029  29.762   6.591 -0.0001 -0.0939  0.3135
 2523POPC   D2A30534  14.183  29.800   6.101 -0.0580  0.0876  0.0349
 2523POPC   C3A30535  14.138  29.586   5.681 -0.0779  0.0516  0.1953
 2523POPC   C4A30536  14.182  29.438   5.212 -0.2501  0.0193 -0.1204
 2523POPC   C1B30537  14.484  29.886   6.465  0.0420  0.2627  0.0335
 2523POPC   C2B30538  14.292  30.240   6.292  0.0690 -0.0471 -0.0629
 2523POPC   C3B30539  14.524  30.437   5.922  0.2178 -0.0303  0.0446
 2523POPC   C4B30540  14.670  30.681   5.568  0.2714  0.1537  0.1350
 2524POPC   NC330541   7.003  21.633   7.609  0.0105  0.1150  0.1061
 2524POPC   PO430542   7.382  21.593   7.596  0.1607  0.2919  0.1533
 2524POPC   GL130543   7.214  21.335   7.283  0.1448 -0.0027 -0.1720
 2524POPC   GL230544   7.213  21.546   7.110 -0.2115  0.0850 -0.1065
 2524POPC   C1A30545   6.905  21.222   6.971  0.1153  0.1558  0.1976
 2524POPC   D2A30546   6.843  20.903   6.636 -0.1824  0.1118 -0.0434
 2524POPC   C3A30547   7.061  20.732   6.243  0.0451 -0.1754 -0.2788
 2524POPC   C4A30548   7.192  20.425   5.989  0.3833  0.0126  0.1555
 2524POPC   C1B30549   7.197  21.585   6.659  0.0387  0.0014  0.1323
 2524POPC   C2B30550   7.187  21.724   6.253 -0.0788 -0.0608  0.0602
 2524POPC   C3B30551   7.385  21.689   5.806  0.0212  0.0386  0.0020
 2524POPC   C4B30552   7.206  22.022   5.481  0.0959 -0.0950  0.4014
 2525POPC   NC330553  10.139   6.500   8.010  0.0109 -0.0820  0.0855
 2525POPC   PO430554   9.765   6.578   7.866  0.1072  0.0680  0.3730
 2525POPC   GL130555   9.581   6.490   7.478  0.0647  0.2609  0.2417
 2525POPC   GL230556   9.502   6.744   7.275 -0.1088 -0.0920 -0.4586
 2525POPC   C1A30557   9.820   6.260   7.140  0.0076  0.0814 -0.0640
 2525POPC   D2A30558   9.895   6.207   6.692 -0.0852 -0.1578  0.1161
 2525POPC   C3A30559  10.087   6.432   6.386  0.3605 -0.0983  0.0221
 2525POPC   C4A30560  10.122   6.645   5.982  0.0179 -0.0349  0.0986
 2525POPC   C1B30561   9.276   6.985   6.944 -0.1193  0.2377 -0.2168
 2525POPC   C2B30562   9.336   7.202   6.559 -0.2715 -0.0630 -0.2234
 2525POPC   C3B30563   9.186   7.310   6.113 -0.1710 -0.2383 -0.1870
 2525POPC   C4B30564   8.923   7.386   5.740 -0.0185 -0.0280  0.0392
 2526POPC   NC330565   3.257  20.222   8.243  0.0761 -0.0536  0.0992
 2526POPC   PO430566   2.881  20.356   8.122  0.0834 -0.4961  0.0636
 2526POPC   GL130567   2.729  20.338   7.734 -0.0610  0.1653  0.2784
 2526POPC   GL230568   2.868  20.561   7.631  0.1210 -0.2588 -0.2464
 2526POPC   C1A30569   2.420  20.262   7.370 -0.0319  0.0471 -0.1439
 2526POPC   D2A30570   2.450  20.436   6.946 -0.2828  0.1348  0.0963
 2526POPC   C3A30571   2.741  20.248   6.668  0.0412  0.0414 -0.1674
 2526POPC   C4A30572   3.031  20.363   6.367 -0.0386 -0.0635  0.2538
 2526POPC   C1B30573   2.904  20.534   7.176  0.0955 -0.2364  0.0733
 2526POPC   C2B30574   3.188  20.365   6.863 -0.1405  0.2840 -0.1293
 2526POPC   C3B30575   3.495  20.230   6.581 -0.1391 -0.2072  0.5962
 2526POPC   C4B30576   3.411  19.959   6.257 -0.0771  0.2490  0.1422
 2527POPC   NC330577   3.552  13.424   8.098 -0.0872  0.1341 -0.1532
 2527POPC   PO430578   3.222  13.281   7.990  0.1754 -0.3580 -0.2036
 2527POPC   GL130579   3.034  13.233   7.644 -0.0246 -0.0446  0.2976
 2527POPC   GL230580   3.133  12.977   7.488  0.3950  0.1130  0.1767
 2527POPC   C1A30581   2.823  13.259   7.208  0.2263 -0.2719  0.1057
 2527POPC   D2A30582   2.870  13.048   6.736  0.3188  0.1935 -0.2437
 2527POPC   C3A30583   2.770  13.052   6.295  0.1397 -0.1969 -0.1944
 2527POPC   C4A30584   2.653  13.394   5.929 -0.3850 -0.2790 -0.0560
 2527POPC   C1B30585   3.281  13.047   7.011 -0.0170 -0.1012 -0.0637
 2527POPC   C2B30586   3.289  12.996   6.485  0.0641  0.2203 -0.6189
 2527POPC   C3B30587   3.288  12.849   6.071  0.2790  0.1500  0.3336
 2527POPC   C4B30588   3.484  12.461   5.765 -0.0080  0.1688 -0.0611
 2528POPC   NC330589   2.910  14.117   7.928  0.0506 -0.1069 -0.1502
 2528POPC   PO430590   2.956  14.006   7.585  0.1372 -0.0852 -0.0644
 2528POPC   GL130591   2.695  14.052   7.262  0.1898  0.0576  0.3924
 2528POPC   GL230592   2.970  14.070   7.018 -0.0891 -0.3015  0.2581
 2528POPC   C1A30593   2.525  14.224   6.898  0.0034 -0.0539 -0.1818
 2528POPC   D2A30594   2.439  14.268   6.463  0.0657 -0.1618 -0.0770
 2528POPC   C3A30595   2.585  14.626   6.197 -0.2192 -0.3083 -0.2445
 2528POPC   C4A30596   2.692  14.939   5.906 -0.3885  0.1131  0.1012
 2528POPC   C1B30597   2.753  13.876   6.649 -0.3035 -0.2454 -0.2332
 2528POPC   C2B30598   2.869  13.731   6.218 -0.0391 -0.0424 -0.2525
 2528POPC   C3B30599   3.004  13.858   5.817  0.1622  0.0473  0.0461
 2528POPC   C4B30600   2.793  13.923   5.386  0.0809  0.1839  0.0193
 2529POPC   NC330601   2.019  24.266   7.250 -0.0200 -0.1334 -0.1263
 2529POPC   PO430602   1.969  24.664   7.265  0.1104  0.0923 -0.0350
 2529POPC   GL130603   2.206  24.708   6.995  0.1098  0.1626  0.0526
 2529POPC   GL230604   2.261  25.000   6.869  0.0535 -0.0710 -0.0432
 2529POPC   C1A30605   2.337  24.612   6.552  0.0594  0.0722 -0.3254
 2529POPC   D2A30606   2.407  24.468   6.069 -0.0965 -0.0102 -0.1318
 2529POPC   C3A30607   2.541  24.313   5.623 -0.1434 -0.0890  0.0518
 2529POPC   C4A30608   2.668  24.323   5.145 -0.0265  0.4273  0.2755
 2529POPC   C1B30609   2.216  25.273   6.468 -0.0087 -0.0561  0.2082
 2529POPC   C2B30610   2.401  25.379   6.048  0.0843  0.3137  0.0085
 2529POPC   C3B30611   2.620  25.262   5.675 -0.2651  0.0312 -0.0663
 2529POPC   C4B30612   3.064  25.398   5.475  0.0524 -0.0418  0.1849
 2530POPC   NC330613   9.071   1.876   7.295 -0.0581 -0.2204  0.0415
 2530POPC   PO430614   9.273   1.723   7.618 -0.1126  0.2669  0.0966
 2530POPC   GL130615   9.520   1.665   7.313 -0.4678 -0.3400  0.1770
 2530POPC   GL230616   9.640   1.920   7.168 -0.0676  0.1280  0.1860
 2530POPC   C1A30617   9.333   1.626   6.881  0.2831 -0.0092 -0.1018
 2530POPC   D2A30618   9.260   1.549   6.458 -0.0918 -0.1432 -0.2349
 2530POPC   C3A30619   9.674   1.601   6.211 -0.0393  0.3795  0.3335
 2530POPC   C4A30620   9.906   1.799   5.863 -0.0738  0.1211 -0.1717
 2530POPC   C1B30621   9.631   2.027   6.714  0.0102 -0.2330 -0.2244
 2530POPC   C2B30622   9.669   2.141   6.299 -0.0161  0.1825  0.1429
 2530POPC   C3B30623   9.829   2.374   5.888  0.2390 -0.1571  0.1412
 2530POPC   C4B30624   9.856   2.445   5.440 -0.1371 -0.2006  0.1990
 2531POPC   NC330625   2.706  24.525   6.882  0.3190  0.4151 -0.0432
 2531POPC   PO430626   2.534  24.266   7.128 -0.1994  0.2174 -0.1054
 2531POPC   GL130627   2.477  24.078   6.812 -0.5555 -0.1258 -0.0961
 2531POPC   GL230628   2.198  24.149   6.688  0.0570 -0.1558  0.0794
 2531POPC   C1A30629   2.876  24.009   6.553  0.3852  0.3874  0.1553
 2531POPC   D2A30630   3.255  24.205   6.532 -0.0484 -0.1625 -0.1879
 2531POPC   C3A30631   3.646  24.120   6.248 -0.0162 -0.0103  0.1725
 2531POPC   C4A30632   3.756  24.324   5.805 -0.0121 -0.1227 -0.0058
 2531POPC   C1B30633   2.387  24.001   6.324 -0.1232 -0.1720  0.1854
 2531POPC   C2B30634   2.390  23.858   5.903 -0.0359  0.0140 -0.0870
 2531POPC   C3B30635   2.573  23.773   5.435  0.0263  0.1946 -0.0448
 2531POPC   C4B30636   2.653  23.715   4.946 -0.0837  0.0181  0.4416
 2532POPC   NC330637  12.356  29.824   7.832 -0.0811  0.1964 -0.0322
 2532POPC   PO430638  12.398  30.198   7.766  0.1377  0.2862  0.0689
 2532POPC   GL130639  12.155  30.017   7.490  0.0595 -0.1738  0.1807
 2532POPC   GL230640  12.327  30.025   7.247  0.1765 -0.2137  0.0717
 2532POPC   C1A30641  11.908  30.177   7.095 -0.2236  0.1388  0.2243
 2532POPC   D2A30642  11.889  30.591   6.887  0.3283 -0.2421 -0.1550
 2532POPC   C3A30643  12.256  30.651   6.601 -0.0801 -0.2137  0.0348
 2532POPC   C4A30644  12.525  30.672   6.172  0.0291  0.0685  0.1734
 2532POPC   C1B30645  12.329  30.157   6.774  0.1135  0.0454 -0.1128
 2532POPC   C2B30646  12.507  30.157   6.393 -0.1884  0.0120  0.0156
 2532POPC   C3B30647  12.180  30.200   6.038 -0.0835 -0.0534  0.1142
 2532POPC   C4B30648  11.953  30.372   5.686 -0.0555  0.0245 -0.0479
 2533POPC   NC330649   2.418   6.785   7.368 -0.1403 -0.0837  0.4515
 2533POPC   PO430650   2.436   6.386   7.302 -0.1859 -0.0026  0.2785
 2533POPC   GL130651   2.071   6.458   7.057  0.2788  0.2638 -0.0840
 2533POPC   GL230652   2.263   6.525   6.837 -0.5004 -0.0633 -0.0840
 2533POPC   C1A30653   2.091   6.087   6.690  0.1827 -0.2655 -0.3398
 2533POPC   D2A30654   2.068   5.948   6.232 -0.0040  0.0209  0.1915
 2533POPC   C3A30655   1.921   5.669   5.910  0.0720 -0.0839  0.2866
 2533POPC   C4A30656   1.650   5.640   5.541  0.1015 -0.0603 -0.1102
 2533POPC   C1B30657   2.505   6.334   6.469  0.0901 -0.1305 -0.0527
 2533POPC   C2B30658   2.430   6.204   6.102  0.2611 -0.1418 -0.2001
 2533POPC   C3B30659   2.470   5.909   5.775 -0.2009  0.1594 -0.0653
 2533POPC   C4B30660   2.598   5.682   5.381  0.0961  0.1989  0.1301
 2534POPS   CNO30661  13.928  21.345   7.863  0.0902 -0.3642  0.1402
 2534POPS   PO430662  14.267  21.591   7.898  0.1303  0.1832 -0.3770
 2534POPS   GL130663  14.088  21.642   7.546 -0.3059  0.0469 -0.1238
 2534POPS   GL230664  14.297  21.679   7.335  0.2684  0.2079  0.1672
 2534POPS   C1A30665  13.786  21.846   7.307  0.0125 -0.0093  0.0636
 2534POPS   D2A30666  13.340  21.834   7.215 -0.1993 -0.2925 -0.0231
 2534POPS   C3A30667  13.008  22.119   6.938  0.0206  0.0933 -0.0610
 2534POPS   C4A30668  12.754  22.526   6.857  0.0475 -0.3263  0.1432
 2534POPS   C1B30669  14.138  21.665   6.925 -0.1954  0.1354  0.3963
 2534POPS   C2B30670  14.039  21.638   6.480 -0.1904 -0.0573 -0.1638
 2534POPS   C3B30671  13.972  21.577   6.004  0.1921  0.0477 -0.2607
 2534POPS   C4B30672  13.901  21.597   5.541  0.1201  0.1154 -0.0895
 2535POPS   CNO30673   3.627  30.800   8.146 -0.1818  0.0663 -0.0496
 2535POPS   PO430674   3.401  30.981   8.413 -0.0701  0.4669  0.0057
 2535POPS   GL130675   3.228  30.757   8.045 -0.0899 -0.2590  0.0721
 2535POPS   GL230676   3.065  30.680   8.213  0.3873 -0.0373  0.0614
 2535POPS   C1A30677   2.941  30.838   7.739  0.0542  0.1089  0.1129
 2535POPS   D2A30678   2.697  30.739   7.403 -0.0752  0.0392  0.0516
 2535POPS   C3A30679   2.398  31.025   7.186  0.3434  0.0525 -0.5625
 2535POPS   C4A30680   2.132  30.907   6.865  0.1813 -0.0777  0.0917
 2535POPS   C1B30681   2.756  30.419   8.038 -0.0032 -0.0345  0.1752
 2535POPS   C2B30682   2.401  30.257   7.790  0.4813 -0.3021 -0.0617
 2535POPS   C3B30683   2.044  30.217   7.490 -0.1311 -0.1869 -0.5378
 2535POPS   C4B30684   1.769  30.135   7.159  0.1993 -0.1533 -0.0819
 2536POPS   CNO30685   8.676  12.064   7.648 -0.0804  0.1839 -0.0480
 2536POPS   PO430686   8.923  12.243   7.531 -0.2374  0.1572 -0.0302
 2536POPS   GL130687   8.916  12.212   7.085 -0.0690 -0.0633  0.3253
 2536POPS   GL230688   9.178  12.487   6.981  0.2506  0.1278 -0.2494
 2536POPS   C1A30689   8.696  12.417   6.712 -0.2746  0.3149 -0.0294
 2536POPS   D2A30690   8.931  12.367   6.305  0.0395 -0.1271 -0.0249
 2536POPS   C3A30691   8.784  12.125   5.977 -0.1161 -0.0477  0.1044
 2536POPS   C4A30692   8.605  12.044   5.514 -0.0320 -0.0649 -0.0236
 2536POPS   C1B30693   9.263  12.669   6.502 -0.0448  0.2724  0.2368
 2536POPS   C2B30694   9.447  12.961   6.217 -0.2183 -0.0479  0.1648
 2536POPS   C3B30695   9.484  13.083   5.814  0.4121 -0.4581 -0.0682
 2536POPS   C4B30696   9.127  13.156   5.503  0.1619  0.0889  0.0842
 2537POPS   CNO30697   7.598  26.973   7.968 -0.5005 -0.1462 -0.3732
 2537POPS   PO430698   7.427  27.032   7.646  0.1193 -0.2174 -0.2090
 2537POPS   GL130699   7.613  27.027   7.379  0.2324  0.0954 -0.1045
 2537POPS   GL230700   7.838  26.814   7.363  0.0732 -0.1191  0.0498
 2537POPS   C1A30701   7.518  27.126   6.968 -0.1515  0.0145  0.1326
 2537POPS   D2A30702   7.478  27.234   6.486 -0.1919 -0.3301 -0.0909
 2537POPS   C3A30703   7.719  26.875   6.341  0.0361 -0.1010 -0.3571
 2537POPS   C4A30704   8.105  26.870   6.006 -0.0505  0.2468  0.1510
 2537POPS   C1B30705   8.117  26.837   6.992 -0.0178 -0.3985 -0.1628
 2537POPS   C2B30706   8.251  26.886   6.560  0.0880  0.0464 -0.2930
 2537POPS   C3B30707   8.356  27.274   6.347 -0.0612  0.2367 -0.0989
 2537POPS   C4B30708   8.274  27.685   6.181  0.0286  0.2393 -0.2693
 2538POPS   CNO30709   5.043   7.896   7.823 -0.1193 -0.0103 -0.2763
 2538POPS   PO430710   4.866   7.612   7.901  0.1035 -0.1191 -0.0592
 2538POPS   GL130711   4.845   7.617   7.511  0.3733  0.1428 -0.1732
 2538POPS   GL230712   4.685   7.821   7.416  0.2099  0.3060 -0.1248
 2538POPS   C1A30713   4.590   7.344   7.155 -0.2413 -0.2023 -0.2016
 2538POPS   D2A30714   4.218   7.149   6.922  0.2237 -0.2303  0.0665
 2538POPS   C3A30715   4.124   7.378   6.520 -0.2434 -0.3734 -0.2315
 2538POPS   C4A30716   4.002   7.816   6.385 -0.1234  0.0697  0.3872
 2538POPS   C1B30717   4.663   7.895   6.965 -0.0157 -0.1457 -0.3829
 2538POPS   C2B30718   4.640   7.664   6.609 -0.0379  0.2352  0.0596
 2538POPS   C3B30719   4.475   7.592   6.186  0.2590 -0.0790  0.1832
 2538POPS   C4B30720   4.439   7.511   5.759 -0.1384  0.2009  0.0013
 2539POPS   CNO30721   1.317  24.025   7.608 -0.1210 -0.2363  0.1683
 2539POPS   PO430722   1.633  24.056   7.386  0.1890  0.2350 -0.0255
 2539POPS   GL130723   1.427  24.072   7.110  0.2464 -0.1555  0.1461
 2539POPS   GL230724   1.483  24.353   7.007  0.2318  0.1208 -0.0354
 2539POPS   C1A30725   1.238  23.958   6.745 -0.0611  0.2058 -0.1755
 2539POPS   D2A30726   0.800  23.804   6.609 -0.2688 -0.1814  0.1726
 2539POPS   C3A30727   0.668  23.933   6.178  0.1203 -0.1893  0.1591
 2539POPS   C4A30728   0.441  24.056   5.768  0.0840 -0.1039 -0.0219
 2539POPS   C1B30729   1.767  24.448   6.646  0.1219 -0.0564 -0.0117
 2539POPS   C2B30730   1.974  24.243   6.239 -0.2790  0.0996 -0.2111
 2539POPS   C3B30731   1.905  24.293   5.749  0.0825 -0.1515  0.0421
 2539POPS   C4B30732   1.968  24.546   5.357  0.0836 -0.0649  0.0110
 2540POPS   CNO30733  11.350  28.034   8.075 -0.1280 -0.0729  0.0855
 2540POPS   PO430734  11.014  28.223   8.151 -0.0421  0.0053  0.1485
 2540POPS   GL130735  10.746  28.366   7.892 -0.1820  0.0624  0.1640
 2540POPS   GL230736  10.799  28.394   7.626  0.0924  0.0642 -0.1840
 2540POPS   C1A30737  10.312  28.538   7.904 -0.0101  0.5168 -0.3600
 2540POPS   D2A30738   9.895  28.613   7.871 -0.1358  0.0809 -0.1219
 2540POPS   C3A30739   9.790  28.519   7.426 -0.1027 -0.0542  0.2714
 2540POPS   C4A30740   9.749  28.349   6.982  0.3058  0.3073 -0.0967
 2540POPS   C1B30741  10.702  28.501   7.192  0.0809 -0.1088  0.2423
 2540POPS   C2B30742  10.572  28.943   7.007 -0.0187  0.2349 -0.1121
 2540POPS   C3B30743  10.690  29.344   6.901 -0.0537 -0.1094 -0.0056
 2540POPS   C4B30744  10.898  29.525   6.525 -0.0238  0.1364 -0.3588
 2541POPS   CNO30745  10.945   7.774   8.264 -0.0182 -0.0022  0.0752
 2541POPS   PO430746  10.964   7.495   7.989 -0.0357 -0.1573 -0.0222
 2541POPS   GL130747  10.799   7.372   7.642 -0.0032  0.4673 -0.3319
 2541POPS   GL230748  10.874   7.562   7.407 -0.0414 -0.0195  0.5627
 2541POPS   C1A30749  10.729   7.150   7.269 -0.0396  0.1037 -0.2682
 2541POPS   D2A30750  10.687   7.126   6.794 -0.0540 -0.2794 -0.2545
 2541POPS   C3A30751  10.181   7.020   6.641 -0.3716  0.0053  0.0099
 2541POPS   C4A30752   9.925   6.957   6.313 -0.1503  0.1185  0.3679
 2541POPS   C1B30753  10.730   7.625   7.011 -0.1060 -0.1606  0.1786
 2541POPS   C2B30754  10.676   7.752   6.572  0.2559  0.1295 -0.1779
 2541POPS   C3B30755  10.590   7.806   6.127 -0.4068 -0.0907  0.0692
 2541POPS   C4B30756  10.336   7.831   5.801  0.2179  0.3343  0.3023
 2542POPS   CNO30757   4.764   7.048   8.126 -0.0300  0.0753  0.0634
 2542POPS   PO430758   4.487   7.284   8.243 -0.4558 -0.2003  0.2643
 2542POPS   GL130759   4.427   7.199   7.848  0.0371 -0.1078  0.1934
 2542POPS   GL230760   4.405   7.488   7.630 -0.2609 -0.2651  0.1987
 2542POPS   C1A30761   4.320   7.009   7.424 -0.0732  0.1321 -0.3500
 2542POPS   D2A30762   4.444   6.615   7.162  0.0443  0.0088  0.0575
 2542POPS   C3A30763   4.321   6.586   6.761  0.0230 -0.4805 -0.2006
 2542POPS   C4A30764   4.439   6.665   6.347  0.0987 -0.2631  0.3477
 2542POPS   C1B30765   4.223   7.717   7.263 -0.0869 -0.0636 -0.3163
 2542POPS   C2B30766   4.207   7.882   6.850 -0.1800 -0.1793  0.1207
 2542POPS   C3B30767   4.258   8.220   6.485 -0.1566  0.1510  0.1142
 2542POPS   C4B30768   4.179   8.139   6.038 -0.0984  0.0063  0.0020
 2543POPS   CNO30769  14.594  13.707   8.001  0.1341  0.1224 -0.0422
 2543POPS   PO430770  14.307  13.718   7.752  0.1109  0.1720  0.0559
 2543POPS   GL130771  14.521  13.744   7.431 -0.1608  0.0520  0.0651
 2543POPS   GL230772  14.663  13.568   7.333 -0.0969  0.3556 -0.1650
 2543POPS   C1A30773  14.403  13.838   6.971 -0.1336 -0.2349 -0.2845
 2543POPS   D2A30774  14.403  14.001   6.498 -0.1114 -0.0966  0.1943
 2543POPS   C3A30775  14.710  14.327   6.311 -0.0411 -0.1459 -0.1395
 2543POPS   C4A30776  14.763  14.606   5.963 -0.0661  0.2389 -0.2232
 2543POPS   C1B30777  14.817  13.561   6.890  0.1172 -0.1033 -0.0610
 2543POPS   C2B30778  14.933  13.837   6.524 -0.4486  0.1828  0.3423
 2543POPS   C3B30779  15.147  14.011   6.183 -0.0707  0.2784 -0.0226
 2543POPS   C4B30780  15.550  14.132   5.973 -0.0768 -0.0990 -0.3316
 2544POPS   CNO30781   1.966   6.561   7.543 -0.1577  0.0247  0.1290
 2544POPS   PO430782   1.935   6.967   7.528  0.1412 -0.0156 -0.1630
 2544POPS   GL130783   1.916   6.951   7.152 -0.2937  0.3629  0.0256
 2544POPS   GL230784   1.712   6.786   7.121  0.1543 -0.1702 -0.1070
 2544POPS   C1A30785   1.889   6.841   6.692 -0.7249 -0.1857  0.5188
 2544POPS   D2A30786   2.061   6.561   6.399  0.0204 -0.3126  0.0481
 2544POPS   C3A30787   1.948   6.400   5.970 -0.2807 -0.0061  0.1022
 2544POPS   C4A30788   2.001   6.093   5.618  0.1532  0.4176 -0.1277
 2544POPS   C1B30789   1.431   6.992   6.786 -0.3065  0.2097 -0.3220
 2544POPS   C2B30790   1.691   7.300   6.538  0.0886  0.1816 -0.0374
 2544POPS   C3B30791   1.738   7.189   6.059 -0.1384  0.1228 -0.1379
 2544POPS   C4B30792   1.562   7.072   5.653  0.2723 -0.0182  0.0785
 2545POPS   CNO30793  14.674   9.019   8.170  0.2836 -0.0134  0.1821
 2545POPS   PO430794  14.851   8.904   7.921  0.2593  0.4772  0.0638
 2545POPS   GL130795  14.901   8.943   7.546 -0.0965 -0.0102  0.3380
 2545POPS   GL230796  15.034   8.733   7.394  0.0991  0.2705 -0.0244
 2545POPS   C1A30797  14.665   8.788   7.147  0.2850  0.0324  0.0322
 2545POPS   D2A30798  14.691   8.810   6.694 -0.0556 -0.1060 -0.1082
 2545POPS   C3A30799  14.952   8.722   6.309  0.3497 -0.0189 -0.1379
 2545POPS   C4A30800  15.304   8.823   6.039  0.1042 -0.0640 -0.1747
 2545POPS   C1B30801  15.071   8.975   6.999  0.1829  0.3751  0.2869
 2545POPS   C2B30802  15.046   9.166   6.598 -0.5448  0.1181  0.1372
 2545POPS   C3B30803  15.078   9.524   6.317 -0.4434  0.0037 -0.1385
 2545POPS   C4B30804  15.068   9.795   5.968  0.5457 -0.1119  0.0615
 2546POPS   CNO30805   8.287  14.538   8.082 -0.0727 -0.1940  0.0267
 2546POPS   PO430806   8.269  14.382   7.749  0.1256 -0.1846 -0.2513
 2546POPS   GL130807   8.098  14.475   7.477 -0.0295  0.1858 -0.0373
 2546POPS   GL230808   7.973  14.191   7.398  0.1403  0.0756  0.0504
 2546POPS   C1A30809   7.778  14.664   7.225  0.1703  0.4202  0.0478
 2546POPS   D2A30810   7.463  14.733   6.934 -0.1370 -0.1748  0.1060
 2546POPS   C3A30811   7.490  14.734   6.458  0.0125  0.1099 -0.1445
 2546POPS   C4A30812   7.608  14.915   6.033  0.1923  0.0382  0.0616
 2546POPS   C1B30813   8.089  14.132   6.966  0.0020 -0.0932  0.0082
 2546POPS   C2B30814   8.061  13.923   6.562  0.0602 -0.0702  0.0206
 2546POPS   C3B30815   7.718  13.921   6.292  0.0424 -0.3620  0.0189
 2546POPS   C4B30816   7.445  13.984   5.895  0.0304  0.0516 -0.0658
 2547POPS   CNO30817  15.370   2.018   7.573  0.0867 -0.2705  0.2789
 2547POPS   PO430818  15.147   2.317   7.668 -0.2646  0.0833  0.1724
 2547POPS   GL130819  15.339   2.356   7.248 -0.1731 -0.1064 -0.2702
 2547POPS   GL230820  15.350   2.081   7.058 -0.4685  0.0350 -0.1427
 2547POPS   C1A30821  14.906   2.416   7.077  0.1840  0.1774  0.1247
 2547POPS   D2A30822  14.501   2.552   6.882 -0.1338  0.2937  0.3492
 2547POPS   C3A30823  14.602   2.757   6.450 -0.2307 -0.1310  0.0466
 2547POPS   C4A30824  14.758   2.948   6.104 -0.2505  0.1831 -0.0021
 2547POPS   C1B30825  15.643   1.944   6.735 -0.3830  0.1490  0.1703
 2547POPS   C2B30826  15.790   1.978   6.292 -0.0503 -0.0253 -0.1777
 2547POPS   C3B30827  16.239   1.934   6.036  0.1992  0.1090  0.1544
 2547POPS   C4B30828  16.238   1.759   5.582  0.6360  0.0540  0.0180
 2548POPS   CNO30829   6.973  24.924   8.416  0.0405 -0.2242  0.2240
 2548POPS   PO430830   6.689  25.015   8.187  0.1392  0.1610 -0.1268
 2548POPS   GL130831   6.915  25.216   7.908 -0.4868 -0.0184  0.2145
 2548POPS   GL230832   6.767  25.343   7.761  0.0675  0.0509  0.0737
 2548POPS   C1A30833   7.235  25.382   7.551 -0.0676 -0.0324  0.0377
 2548POPS   D2A30834   7.543  25.521   7.308  0.0290 -0.0450 -0.2935
 2548POPS   C3A30835   7.630  25.438   6.851 -0.1005  0.1236 -0.0228
 2548POPS   C4A30836   7.532  25.535   6.440 -0.0791 -0.0385 -0.0894
 2548POPS   C1B30837   6.625  25.006   7.460 -0.2959 -0.0102 -0.1768
 2548POPS   C2B30838   6.750  24.821   7.049  0.1945 -0.1125  0.2263
 2548POPS   C3B30839   6.827  24.619   6.623  0.4524  0.0951 -0.1942
 2548POPS   C4B30840   7.045  24.734   6.221 -0.1427  0.1207 -0.3290
 2549POPS   CNO30841   3.297  21.656   8.012 -0.0228  0.0435 -0.0902
 2549POPS   PO430842   3.504  21.735   7.691  0.1442 -0.1916 -0.0344
 2549POPS   GL130843   3.443  21.748   7.296  0.1014  0.0375 -0.1888
 2549POPS   GL230844   3.577  21.810   7.139  0.2129 -0.3086 -0.2044
 2549POPS   C1A30845   3.061  21.720   6.970 -0.2834  0.0270  0.0237
 2549POPS   D2A30846   2.839  21.713   6.567 -0.1771  0.3411  0.3794
 2549POPS   C3A30847   3.009  21.538   6.179  0.2647 -0.1074 -0.1568
 2549POPS   C4A30848   3.156  21.228   5.867  0.1955  0.0645 -0.3570
 2549POPS   C1B30849   3.787  21.694   6.757  0.0733 -0.1819  0.1049
 2549POPS   C2B30850   3.746  21.261   6.562 -0.1023  0.0250 -0.1269
 2549POPS   C3B30851   3.929  21.116   6.176  0.0250 -0.1944 -0.2202
 2549POPS   C4B30852   4.177  21.146   5.840  0.1829 -0.0200 -0.1442
 2550POPS   CNO30853   9.687  29.821   8.433 -0.0624 -0.0784 -0.3132
 2550POPS   PO430854   9.447  29.581   8.492  0.2380  0.0259 -0.2976
 2550POPS   GL130855   9.544  29.421   8.156 -0.2615  0.0529 -0.4518
 2550POPS   GL230856   9.846  29.470   8.069  0.2139 -0.0482 -0.4172
 2550POPS   C1A30857   9.288  29.228   7.815 -0.0196 -0.0875  0.3892
 2550POPS   D2A30858   9.059  28.918   7.620  0.0972 -0.1523 -0.0873
 2550POPS   C3A30859   8.859  28.802   7.189  0.0512 -0.3099  0.3112
 2550POPS   C4A30860   8.784  28.365   7.062 -0.1746 -0.2198 -0.0310
 2550POPS   C1B30861   9.689  29.509   7.575  0.0600 -0.0820  0.2106
 2550POPS   C2B30862   9.446  29.526   7.168  0.2550 -0.1010  0.1700
 2550POPS   C3B30863   9.024  29.543   7.074  0.1294 -0.1912 -0.2533
 2550POPS   C4B30864   8.713  29.798   6.816 -0.3081 -0.4435 -0.0704
 2551POPS   CNO30865   3.013  12.021   8.310 -0.4671  0.0883  0.0537
 2551POPS   PO430866   2.747  12.082   8.074  0.2554  0.0169  0.2153
 2551POPS   GL130867   2.898  12.039   7.561  0.3843 -0.2195  0.0957
 2551POPS   GL230868   2.680  12.201   7.386  0.1854 -0.0036 -0.0259
 2551POPS   C1A30869   3.069  12.353   7.256  0.1493  0.1573 -0.0791
 2551POPS   D2A30870   2.972  12.557   6.865  0.2908  0.0592 -0.3463
 2551POPS   C3A30871   3.043  12.530   6.447  0.1230  0.1318 -0.0118
 2551POPS   C4A30872   3.238  12.209   6.202  0.0153 -0.0410  0.1965
 2551POPS   C1B30873   2.769  12.112   6.904  0.0861 -0.1137  0.0069
 2551POPS   C2B30874   2.811  11.964   6.482  0.2849 -0.0068  0.1045
 2551POPS   C3B30875   2.933  11.877   6.039  0.2697 -0.0506  0.2368
 2551POPS   C4B30876   3.231  12.041   5.718 -0.2939 -0.1371  0.1680
 2552POPS   CNO30877  12.851  27.294   7.807  0.0354 -0.1391 -0.2475
 2552POPS   PO430878  13.075  27.084   7.589  0.0922  0.0849  0.2524
 2552POPS   GL130879  13.074  27.195   7.203  0.0363  0.3299  0.3930
 2552POPS   GL230880  13.161  27.441   6.942  0.1627 -0.1791  0.3861
 2552POPS   C1A30881  13.103  26.790   6.989  0.1105  0.1050 -0.4145
 2552POPS   D2A30882  12.901  26.785   6.629  0.2706  0.3431 -0.0384
 2552POPS   C3A30883  13.023  26.858   6.219 -0.2822  0.1960  0.2526
 2552POPS   C4A30884  13.263  26.594   5.930 -0.0614  0.1296 -0.1490
 2552POPS   C1B30885  13.171  27.460   6.471 -0.3606 -0.1113  0.2184
 2552POPS   C2B30886  13.008  27.318   6.049 -0.4111 -0.0685 -0.1207
 2552POPS   C3B30887  12.878  27.009   5.759 -0.2573 -0.2814 -0.0263
 2552POPS   C4B30888  12.743  27.070   5.301 -0.0291  0.0718  0.3696
 2553POPS   CNO30889   9.367  26.736   8.118 -0.0008  0.0026  0.2305
 2553POPS   PO430890   9.084  26.677   8.329  0.3148 -0.1799  0.1769
 2553POPS   GL130891   8.883  26.954   8.124 -0.3866  0.1096 -0.1546
 2553POPS   GL230892   9.001  27.195   8.245  0.1302  0.0790  0.1798
 2553POPS   C1A30893   8.854  27.213   7.747 -0.0826 -0.0478 -0.0113
 2553POPS   D2A30894   8.906  27.557   7.480  0.2729 -0.3164 -0.0310
 2553POPS   C3A30895   8.931  27.991   7.582  0.0819  0.1599 -0.2145
 2553POPS   C4A30896   8.933  28.451   7.602 -0.0668  0.3353 -0.3870
 2553POPS   C1B30897   9.456  27.258   8.345 -0.0242 -0.4179  0.1020
 2553POPS   C2B30898   9.762  27.544   8.169 -0.0452 -0.0973  0.3795
 2553POPS   C3B30899   9.878  27.620   7.726  0.1262  0.1455  0.2922
 2553POPS   C4B30900  10.253  27.364   7.633 -0.0155 -0.1441  0.1281
 2554POPS   CNO30901   2.129  16.352   8.399 -0.0017  0.0441  0.2010
 2554POPS   PO430902   1.798  16.248   8.322 -0.0401  0.3492  0.0043
 2554POPS   GL130903   1.548  16.297   7.930  0.2212 -0.0865  0.0575
 2554POPS   GL230904   1.723  16.553   7.825  0.2760  0.0825  0.0446
 2554POPS   C1A30905   1.030  16.440   7.906 -0.0332  0.0388 -0.3976
 2554POPS   D2A30906   0.828  16.860   7.789 -0.2355  0.1311 -0.1317
 2554POPS   C3A30907   0.450  17.009   7.911  0.2806 -0.1383  0.0292
 2554POPS   C4A30908   0.017  17.222   7.892 -0.0396  0.2840  0.0068
 2554POPS   C1B30909   1.611  16.922   7.483  0.2621  0.1056  0.0407
 2554POPS   C2B30910   1.299  17.093   7.137  0.0128  0.0895  0.0901
 2554POPS   C3B30911   1.221  17.303   6.683 -0.1750 -0.3750 -0.0935
 2554POPS   C4B30912   1.004  17.304   6.339  0.1343  0.0303  0.1118
 2555POPS   CNO30913   2.042   3.628   7.975  0.0386  0.1413  0.1715
 2555POPS   PO430914   1.665   3.723   7.856  0.3087  0.1796  0.1774
 2555POPS   GL130915   1.514   3.845   7.575 -0.1619 -0.1026  0.1893
 2555POPS   GL230916   1.499   3.636   7.387  0.0206 -0.0369  0.1282
 2555POPS   C1A30917   1.752   3.999   7.180 -0.0166 -0.3100 -0.2191
 2555POPS   D2A30918   1.625   3.855   6.726  0.1796 -0.3182  0.1653
 2555POPS   C3A30919   1.861   3.755   6.364 -0.1463 -0.0802 -0.0451
 2555POPS   C4A30920   2.068   3.815   5.928 -0.1579  0.1089 -0.0646
 2555POPS   C1B30921   1.943   3.555   7.136  0.3207  0.0603 -0.0759
 2555POPS   C2B30922   2.168   3.384   6.746  0.1106  0.1566  0.0107
 2555POPS   C3B30923   2.102   3.220   6.317 -0.2644  0.2716 -0.1903
 2555POPS   C4B30924   2.065   2.891   5.949  0.1152  0.1254  0.0429
 2556POPS   CNO30925  10.634   9.689   7.756 -0.2170  0.1174 -0.4352
 2556POPS   PO430926  10.338   9.710   7.514 -0.1014 -0.2546 -0.1599
 2556POPS   GL130927  10.513   9.407   7.257 -0.1924  0.4197  0.1908
 2556POPS   GL230928  10.446   9.494   6.972 -0.2778  0.0259 -0.2539
 2556POPS   C1A30929  10.499   8.990   7.085  0.0609  0.0239  0.2932
 2556POPS   D2A30930  10.608   8.681   6.738  0.1295  0.0933  0.0284
 2556POPS   C3A30931  10.965   8.754   6.477  0.1575  0.2122  0.0516
 2556POPS   C4A30932  11.184   9.098   6.278  0.0062  0.2476  0.2547
 2556POPS   C1B30933  10.526   9.533   6.531 -0.0201  0.1926 -0.4207
 2556POPS   C2B30934  10.778   9.444   6.222 -0.0813 -0.3877  0.1729
 2556POPS   C3B30935  10.992   9.354   5.831  0.1279 -0.0192  0.0558
 2556POPS   C4B30936  11.137   9.356   5.373 -0.1281  0.0341  0.0131
 2557POPS   CNO30937   6.564  19.227   8.169  0.1469  0.0583  0.2456
 2557POPS   PO430938   6.671  18.948   7.919 -0.1244 -0.0875 -0.0821
 2557POPS   GL130939   6.394  19.025   7.591 -0.4895  0.0004  0.0006
 2557POPS   GL230940   6.445  18.835   7.430 -0.2233 -0.3561  0.1582
 2557POPS   C1A30941   6.671  19.303   7.330  0.1012  0.1789 -0.0122
 2557POPS   D2A30942   6.579  19.430   6.921  0.1229 -0.0328 -0.0002
 2557POPS   C3A30943   6.640  19.167   6.538  0.1417  0.0567 -0.3061
 2557POPS   C4A30944   6.823  18.888   6.210 -0.0088 -0.2669  0.0136
 2557POPS   C1B30945   6.526  18.915   6.973  0.3300  0.0822  0.1422
 2557POPS   C2B30946   6.503  18.653   6.538  0.3386 -0.1217 -0.0393
 2557POPS   C3B30947   6.358  18.577   6.089  0.4562  0.1140  0.0111
 2557POPS   C4B30948   6.136  18.233   5.862 -0.5026 -0.0435  0.1404
 2558POPS   CNO30949   4.541  13.118   8.251  0.0537  0.0061 -0.0132
 2558POPS   PO430950   4.818  12.949   8.026  0.1101 -0.0479 -0.0306
 2558POPS   GL130951   4.915  12.800   7.595 -0.0888  0.0718 -0.0686
 2558POPS   GL230952   5.163  12.648   7.430  0.2781  0.0334  0.1223
 2558POPS   C1A30953   4.773  12.769   7.079 -0.4086  0.0905  0.1023
 2558POPS   D2A30954   4.944  12.978   6.635  0.1351 -0.0047  0.2683
 2558POPS   C3A30955   5.092  12.858   6.172  0.0141  0.0019 -0.1603
 2558POPS   C4A30956   4.905  12.818   5.756 -0.0178  0.2220 -0.2552
 2558POPS   C1B30957   5.312  12.813   7.032 -0.0177  0.1343 -0.1222
 2558POPS   C2B30958   5.460  12.622   6.686  0.3497 -0.0634  0.2583
 2558POPS   C3B30959   5.858  12.427   6.532  0.0190 -0.2027 -0.0680
 2558POPS   C4B30960   6.128  12.436   6.188  0.0586  0.0201  0.1637
 2559POPS   CNO30961   7.276  31.153   7.831 -0.0954 -0.1260  0.3158
 2559POPS   PO430962   7.035  31.374   7.628  0.4295  0.0058  0.4067
 2559POPS   GL130963   6.950  31.225   7.163  0.1828  0.0485  0.0505
 2559POPS   GL230964   7.108  31.442   6.986 -0.4037 -0.2919  0.0320
 2559POPS   C1A30965   7.102  30.918   6.861 -0.0968 -0.1132  0.0946
 2559POPS   D2A30966   7.126  30.789   6.374 -0.1960 -0.2096  0.0250
 2559POPS   C3A30967   6.798  30.984   6.156  0.2319 -0.0439  0.1783
 2559POPS   C4A30968   6.470  30.771   5.959 -0.1463 -0.1652  0.0347
 2559POPS   C1B30969   7.108  31.282   6.567  0.1380 -0.2762  0.0428
 2559POPS   C2B30970   7.305  31.263   6.167 -0.0877  0.0539 -0.0207
 2559POPS   C3B30971   7.219  31.049   5.851  0.1439  0.1196 -0.2968
 2559POPS   C4B30972   6.915  30.973   5.491 -0.4102  0.0760 -0.0538
 2560POPS   CNO30973   5.386   5.308   8.054 -0.2714 -0.0281  0.0052
 2560POPS   PO430974   5.237   5.652   8.021  0.2844  0.2904 -0.1201
 2560POPS   GL130975   5.037   5.617   7.719  0.0227 -0.0952 -0.1202
 2560POPS   GL230976   5.166   5.698   7.485  0.2836 -0.1521 -0.0057
 2560POPS   C1A30977   4.738   5.374   7.391  0.1504  0.1344  0.5012
 2560POPS   D2A30978   4.549   5.173   6.984  0.1333 -0.2380 -0.1172
 2560POPS   C3A30979   4.235   4.807   6.932 -0.0369 -0.0307 -0.0252
 2560POPS   C4A30980   3.877   4.569   7.033 -0.1569  0.0870  0.0164
 2560POPS   C1B30981   5.244   5.472   7.154 -0.0367  0.0317 -0.2563
 2560POPS   C2B30982   5.392   5.467   6.738  0.1229  0.2286  0.0793
 2560POPS   C3B30983   5.470   5.249   6.368  0.2711  0.1875 -0.0168
 2560POPS   C4B30984   5.551   5.188   5.929  0.1011  0.3106  0.0331
 2561POPS   CNO30985  11.621  23.828   7.565  0.2478  0.2564 -0.1806
 2561POPS   PO430986  11.429  23.524   7.493 -0.1224 -0.0393  0.1910
 2561POPS   GL130987  11.435  23.552   7.138  0.2733  0.0923 -0.0703
 2561POPS   GL230988  11.142  23.427   7.086 -0.3062 -0.0053  0.1386
 2561POPS   C1A30989  11.742  23.464   6.811 -0.0489 -0.1905  0.5277
 2561POPS   D2A30990  11.885  23.533   6.397  0.0953  0.1499  0.2047
 2561POPS   C3A30991  12.092  23.187   6.188 -0.1902 -0.1195 -0.1934
 2561POPS   C4A30992  12.194  22.709   6.106  0.0625 -0.1354  0.0334
 2561POPS   C1B30993  11.200  23.789   6.795 -0.2313  0.3732 -0.2170
 2561POPS   C2B30994  11.472  23.866   6.486  0.3053  0.0511  0.1409
 2561POPS   C3B30995  11.425  23.536   6.165 -0.1618 -0.3280 -0.0554
 2561POPS   C4B30996  11.700  23.348   5.832  0.1605  0.0480 -0.0831
 2562POPS   CNO30997   1.537  25.718   7.610  0.0612  0.2288  0.2488
 2562POPS   PO430998   1.307  25.595   7.352 -0.0411 -0.0837  0.0556
 2562POPS   GL130999   1.300  25.461   6.938 -0.0777 -0.3307  0.0327
 2562POPS   GL231000   1.240  25.210   6.799 -0.1265 -0.2053 -0.0993
 2562POPS   C1A31001   0.944  25.549   6.618 -0.0415 -0.0254  0.0335
 2562POPS   D2A31002   0.800  25.273   6.297  0.0785  0.2737  0.1585
 2562POPS   C3A31003   0.418  24.991   6.451  0.0313  0.1396 -0.0664
 2562POPS   C4A31004   0.004  24.915   6.268  0.0483  0.0787  0.0181
 2562POPS   C1B31005   1.251  25.091   6.390 -0.0099  0.0996  0.2083
 2562POPS   C2B31006   1.160  25.153   5.951 -0.3660  0.1041 -0.3231
 2562POPS   C3B31007   1.180  25.079   5.523  0.4183  0.0853 -0.2296
 2562POPS   C4B31008   0.891  25.303   5.235 -0.1283  0.3104 -0.0263
 2563POPS   CNO31009   0.842  15.004   8.007 -0.2749 -0.2005 -0.3576
 2563POPS   PO431010   0.659  15.314   7.925 -0.3124 -0.4079 -0.1303
 2563POPS   GL131011   0.380  15.377   7.633 -0.0410 -0.2783  0.1197
 2563POPS   GL231012   0.330  15.183   7.447 -0.2280  0.1776 -0.5118
 2563POPS   C1A31013   0.016  15.592   7.520  0.1677  0.4062  0.2218
 2563POPS   D2A31014  -0.235  15.838   7.266 -0.0623 -0.2946 -0.0916
 2563POPS   C3A31015  -0.278  15.686   6.863  0.0546 -0.1918  0.1446
 2563POPS   C4A31016  -0.098  15.669   6.431  0.0497 -0.0513  0.1966
 2563POPS   C1B31017   0.454  15.534   7.212  0.1383 -0.4751  0.1661
 2563POPS   C2B31018   0.786  15.845   7.059 -0.0963  0.0714 -0.2242
 2563POPS   C3B31019   0.868  16.033   6.618 -0.0738 -0.0034 -0.0305
 2563POPS   C4B31020   0.942  16.035   6.159 -0.0445  0.3605  0.1267
 2564POPS   CNO31021  13.095  13.413   8.081  0.2911  0.3207  0.0779
 2564POPS   PO431022  12.924  13.169   7.818 -0.0352 -0.2243 -0.0337
 2564POPS   GL131023  12.979  13.191   7.403 -0.1326  0.1960 -0.2012
 2564POPS   GL231024  13.014  13.337   7.281 -0.0865  0.0675 -0.0347
 2564POPS   C1A31025  12.902  12.843   7.062  0.0509  0.1887  0.0016
 2564POPS   D2A31026  13.107  12.586   6.737 -0.0616 -0.1810  0.0705
 2564POPS   C3A31027  13.055  12.405   6.357  0.1591  0.2272 -0.2182
 2564POPS   C4A31028  13.026  12.127   5.946 -0.0506  0.0944  0.1676
 2564POPS   C1B31029  13.009  13.497   6.875 -0.0681 -0.1791  0.0144
 2564POPS   C2B31030  13.037  13.568   6.414 -0.4065  0.0556  0.0871
 2564POPS   C3B31031  13.151  13.790   6.015  0.3670  0.0842  0.2770
 2564POPS   C4B31032  13.296  14.079   5.693  0.0596 -0.1754 -0.1590
 2565POPS   CNO31033  13.192  17.984   7.550  0.4309  0.1054  0.1497
 2565POPS   PO431034  12.831  18.159   7.581 -0.0013 -0.0883  0.3669
 2565POPS   GL131035  12.994  18.229   7.234 -0.0062 -0.0297  0.5925
 2565POPS   GL231036  13.186  18.068   7.011 -0.0335 -0.0894  0.0971
 2565POPS   C1A31037  12.904  18.388   6.827 -0.1159 -0.1660  0.1439
 2565POPS   D2A31038  12.764  18.575   6.418  0.1303 -0.1535 -0.1204
 2565POPS   C3A31039  12.973  18.857   6.121 -0.0720 -0.0947 -0.1932
 2565POPS   C4A31040  13.396  19.118   6.210  0.1831 -0.0648 -0.0975
 2565POPS   C1B31041  13.218  18.094   6.507 -0.2653 -0.0941 -0.1267
 2565POPS   C2B31042  13.527  18.013   6.196  0.1596 -0.0057  0.1109
 2565POPS   C3B31043  13.578  17.697   5.860 -0.0197 -0.0884  0.0908
 2565POPS   C4B31044  13.881  17.422   5.542  0.0975 -0.1793 -0.2372
 2566POPS   CNO31045  12.523  17.211   7.592 -0.2346 -0.1683  0.2558
 2566POPS   PO431046  12.188  17.179   7.774  0.1742 -0.4071  0.3471
 2566POPS   GL131047  12.027  17.028   7.390  0.0869 -0.0465  0.2010
 2566POPS   GL231048  11.791  17.128   7.472  0.0395  0.1108 -0.0415
 2566POPS   C1A31049  11.855  17.136   6.992 -0.1726 -0.2069  0.2417
 2566POPS   D2A31050  11.610  17.120   6.635  0.3798 -0.1285  0.1558
 2566POPS   C3A31051  11.361  17.466   6.400  0.0718 -0.0894  0.0822
 2566POPS   C4A31052  11.014  17.681   6.210 -0.1349  0.0594 -0.3264
 2566POPS   C1B31053  11.503  16.888   7.238 -0.4656 -0.0358  0.0116
 2566POPS   C2B31054  11.059  16.710   7.194 -0.1654 -0.0772 -0.2985
 2566POPS   C3B31055  10.869  16.514   6.766 -0.0591 -0.2510 -0.2985
 2566POPS   C4B31056  10.772  16.538   6.303  0.1583  0.1946 -0.1677
 2567POPS   CNO31057   8.953  30.585   8.072  0.0830 -0.2123  0.0466
 2567POPS   PO431058   9.011  30.263   7.935  0.2161 -0.3014 -0.0605
 2567POPS   GL131059   8.924  30.460   7.592  0.1602  0.1697 -0.1695
 2567POPS   GL231060   8.754  30.702   7.619  0.2229 -0.0905  0.2733
 2567POPS   C1A31061   9.071  30.665   7.194  0.0499  0.2097 -0.2265
 2567POPS   D2A31062   8.963  30.753   6.742  0.1457  0.1894  0.0108
 2567POPS   C3A31063   9.084  30.345   6.470  0.0645  0.0301 -0.1958
 2567POPS   C4A31064   9.154  29.908   6.235 -0.1147  0.2014  0.0908
 2567POPS   C1B31065   8.602  30.432   7.279 -0.1322  0.3164 -0.5127
 2567POPS   C2B31066   8.715  30.339   6.835 -0.0076 -0.1921 -0.2296
 2567POPS   C3B31067   8.521  30.480   6.392  0.3083 -0.1347 -0.1692
 2567POPS   C4B31068   8.707  30.635   6.024 -0.0578  0.2533 -0.2019
 2568POPS   CNO31069  12.861  11.895   7.847 -0.4312 -0.0603  0.3438
 2568POPS   PO431070  12.819  12.268   7.787 -0.0807  0.1463 -0.1646
 2568POPS   GL131071  12.914  12.286   7.430 -0.2574  0.1601 -0.1355
 2568POPS   GL231072  13.112  12.391   7.221 -0.2048 -0.2583  0.2273
 2568POPS   C1A31073  12.671  12.244   7.037 -0.2081  0.1719 -0.0547
 2568POPS   D2A31074  12.670  12.285   6.617  0.0903 -0.1796  0.2936
 2568POPS   C3A31075  12.763  11.929   6.287 -0.3055  0.2004  0.1740
 2568POPS   C4A31076  12.717  11.666   5.941  0.2298 -0.1230  0.0595
 2568POPS   C1B31077  13.097  12.055   6.854 -0.1835 -0.2225 -0.1447
 2568POPS   C2B31078  13.276  11.977   6.471  0.1222  0.1753 -0.0625
 2568POPS   C3B31079  13.216  11.714   6.108  0.0249 -0.1567  0.0782
 2568POPS   C4B31080  13.099  11.598   5.657 -0.0075  0.1672 -0.1308
 2569POPS   CNO31081  12.615  15.000   7.937  0.0546 -0.0248 -0.2154
 2569POPS   PO431082  12.822  14.710   7.867 -0.0600  0.2910  0.0421
 2569POPS   GL131083  12.668  14.896   7.439  0.0150  0.3859  0.0589
 2569POPS   GL231084  12.389  15.042   7.516  0.2445 -0.0899 -0.0565
 2569POPS   C1A31085  12.373  14.758   7.099 -0.0272 -0.0029 -0.0294
 2569POPS   D2A31086  12.309  14.877   6.645  0.0312  0.0226  0.0293
 2569POPS   C3A31087  12.547  14.959   6.287 -0.1942 -0.0583 -0.2859
 2569POPS   C4A31088  12.936  15.060   6.142 -0.4267 -0.2459 -0.1750
 2569POPS   C1B31089  12.308  15.272   7.093  0.0618 -0.2722 -0.0164
 2569POPS   C2B31090  12.011  15.266   6.738 -0.2558 -0.1971 -0.0616
 2569POPS   C3B31091  11.977  15.158   6.288  0.1715  0.1269 -0.1748
 2569POPS   C4B31092  12.142  14.916   5.925 -0.0308 -0.0101 -0.0642
 2570POPS   CNO31093   4.034  12.901   8.274  0.1420  0.2352  0.0799
 2570POPS   PO431094   3.784  12.948   8.028 -0.0579 -0.4509  0.0019
 2570POPS   GL131095   3.770  12.993   7.618  0.0642 -0.0985  0.0146
 2570POPS   GL231096   3.576  13.216   7.566  0.0071 -0.1207 -0.3915
 2570POPS   C1A31097   3.779  12.996   7.136 -0.1857  0.4850  0.2459
 2570POPS   D2A31098   3.823  13.024   6.632  0.2192  0.0052  0.1003
 2570POPS   C3A31099   4.192  12.863   6.365 -0.1016 -0.3376 -0.0451
 2570POPS   C4A31100   4.565  12.924   6.133 -0.1445 -0.1098  0.0971
 2570POPS   C1B31101   3.663  13.455   7.194  0.2157  0.1676  0.0411
 2570POPS   C2B31102   3.998  13.450   6.798 -0.2640  0.1530 -0.0401
 2570POPS   C3B31103   4.081  13.446   6.338 -0.0884 -0.1783 -0.1118
 2570POPS   C4B31104   4.110  13.187   5.974 -0.0854  0.2473 -0.0237
 2571POPS   CNO31105  14.545  12.218   8.161 -0.2905  0.0585  0.3379
 2571POPS   PO431106  14.656  11.923   8.404 -0.1600 -0.2878  0.1083
 2571POPS   GL131107  14.711  11.781   7.962 -0.0191  0.0900  0.0118
 2571POPS   GL231108  14.974  11.710   7.856  0.0428  0.2324 -0.0283
 2571POPS   C1A31109  14.444  11.625   7.590  0.0977  0.0839  0.0121
 2571POPS   D2A31110  14.217  11.319   7.208  0.0567 -0.2954  0.0359
 2571POPS   C3A31111  14.054  10.917   7.141 -0.2330  0.2002 -0.3534
 2571POPS   C4A31112  13.831  10.456   7.184  0.3188 -0.1857  0.2134
 2571POPS   C1B31113  15.085  11.717   7.392  0.2324  0.3256  0.2772
 2571POPS   C2B31114  14.908  11.598   7.024  0.1049 -0.2177  0.1507
 2571POPS   C3B31115  14.889  11.623   6.560  0.0070 -0.1779  0.1842
 2571POPS   C4B31116  15.127  11.456   6.165  0.0773  0.0078  0.0695
 2572POPS   CNO31117  15.257   6.654   8.082  0.0038 -0.0322  0.2254
 2572POPS   PO431118  14.868   6.534   8.041  0.1029 -0.0126  0.0083
 2572POPS   GL131119  14.807   6.074   7.911  0.0737 -0.1573  0.4851
 2572POPS   GL231120  14.941   5.930   8.154 -0.0287 -0.1010 -0.1710
 2572POPS   C1A31121  14.752   5.758   7.577  0.2457 -0.1610 -0.0468
 2572POPS   D2A31122  14.721   5.525   7.187 -0.0778 -0.1221 -0.1251
 2572POPS   C3A31123  14.308   5.511   6.932 -0.0503  0.0504  0.0777
 2572POPS   C4A31124  14.210   5.249   6.609  0.1387  0.0806 -0.0121
 2572POPS   C1B31125  14.534   5.675   8.056 -0.2086 -0.0402 -0.3584
 2572POPS   C2B31126  14.285   5.580   7.716 -0.0784 -0.0939  0.0903
 2572POPS   C3B31127  14.184   5.334   7.385  0.0677 -0.1087  0.1956
 2572POPS   C4B31128  14.053   5.001   7.116  0.0498  0.1134 -0.0715
 2573POPS   CNO31129  15.815   6.098   8.201  0.0510 -0.2369 -0.2503
 2573POPS   PO431130  15.753   6.163   7.819 -0.0005 -0.3390 -0.1321
 2573POPS   GL131131  15.668   5.950   7.522  0.0806 -0.1453  0.2296
 2573POPS   GL231132  15.654   5.650   7.433  0.1410  0.1274 -0.2269
 2573POPS   C1A31133  15.586   5.974   7.066  0.0700 -0.0133 -0.0134
 2573POPS   D2A31134  15.332   6.198   6.829  0.1156 -0.1459  0.5388
 2573POPS   C3A31135  15.357   6.257   6.334 -0.0587  0.2022 -0.2231
 2573POPS   C4A31136  15.304   5.957   5.974 -0.1597  0.0989 -0.2898
 2573POPS   C1B31137  15.344   5.493   7.165 -0.0745 -0.2240 -0.3106
 2573POPS   C2B31138  15.228   5.393   6.730 -0.1832  0.0346 -0.3511
 2573POPS   C3B31139  14.941   5.136   6.536  0.1849 -0.4347 -0.3571
 2573POPS   C4B31140  14.539   4.896   6.372 -0.7227  0.1526  0.3766
 2574POPS   CNO31141   4.113  18.543   7.232  0.2085 -0.1193 -0.2388
 2574POPS   PO431142   4.329  18.308   7.060  0.0670 -0.0103  0.0692
 2574POPS   GL131143   4.149  18.478   6.746  0.2360  0.0038  0.3387
 2574POPS   GL231144   4.187  18.766   6.714  0.1650  0.1487  0.0986
 2574POPS   C1A31145   3.744  18.690   6.572  0.0732 -0.2519  0.2064
 2574POPS   D2A31146   3.575  18.614   6.132  0.1395 -0.0870 -0.1330
 2574POPS   C3A31147   3.594  18.224   5.942  0.1394 -0.1409 -0.1351
 2574POPS   C4A31148   3.457  18.115   5.538 -0.2113 -0.2541 -0.1984
 2574POPS   C1B31149   4.583  18.701   6.464 -0.0860  0.2423  0.3391
 2574POPS   C2B31150   4.696  18.567   6.015 -0.1691 -0.2433 -0.0519
 2574POPS   C3B31151   4.866  18.430   5.630  0.2683  0.0645 -0.3073
 2574POPS   C4B31152   5.065  18.110   5.334  0.0301  0.1129  0.0526
 2575POPS   CNO31153  15.228  27.974   8.031  0.0022  0.2132 -0.1100
 2575POPS   PO431154  15.576  27.938   7.924  0.0036  0.4233  0.0923
 2575POPS   GL131155  15.531  27.793   7.440 -0.0937  0.2415 -0.2913
 2575POPS   GL231156  15.550  28.052   7.295  0.0745 -0.1615 -0.3674
 2575POPS   C1A31157  15.700  27.493   7.138  0.2331 -0.4546 -0.1495
 2575POPS   D2A31158  15.585  27.526   6.660 -0.2571 -0.0176  0.1170
 2575POPS   C3A31159  15.545  27.306   6.247 -0.1517 -0.2435 -0.0462
 2575POPS   C4A31160  15.533  27.131   5.836  0.3460 -0.0885 -0.0721
 2575POPS   C1B31161  15.910  27.930   7.002 -0.4389 -0.2210  0.0713
 2575POPS   C2B31162  16.341  28.032   6.790 -0.0277  0.0878  0.1341
 2575POPS   C3B31163  16.532  28.368   6.465  0.0479 -0.0827 -0.0818
 2575POPS   C4B31164  16.909  28.494   6.240  0.3265  0.1579 -0.0138
 2576POPS   CNO31165  11.613  19.860   7.488 -0.0749  0.0375 -0.0574
 2576POPS   PO431166  11.379  20.128   7.587 -0.1166  0.1931  0.0588
 2576POPS   GL131167  11.347  20.194   7.245  0.1030  0.0019  0.7204
 2576POPS   GL231168  11.615  20.123   7.096  0.0382 -0.2175  0.0301
 2576POPS   C1A31169  11.055  20.334   6.952 -0.2718 -0.0715  0.2629
 2576POPS   D2A31170  10.728  20.310   6.677  0.0684  0.0749  0.0356
 2576POPS   C3A31171  10.327  20.166   6.581  0.3465  0.1458 -0.3283
 2576POPS   C4A31172   9.886  20.081   6.416 -0.1630 -0.0055 -0.0636
 2576POPS   C1B31173  11.497  20.333   6.701  0.1586  0.0167  0.1620
 2576POPS   C2B31174  11.718  20.289   6.265 -0.2301  0.0491  0.2550
 2576POPS   C3B31175  11.896  20.324   5.891 -0.1120 -0.2047 -0.1061
 2576POPS   C4B31176  11.872  20.578   5.471  0.1839 -0.3998  0.1276
 2577POPS   CNO31177  13.980   3.142   8.293  0.1290  0.1287 -0.0758
 2577POPS   PO431178  13.758   2.904   8.088 -0.2387 -0.1003 -0.1354
 2577POPS   GL131179  13.978   3.238   7.804 -0.0741 -0.0697  0.1650
 2577POPS   GL231180  13.846   3.443   7.909  0.1311  0.2028 -0.3545
 2577POPS   C1A31181  14.097   3.582   7.433  0.2323  0.0512  0.2826
 2577POPS   D2A31182  14.506   3.761   7.359 -0.1132 -0.2557  0.1158
 2577POPS   C3A31183  14.934   3.777   7.554 -0.1879  0.0710 -0.2427
 2577POPS   C4A31184  15.365   3.749   7.434 -0.2878 -0.5076  0.0481
 2577POPS   C1B31185  13.909   3.896   7.821 -0.1027 -0.1129 -0.1657
 2577POPS   C2B31186  14.026   4.185   7.517 -0.2020  0.1903 -0.0163
 2577POPS   C3B31187  14.035   4.475   7.182  0.0057 -0.1151 -0.2078
 2577POPS   C4B31188  13.728   4.640   6.886 -0.0395 -0.0302 -0.4528
 2578POPS   CNO31189   8.750  11.288   8.060 -0.0406 -0.1823  0.0449
 2578POPS   PO431190   8.590  11.591   7.871 -0.1579 -0.1303  0.1220
 2578POPS   GL131191   8.766  11.635   7.434 -0.1311  0.3288 -0.3272
 2578POPS   GL231192   8.833  11.288   7.439 -0.0054  0.1711  0.0132
 2578POPS   C1A31193   8.696  11.836   7.011 -0.0368  0.2314 -0.2718
 2578POPS   D2A31194   8.822  11.924   6.566 -0.1515  0.2267 -0.1688
 2578POPS   C3A31195   8.791  11.611   6.156 -0.3658  0.1480 -0.2885
 2578POPS   C4A31196   8.968  11.528   5.768 -0.2493  0.4356 -0.0687
 2578POPS   C1B31197   8.925  11.398   6.995 -0.1343 -0.0556 -0.2035
 2578POPS   C2B31198   8.999  11.433   6.572 -0.3134 -0.2315 -0.2923
 2578POPS   C3B31199   8.976  11.144   6.201  0.1133  0.2487 -0.3399
 2578POPS   C4B31200   9.141  11.057   5.784  0.0772 -0.0724  0.1785
 2579POPS   CNO31201   0.904   8.735   8.157 -0.0973  0.2200 -0.0895
 2579POPS   PO431202   0.945   8.457   7.910  0.3331  0.1161  0.0818
 2579POPS   GL131203   0.880   8.536   7.533 -0.0771  0.1835  0.4293
 2579POPS   GL231204   0.695   8.377   7.443  0.2837 -0.1495 -0.2869
 2579POPS   C1A31205   0.639   8.808   7.211  0.0777  0.2202  0.4402
 2579POPS   D2A31206   0.511   8.643   6.751  0.0367 -0.1513 -0.0282
 2579POPS   C3A31207   0.542   8.789   6.292 -0.0842  0.4849  0.3443
 2579POPS   C4A31208   0.755   9.123   5.971  0.3080  0.1354 -0.3112
 2579POPS   C1B31209   0.623   8.223   6.945  0.2148 -0.1156 -0.1349
 2579POPS   C2B31210   0.803   8.283   6.561 -0.0233 -0.0788  0.2083
 2579POPS   C3B31211   0.971   8.543   6.236  0.3387 -0.0883 -0.1207
 2579POPS   C4B31212   1.272   8.834   5.965  0.1024  0.0345  0.0824
 2580POPS   CNO31213   7.805  27.941   8.353  0.2950  0.0467 -0.0411
 2580POPS   PO431214   8.011  27.742   8.117  0.1954 -0.3054 -0.4729
 2580POPS   GL131215   8.360  27.630   8.047  0.3311  0.1472 -0.0416
 2580POPS   GL231216   8.360  27.433   7.840  0.2218  0.1404 -0.1725
 2580POPS   C1A31217   8.809  27.660   8.093 -0.1112 -0.2240  0.1783
 2580POPS   D2A31218   9.250  27.617   7.914 -0.0670  0.0983 -0.1814
 2580POPS   C3A31219   9.351  27.842   8.258  0.1084  0.0981  0.0165
 2580POPS   C4A31220   9.251  28.330   8.413 -0.2015  0.0119  0.1915
 2580POPS   C1B31221   8.437  27.893   7.717 -0.0080  0.1740  0.2919
 2580POPS   C2B31222   8.428  28.192   7.372  0.1319 -0.1575  0.0661
 2580POPS   C3B31223   8.190  28.221   6.945 -0.0559 -0.0749 -0.0701
 2580POPS   C4B31224   8.197  28.151   6.463 -0.1499  0.2347 -0.1292
 2581POPS   CNO31225   9.037   3.570   7.935  0.2946  0.1902 -0.1839
 2581POPS   PO431226   9.031   3.603   7.552  0.1681 -0.1328 -0.0135
 2581POPS   GL131227   9.079   3.582   7.140 -0.2564 -0.0834 -0.1940
 2581POPS   GL231228   9.349   3.724   6.999 -0.0346 -0.2907  0.0001
 2581POPS   C1A31229   8.965   3.258   6.867  0.0570 -0.0807  0.0233
 2581POPS   D2A31230   8.612   3.297   6.565 -0.0910 -0.0936  0.1301
 2581POPS   C3A31231   8.540   3.147   6.139  0.1172 -0.0508  0.1746
 2581POPS   C4A31232   8.726   2.736   6.043  0.1558  0.1541 -0.0831
 2581POPS   C1B31233   9.423   3.602   6.569 -0.0257  0.0049 -0.4576
 2581POPS   C2B31234   9.438   3.646   6.137  0.2668  0.0396 -0.1763
 2581POPS   C3B31235   9.272   3.640   5.662 -0.0507  0.0397 -0.0266
 2581POPS   C4B31236   8.994   3.372   5.394 -0.0189  0.0582  0.0925
 2582POPS   CNO31237   4.045  18.020   7.448 -0.1172 -0.2166 -0.2670
 2582POPS   PO431238   3.859  18.008   7.083  0.0318 -0.2932  0.2068
 2582POPS   GL131239   3.895  18.115   6.751  0.0571 -0.0884  0.2396
 2582POPS   GL231240   4.167  18.040   6.661  0.0839 -0.0159 -0.1775
 2582POPS   C1A31241   3.972  18.315   6.300  0.0212  0.0737 -0.1722
 2582POPS   D2A31242   4.126  18.716   6.228  0.4459 -0.0688  0.0472
 2582POPS   C3A31243   4.165  19.168   6.405 -0.3605 -0.0109 -0.0172
 2582POPS   C4A31244   4.191  19.529   6.156  0.1652  0.1165  0.2413
 2582POPS   C1B31245   4.457  18.274   6.378 -0.0570  0.2935  0.0939
 2582POPS   C2B31246   4.900  18.222   6.224 -0.0780 -0.0709  0.4023
 2582POPS   C3B31247   5.213  18.112   5.938  0.0203  0.3620 -0.2660
 2582POPS   C4B31248   5.629  18.272   5.693  0.0297  0.1549  0.0630
 2583POPS   CNO31249  14.015  18.078   7.679 -0.1571 -0.0214  0.0250
 2583POPS   PO431250  14.076  18.050   7.321  0.1372  0.0169  0.1465
 2583POPS   GL131251  14.171  17.880   7.045  0.2594  0.2460 -0.0931
 2583POPS   GL231252  14.092  17.599   6.947 -0.0301 -0.0300 -0.3000
 2583POPS   C1A31253  14.286  17.974   6.663 -0.4693 -0.0622 -0.0271
 2583POPS   D2A31254  14.205  17.887   6.235  0.0454 -0.0821 -0.0226
 2583POPS   C3A31255  14.532  17.717   5.976 -0.3458 -0.1331 -0.0254
 2583POPS   C4A31256  14.901  17.614   5.711 -0.2302 -0.0360 -0.3820
 2583POPS   C1B31257  14.164  17.487   6.524  0.0940  0.1825  0.1936
 2583POPS   C2B31258  14.107  17.398   6.045 -0.1197 -0.1087  0.2162
 2583POPS   C3B31259  13.821  17.036   5.879  0.1109  0.4240  0.1992
 2583POPS   C4B31260  13.556  16.722   5.698  0.1344 -0.1867  0.0444
 2584POPS   CNO31261  11.060  11.189   7.625  0.2062  0.0331 -0.0704
 2584POPS   PO431262  11.292  10.981   7.419  0.0380  0.2582  0.0250
 2584POPS   GL131263  11.228  10.584   7.285  0.1359 -0.0825  0.4444
 2584POPS   GL231264  10.936  10.511   7.350 -0.1285 -0.0067 -0.1654
 2584POPS   C1A31265  11.079  10.405   6.841 -0.0705  0.0114 -0.1092
 2584POPS   D2A31266  11.193  10.460   6.383  0.1821  0.3877  0.1541
 2584POPS   C3A31267  10.932  10.524   6.069 -0.4087 -0.0778 -0.1335
 2584POPS   C4A31268  10.617  10.273   5.773 -0.0285  0.1507 -0.3777
 2584POPS   C1B31269  10.655  10.474   6.959  0.0645  0.0076 -0.0003
 2584POPS   C2B31270  10.680  10.384   6.445 -0.0283 -0.3518 -0.0562
 2584POPS   C3B31271  10.395  10.617   6.098  0.1789 -0.1580 -0.1292
 2584POPS   C4B31272  10.155  10.452   5.756 -0.3122 -0.0553  0.1673
 2585POPS   CNO31273   4.518   0.432   8.083 -0.2700 -0.0683  0.0790
 2585POPS   PO431274   4.298   0.191   7.881 -0.0976 -0.1656 -0.1108
 2585POPS   GL131275   4.028   0.168   7.603 -0.0074 -0.2903  0.1108
 2585POPS   GL231276   4.088   0.218   7.352  0.1318 -0.0921  0.1873
 2585POPS   C1A31277   3.874  -0.236   7.323 -0.1416 -0.0467 -0.1129
 2585POPS   D2A31278   3.623  -0.605   7.204 -0.0049  0.1379  0.0607
 2585POPS   C3A31279   3.524  -0.755   6.788  0.1706  0.0734  0.1065
 2585POPS   C4A31280   3.285  -1.086   6.741  0.0607  0.0776 -0.1886
 2585POPS   C1B31281   3.888   0.107   6.998 -0.2922 -0.2072 -0.0762
 2585POPS   C2B31282   3.638   0.168   6.626  0.2447  0.0765  0.1123
 2585POPS   C3B31283   3.568   0.395   6.207 -0.1686 -0.2919 -0.0566
 2585POPS   C4B31284   3.776   0.506   5.851  0.2550 -0.5425  0.1186
 2586POPS   CNO31285   6.308   6.434   7.862  0.2632 -0.1613 -0.2361
 2586POPS   PO431286   6.101   6.323   7.538  0.1170  0.0386 -0.3065
 2586POPS   GL131287   6.073   6.519   7.184  0.1734 -0.3144 -0.0212
 2586POPS   GL231288   5.769   6.608   7.142  0.1238 -0.2596  0.1873
 2586POPS   C1A31289   6.103   6.949   6.977 -0.1106  0.4335 -0.3977
 2586POPS   D2A31290   6.498   7.113   6.793 -0.0172  0.0748  0.0552
 2586POPS   C3A31291   6.784   7.432   6.906 -0.0041  0.1204  0.1253
 2586POPS   C4A31292   6.934   7.812   7.119  0.1563  0.0822  0.2344
 2586POPS   C1B31293   5.524   6.402   6.761  0.1302 -0.0468 -0.0910
 2586POPS   C2B31294   5.455   5.984   6.655  0.0289  0.2430  0.0604
 2586POPS   C3B31295   5.756   5.775   6.406  0.1105  0.1044  0.1211
 2586POPS   C4B31296   5.994   5.467   6.179  0.1225 -0.2078 -0.1435
 2587POPS   CNO31297  11.500  30.714   8.465 -0.1566 -0.0589  0.0657
 2587POPS   PO431298  11.659  30.653   8.143 -0.3884 -0.0531  0.2239
 2587POPS   GL131299  11.598  30.919   7.803 -0.1544 -0.0844  0.2454
 2587POPS   GL231300  11.645  31.160   7.980 -0.1267  0.0971 -0.1986
 2587POPS   C1A31301  11.724  30.770   7.370 -0.0791  0.0114 -0.0779
 2587POPS   D2A31302  11.480  30.905   6.949 -0.2486  0.1730 -0.1992
 2587POPS   C3A31303  11.286  31.341   7.015 -0.2090 -0.0010  0.3386
 2587POPS   C4A31304  11.312  31.808   6.878 -0.1468 -0.0009  0.0398
 2587POPS   C1B31305  11.749  31.261   7.586  0.2560 -0.0970 -0.1182
 2587POPS   C2B31306  11.817  31.214   7.112 -0.0007  0.2984  0.5542
 2587POPS   C3B31307  11.811  31.095   6.639  0.1554 -0.0245  0.2780
 2587POPS   C4B31308  11.803  31.109   6.157 -0.0004 -0.0739  0.1576
 2588POPS   CNO31309   8.389  12.242   8.087 -0.0532 -0.0502 -0.0873
 2588POPS   PO431310   8.093  12.299   7.802 -0.0854 -0.1400  0.1177
 2588POPS   GL131311   8.215  12.048   7.412 -0.0190 -0.0128 -0.1032
 2588POPS   GL231312   8.373  12.156   7.199 -0.1096 -0.1269 -0.0158
 2588POPS   C1A31313   7.908  11.796   7.189  0.2178  0.2149 -0.0266
 2588POPS   D2A31314   7.947  11.503   6.846  0.0600  0.2331  0.3097
 2588POPS   C3A31315   7.651  11.572   6.493 -0.0056 -0.1768  0.1357
 2588POPS   C4A31316   7.384  11.680   6.139  0.0063  0.0197 -0.1349
 2588POPS   C1B31317   8.158  12.042   6.788  0.2913  0.1917  0.0355
 2588POPS   C2B31318   8.233  12.108   6.379  0.2665 -0.2459  0.1669
 2588POPS   C3B31319   8.330  11.917   5.959  0.1136 -0.0418 -0.1467
 2588POPS   C4B31320   8.267  11.539   5.726 -0.1595 -0.2171 -0.1232
 2589POPS   CNO31321  10.787  29.774   8.127 -0.2667 -0.0960  0.0072
 2589POPS   PO431322  10.567  29.960   7.913  0.3230  0.2583  0.0463
 2589POPS   GL131323  10.423  30.042   7.618  0.0241 -0.3149  0.3669
 2589POPS   GL231324  10.158  30.200   7.503 -0.0167 -0.3611 -0.0004
 2589POPS   C1A31325  10.567  29.894   7.180  0.3892  0.2042 -0.2007
 2589POPS   D2A31326  10.687  29.965   6.750 -0.2617 -0.2455  0.2887
 2589POPS   C3A31327  10.466  29.720   6.408 -0.0139  0.0523  0.4252
 2589POPS   C4A31328  10.378  29.622   5.989 -0.0896  0.3146  0.2494
 2589POPS   C1B31329  10.464  30.393   7.155  0.2435 -0.0990  0.3468
 2589POPS   C2B31330  10.624  30.457   6.732  0.1074  0.0052  0.0547
 2589POPS   C3B31331  10.628  30.225   6.337  0.0553  0.1290 -0.0109
 2589POPS   C4B31332  10.919  29.916   6.231 -0.3655  0.0512 -0.1695
 2590POPS   CNO31333   6.122   1.666   7.513 -0.0215 -0.0743  0.0537
 2590POPS   PO431334   6.351   1.884   7.735 -0.2353 -0.0618  0.4771
 2590POPS   GL131335   6.368   2.010   7.344  0.2352  0.2577 -0.0778
 2590POPS   GL231336   6.701   2.133   7.285 -0.0288  0.5304  0.1838
 2590POPS   C1A31337   6.071   2.004   6.933 -0.0808 -0.3460 -0.0160
 2590POPS   D2A31338   5.807   1.667   6.856  0.2249  0.3610 -0.0059
 2590POPS   C3A31339   5.560   1.561   6.503 -0.0860 -0.1294  0.0498
 2590POPS   C4A31340   5.390   1.866   6.196 -0.1905  0.1696 -0.1853
 2590POPS   C1B31341   6.673   2.030   6.846  0.1413 -0.2657 -0.1509
 2590POPS   C2B31342   6.368   2.003   6.539 -0.0023  0.2583 -0.0716
 2590POPS   C3B31343   5.996   1.859   6.303 -0.2970  0.0666  0.1651
 2590POPS   C4B31344   5.773   1.861   5.872  0.1521 -0.0592 -0.0481
 2591POPS   CNO31345   4.213  30.195   7.936  0.0792  0.0864  0.0317
 2591POPS   PO431346   4.185  29.824   7.753 -0.2097 -0.1822 -0.0886
 2591POPS   GL131347   4.003  29.707   7.384 -0.1409 -0.0167 -0.0930
 2591POPS   GL231348   4.238  29.745   7.283  0.0890 -0.1045  0.3017
 2591POPS   C1A31349   3.819  29.914   7.017 -0.2108 -0.1363 -0.1824
 2591POPS   D2A31350   3.672  29.890   6.645  0.0181 -0.0249  0.2759
 2591POPS   C3A31351   3.801  30.123   6.233  0.2327 -0.2527  0.1698
 2591POPS   C4A31352   3.668  30.126   5.723  0.0005 -0.5507  0.2297
 2591POPS   C1B31353   4.181  29.618   6.821 -0.3682  0.3459 -0.2681
 2591POPS   C2B31354   4.003  29.635   6.447 -0.1173  0.0709  0.2000
 2591POPS   C3B31355   4.230  29.533   6.106 -0.0646 -0.2252 -0.2094
 2591POPS   C4B31356   4.198  29.250   5.744  0.0251  0.0119  0.1396
 2592POPS   CNO31357   6.605  15.057   7.844  0.0821  0.2337 -0.0823
 2592POPS   PO431358   6.919  15.131   8.093  0.2657  0.0668 -0.3720
 2592POPS   GL131359   7.204  15.189   7.711  0.3261 -0.0446 -0.1634
 2592POPS   GL231360   6.942  15.155   7.517  0.1147  0.0087  0.0399
 2592POPS   C1A31361   7.374  14.902   7.440  0.0845 -0.1645  0.0503
 2592POPS   D2A31362   7.381  14.452   7.483 -0.0769  0.1953  0.1343
 2592POPS   C3A31363   7.370  14.246   7.050  0.1838  0.0190  0.0383
 2592POPS   C4A31364   7.655  14.240   6.697  0.1127  0.0169  0.0955
 2592POPS   C1B31365   7.122  15.155   7.088  0.0772  0.0672 -0.1731
 2592POPS   C2B31366   7.353  15.209   6.704 -0.0473  0.2699  0.1001
 2592POPS   C3B31367   7.673  15.237   6.395  0.0061 -0.0104  0.0302
 2592POPS   C4B31368   8.093  15.002   6.324  0.0668 -0.1234  0.2668
 2593POPS   CNO31369  13.242  23.190   7.735 -0.1135  0.0950  0.1714
 2593POPS   PO431370  13.232  23.439   7.465 -0.0175  0.0657  0.0844
 2593POPS   GL131371  13.044  23.335   7.122 -0.1392  0.0686 -0.1643
 2593POPS   GL231372  13.214  23.198   6.899 -0.1977  0.0968 -0.0099
 2593POPS   C1A31373  12.835  23.505   6.752 -0.0251  0.2740 -0.0249
 2593POPS   D2A31374  12.664  23.448   6.299 -0.1551 -0.0838 -0.3712
 2593POPS   C3A31375  12.926  23.539   5.973 -0.2794 -0.2897  0.3773
 2593POPS   C4A31376  13.200  23.671   5.545 -0.0548 -0.1373  0.2423
 2593POPS   C1B31377  12.886  23.049   6.571 -0.1652 -0.2615  0.4962
 2593POPS   C2B31378  12.669  22.973   6.167  0.0399 -0.0202 -0.0710
 2593POPS   C3B31379  12.508  23.259   5.892 -0.0617  0.1775  0.1709
 2593POPS   C4B31380  12.212  23.583   5.942 -0.0559  0.0172  0.2050
 2594POPS   CNO31381   8.939  31.560   7.311  0.2067  0.1922  0.2078
 2594POPS   PO431382   8.699  31.838   7.409 -0.0234  0.0503  0.1678
 2594POPS   GL131383   8.606  31.652   7.050  0.2616  0.3255 -0.2530
 2594POPS   GL231384   8.486  31.431   7.209  0.3024 -0.0614  0.0435
 2594POPS   C1A31385   8.380  31.694   6.678 -0.3895  0.2836 -0.0479
 2594POPS   D2A31386   8.281  31.468   6.232 -0.0191  0.1225 -0.5156
 2594POPS   C3A31387   8.237  31.294   5.807  0.0159  0.0428  0.1051
 2594POPS   C4A31388   8.390  31.257   5.352 -0.0114 -0.1750 -0.4676
 2594POPS   C1B31389   8.669  31.204   6.844 -0.1366  0.1197 -0.1087
 2594POPS   C2B31390   8.746  31.510   6.439 -0.2054  0.1819 -0.1652
 2594POPS   C3B31391   8.875  31.534   5.936  0.0708  0.0589  0.3806
 2594POPS   C4B31392   9.028  31.283   5.598  0.0636  0.0360 -0.3692
 2595POPS   CNO31393   9.156  13.050   7.679 -0.0889  0.3290  0.0860
 2595POPS   PO431394   8.939  13.326   7.842 -0.1060 -0.1584 -0.2243
 2595POPS   GL131395   8.979  13.373   7.382 -0.0057  0.3182  0.0976
 2595POPS   GL231396   9.224  13.407   7.316 -0.0282  0.0414 -0.2350
 2595POPS   C1A31397   8.833  13.008   7.104 -0.0731 -0.0268  0.2321
 2595POPS   D2A31398   8.581  12.628   7.130  0.0150  0.5009 -0.1490
 2595POPS   C3A31399   8.148  12.554   7.007  0.0772 -0.0363 -0.1834
 2595POPS   C4A31400   7.843  12.580   6.639  0.0596 -0.1264  0.2136
 2595POPS   C1B31401   9.138  13.532   6.832 -0.2355  0.0048 -0.4709
 2595POPS   C2B31402   9.040  13.634   6.385 -0.2495 -0.0290 -0.0427
 2595POPS   C3B31403   9.097  13.911   6.064  0.3307  0.2496 -0.0895
 2595POPS   C4B31404   9.215  14.336   5.911 -0.3071  0.1686 -0.1665
 2596POPS   CNO31405   0.327  13.008   8.474  0.0101  0.1112  0.1107
 2596POPS   PO431406   0.331  12.979   8.130  0.2551  0.2336 -0.0012
 2596POPS   GL131407   0.370  13.035   7.756  0.1264  0.0512  0.2229
 2596POPS   GL231408   0.299  12.803   7.562  0.0363  0.0682 -0.1787
 2596POPS   C1A31409   0.098  13.289   7.425 -0.1759  0.0263 -0.1275
 2596POPS   D2A31410  -0.321  13.084   7.263 -0.0631 -0.1857  0.0944
 2596POPS   C3A31411  -0.432  13.068   6.836 -0.0210  0.2994  0.0394
 2596POPS   C4A31412  -0.605  12.914   6.444  0.3690 -0.0575 -0.0594
 2596POPS   C1B31413   0.191  12.892   7.107  0.0341  0.1247 -0.2834
 2596POPS   C2B31414   0.045  12.773   6.635 -0.1110  0.1380 -0.0848
 2596POPS   C3B31415  -0.186  12.896   6.270 -0.3394 -0.1837 -0.1756
 2596POPS   C4B31416  -0.401  13.170   5.979  0.2075 -0.1708  0.0353
 2597POPS   CNO31417   6.534  26.984   7.791 -0.2678 -0.1093  0.1491
 2597POPS   PO431418   6.541  26.603   7.718 -0.0264 -0.1924  0.1518
 2597POPS   GL131419   6.420  26.675   7.286 -0.2292 -0.0575 -0.0860
 2597POPS   GL231420   6.641  26.854   7.213 -0.0379  0.0521  0.0098
 2597POPS   C1A31421   6.308  26.677   6.839  0.1572  0.0029 -0.0985
 2597POPS   D2A31422   6.096  26.726   6.477  0.4010 -0.0877  0.0992
 2597POPS   C3A31423   6.092  27.143   6.244 -0.2295 -0.0412 -0.0884
 2597POPS   C4A31424   6.213  27.539   6.027 -0.3891  0.2446 -0.3640
 2597POPS   C1B31425   6.784  26.788   6.819 -0.0756 -0.0679 -0.0137
 2597POPS   C2B31426   6.851  26.350   6.554 -0.3766  0.1075  0.2585
 2597POPS   C3B31427   6.900  26.041   6.249  0.1940  0.1423  0.1112
 2597POPS   C4B31428   7.268  25.848   6.083 -0.2332 -0.2103 -0.2231
 2598POPS   CNO31429  14.087  17.574   7.542 -0.0456 -0.2718 -0.0677
 2598POPS   PO431430  14.383  17.484   7.696  0.0531  0.0383  0.6026
 2598POPS   GL131431  14.657  17.347   7.447  0.0974  0.3356  0.1560
 2598POPS   GL231432  14.449  17.364   7.189 -0.0420  0.2619 -0.0727
 2598POPS   C1A31433  14.932  17.548   7.158  0.2361 -0.1329 -0.0771
 2598POPS   D2A31434  15.191  17.434   6.818 -0.0039  0.1187  0.0193
 2598POPS   C3A31435  15.353  17.010   6.652 -0.1018 -0.0544  0.1447
 2598POPS   C4A31436  15.601  16.956   6.267 -0.3842  0.0128 -0.0960
 2598POPS   C1B31437  14.586  17.572   6.829 -0.3402 -0.1460  0.1953
 2598POPS   C2B31438  14.686  17.709   6.391 -0.2991  0.1530  0.0875
 2598POPS   C3B31439  14.714  18.120   6.169 -0.0694 -0.0901  0.1077
 2598POPS   C4B31440  14.399  18.399   6.413 -0.3040 -0.2836 -0.0524
 2599POPS   CNO31441  15.010  30.474   7.759  0.1005  0.2269  0.4104
 2599POPS   PO431442  14.637  30.485   7.731  0.2665  0.1925 -0.1828
 2599POPS   GL131443  14.651  30.614   7.355 -0.4163  0.3558 -0.1790
 2599POPS   GL231444  14.329  30.604   7.270 -0.1282 -0.2066  0.1571
 2599POPS   C1A31445  14.702  30.734   6.902  0.1202 -0.1743  0.0822
 2599POPS   D2A31446  14.572  30.816   6.475  0.0134 -0.1006  0.3184
 2599POPS   C3A31447  14.731  30.854   6.080 -0.0449 -0.2000  0.3179
 2599POPS   C4A31448  14.908  31.079   5.716 -0.1473 -0.1898  0.1772
 2599POPS   C1B31449  14.121  30.611   6.918  0.1401 -0.0042 -0.1269
 2599POPS   C2B31450  14.101  30.995   6.666  0.2047 -0.2697 -0.0464
 2599POPS   C3B31451  13.786  31.194   6.364  0.0976  0.0292  0.2174
 2599POPS   C4B31452  13.526  31.438   6.004 -0.0878  0.1054 -0.3265
 2600POPS   CNO31453   2.774  26.731   7.415  0.0278 -0.1160 -0.1354
 2600POPS   PO431454   3.069  26.527   7.443  0.0562 -0.1066 -0.0233
 2600POPS   GL131455   3.055  26.673   7.038 -0.0320 -0.0759  0.0235
 2600POPS   GL231456   2.966  26.399   6.990  0.0114  0.2378  0.0655
 2600POPS   C1A31457   3.230  26.908   6.733 -0.1745 -0.1606 -0.1610
 2600POPS   D2A31458   3.412  26.863   6.327 -0.0310 -0.0645 -0.1446
 2600POPS   C3A31459   3.133  27.022   5.969  0.1806 -0.1588  0.0008
 2600POPS   C4A31460   2.910  26.759   5.626  0.0124  0.0146  0.1554
 2600POPS   C1B31461   3.040  26.431   6.515  0.1791  0.0419 -0.1382
 2600POPS   C2B31462   3.151  26.529   6.098 -0.1741 -0.0832 -0.1093
 2600POPS   C3B31463   3.310  26.393   5.681  0.1598  0.0236 -0.0218
 2600POPS   C4B31464   3.731  26.268   5.470 -0.0909  0.2329  0.5217
 2601POPS   CNO31465   0.465   2.005   7.977 -0.3416 -0.0890 -0.1055
 2601POPS   PO431466   0.746   2.221   7.849  0.5273 -0.0220  0.0447
 2601POPS   GL131467   0.629   2.224   7.445 -0.4027  0.3275  0.1062
 2601POPS   GL231468   0.510   1.991   7.436 -0.1474  0.2581 -0.1898
 2601POPS   C1A31469   0.699   2.078   6.986 -0.3552 -0.1039 -0.0019
 2601POPS   D2A31470   0.780   2.317   6.604  0.0380 -0.0147  0.1605
 2601POPS   C3A31471   0.828   2.020   6.236  0.1582  0.1149  0.0382
 2601POPS   C4A31472   1.254   1.975   6.131  0.2556  0.0110  0.2848
 2601POPS   C1B31473   0.320   2.301   7.140  0.0536  0.0705 -0.1526
 2601POPS   C2B31474   0.358   2.625   6.788 -0.1986 -0.2294 -0.1584
 2601POPS   C3B31475   0.183   2.814   6.423 -0.1685  0.0830 -0.0825
 2601POPS   C4B31476   0.018   2.980   6.025  0.0221  0.2748 -0.1927
 2602POPS   CNO31477   4.922  30.139   8.030 -0.1183  0.1483 -0.0970
 2602POPS   PO431478   4.648  30.033   7.785  0.1398 -0.4087 -0.2174
 2602POPS   GL131479   4.665  30.097   7.409  0.0849  0.0406 -0.1698
 2602POPS   GL231480   4.467  30.202   7.390 -0.0886  0.1912 -0.0526
 2602POPS   C1A31481   4.708  29.807   7.054  0.2158 -0.0745 -0.0409
 2602POPS   D2A31482   4.587  29.878   6.594 -0.0664 -0.0561  0.1686
 2602POPS   C3A31483   4.713  29.740   6.120  0.0042  0.0712  0.0060
 2602POPS   C4A31484   4.695  29.358   5.929  0.0345  0.4876 -0.3399
 2602POPS   C1B31485   4.288  30.158   6.998  0.0720 -0.0976  0.2797
 2602POPS   C2B31486   4.177  30.152   6.540 -0.0354 -0.0313  0.0552
 2602POPS   C3B31487   4.231  30.177   6.059  0.1470  0.0766 -0.1883
 2602POPS   C4B31488   4.334  30.473   5.756  0.2614 -0.1171  0.2859
 2603POPS   CNO31489  13.420  21.325   7.987 -0.3275 -0.1598 -0.0303
 2603POPS   PO431490  13.400  21.267   7.583 -0.0418 -0.1285  0.0840
 2603POPS   GL131491  13.647  21.411   7.247 -0.2886  0.5760  0.0978
 2603POPS   GL231492  13.936  21.309   7.194 -0.0708 -0.2280  0.2522
 2603POPS   C1A31493  13.583  21.407   6.756 -0.0935 -0.1037 -0.0149
 2603POPS   D2A31494  13.592  21.479   6.282  0.0110  0.2931 -0.1381
 2603POPS   C3A31495  13.319  21.369   5.923 -0.5337  0.4293 -0.0874
 2603POPS   C4A31496  13.075  21.631   5.688  0.1826 -0.0070 -0.2294
 2603POPS   C1B31497  14.023  21.146   6.759  0.0607  0.0371  0.0457
 2603POPS   C2B31498  13.976  21.190   6.295  0.0544  0.1068 -0.1630
 2603POPS   C3B31499  13.776  21.026   5.941 -0.2976 -0.1730  0.0820
 2603POPS   C4B31500  13.887  20.894   5.505 -0.0869  0.3507  0.0944
 2604POPS   CNO31501  15.717   8.646   7.972 -0.0112  0.0096  0.0245
 2604POPS   PO431502  15.478   8.760   7.657 -0.2191  0.0559  0.1866
 2604POPS   GL131503  15.663   8.945   7.318 -0.1918 -0.2238  0.0032
 2604POPS   GL231504  15.481   9.111   7.222 -0.0012  0.1343  0.1942
 2604POPS   C1A31505  15.509   8.734   6.864  0.0281  0.3778  0.1553
 2604POPS   D2A31506  15.361   8.496   6.469 -0.0397  0.1316  0.1587
 2604POPS   C3A31507  15.512   8.315   6.064  0.2491  0.2245  0.1884
 2604POPS   C4A31508  15.422   8.407   5.628  0.1476 -0.1101 -0.0982
 2604POPS   C1B31509  15.563   9.240   6.806  0.0355  0.0729 -0.0592
 2604POPS   C2B31510  15.573   9.370   6.393  0.1620  0.1322  0.2563
 2604POPS   C3B31511  15.509   9.468   5.937 -0.1333  0.1800  0.2183
 2604POPS   C4B31512  15.658   9.711   5.575  0.1288 -0.0763 -0.0781
 2605POPS   CNO31513  14.702  20.804   7.616 -0.1077 -0.2380 -0.0116
 2605POPS   PO431514  15.040  20.668   7.798  0.0270 -0.2825 -0.0491
 2605POPS   GL131515  15.120  20.613   7.472 -0.5189  0.1285  0.2379
 2605POPS   GL231516  14.958  20.659   7.208 -0.1257 -0.1836  0.1656
 2605POPS   C1A31517  15.280  20.285   7.137  0.0980 -0.0718  0.0628
 2605POPS   D2A31518  15.671  20.144   7.020 -0.2182  0.0033 -0.3461
 2605POPS   C3A31519  15.761  19.858   6.673  0.0509 -0.2399  0.2676
 2605POPS   C4A31520  16.112  19.599   6.513 -0.1594  0.0444 -0.3397
 2605POPS   C1B31521  15.072  20.494   6.751  0.2830  0.1661 -0.0694
 2605POPS   C2B31522  15.410  20.297   6.488 -0.0538 -0.1935 -0.2501
 2605POPS   C3B31523  15.893  20.326   6.587  0.1689 -0.1263 -0.0406
 2605POPS   C4B31524  16.300  20.113   6.518 -0.0286  0.0900 -0.0019
 2606POPS   CNO31525   5.092  24.648   7.998 -0.1936 -0.5890 -0.2273
 2606POPS   PO431526   4.984  24.281   8.059 -0.0232 -0.2512 -0.1791
 2606POPS   GL131527   5.150  24.226   7.696  0.0653 -0.2490 -0.0304
 2606POPS   GL231528   5.317  24.413   7.608 -0.2291 -0.0056  0.1992
 2606POPS   C1A31529   5.164  23.917   7.313  0.5719 -0.0369  0.1026
 2606POPS   D2A31530   5.361  23.661   6.943  0.1111 -0.1660 -0.2756
 2606POPS   C3A31531   5.772  23.730   6.742  0.0777 -0.1051 -0.0874
 2606POPS   C4A31532   5.963  23.807   6.369 -0.2175 -0.2588  0.0118
 2606POPS   C1B31533   5.204  24.433   7.158 -0.0490 -0.1554  0.0303
 2606POPS   C2B31534   5.127  24.516   6.735  0.2528 -0.0033 -0.0571
 2606POPS   C3B31535   5.048  24.737   6.343  0.2486  0.1974 -0.1394
 2606POPS   C4B31536   4.856  24.505   6.042 -0.1201 -0.4030 -0.0627
 2607POPS   CNO31537  14.036  28.821   7.904 -0.0711 -0.2588 -0.1209
 2607POPS   PO431538  13.979  28.750   7.538  0.2629 -0.0448  0.0123
 2607POPS   GL131539  14.176  28.761   7.168  0.2357 -0.1111  0.0538
 2607POPS   GL231540  14.313  28.515   7.138  0.0204 -0.2063  0.1688
 2607POPS   C1A31541  14.098  28.886   6.728 -0.1892  0.0196 -0.2018
 2607POPS   D2A31542  14.081  29.111   6.324  0.3003  0.1119  0.0328
 2607POPS   C3A31543  13.738  29.268   6.026  0.0220 -0.0017  0.0294
 2607POPS   C4A31544  13.526  29.115   5.592  0.2150  0.2447  0.1749
 2607POPS   C1B31545  14.471  28.570   6.698 -0.1691  0.1523  0.0634
 2607POPS   C2B31546  14.463  28.631   6.279 -0.4694 -0.3724  0.0568
 2607POPS   C3B31547  14.379  28.885   5.957  0.2893  0.3231 -0.0075
 2607POPS   C4B31548  14.251  29.107   5.609 -0.1327 -0.1168  0.1259
 2608POPS   CNO31549   3.688  19.727   8.128  0.0512  0.1868 -0.1560
 2608POPS   PO431550   3.507  19.652   7.838 -0.0459  0.0389  0.1827
 2608POPS   GL131551   3.342  19.720   7.488 -0.2777 -0.2270  0.0143
 2608POPS   GL231552   3.563  19.619   7.331 -0.1942  0.2792  0.1449
 2608POPS   C1A31553   2.967  19.560   7.309 -0.0577 -0.1418 -0.0479
 2608POPS   D2A31554   2.718  19.512   6.887  0.1055 -0.0653 -0.0052
 2608POPS   C3A31555   2.318  19.369   6.717  0.2393 -0.0214 -0.2436
 2608POPS   C4A31556   1.915  19.085   6.719  0.2340  0.0012  0.1269
 2608POPS   C1B31557   3.346  19.355   6.990  0.0455 -0.1699  0.0586
 2608POPS   C2B31558   3.177  19.404   6.556  0.0741  0.3257  0.0451
 2608POPS   C3B31559   3.058  19.471   6.103 -0.1022  0.1970  0.0075
 2608POPS   C4B31560   3.002  19.321   5.670  0.0002  0.4934 -0.0646
 2609POPS   CNO31561  10.968  16.734   7.993  0.2777  0.2773 -0.3861
 2609POPS   PO431562  10.706  16.449   8.150  0.2758  0.0890  0.0166
 2609POPS   GL131563  10.631  16.362   7.766 -0.1230 -0.0035 -0.4870
 2609POPS   GL231564  10.912  16.337   7.706 -0.0795 -0.1961 -0.2351
 2609POPS   C1A31565  10.606  16.424   7.315 -0.0195 -0.0425  0.0979
 2609POPS   D2A31566  10.343  16.662   7.002  0.0517 -0.1373 -0.2966
 2609POPS   C3A31567  10.050  16.619   6.606 -0.1924 -0.1425 -0.2432
 2609POPS   C4A31568   9.976  16.920   6.246  0.0187  0.1909  0.1108
 2609POPS   C1B31569  11.124  16.202   7.341 -0.2316 -0.0988 -0.2458
 2609POPS   C2B31570  11.371  15.961   7.047 -0.0369 -0.1377  0.3636
 2609POPS   C3B31571  11.273  15.568   6.752  0.2072  0.0557  0.3009
 2609POPS   C4B31572  11.111  15.700   6.355 -0.1438  0.2475  0.2507
 2610POPS   CNO31573   4.246  14.332   8.146 -0.2993  0.2964  0.1817
 2610POPS   PO431574   4.439  14.232   7.863 -0.0230  0.1694 -0.1004
 2610POPS   GL131575   4.407  14.410   7.488 -0.0255 -0.1554  0.1208
 2610POPS   GL231576   4.225  14.530   7.329  0.4574 -0.0473  0.1779
 2610POPS   C1A31577   4.758  14.639   7.203  0.0647 -0.1255 -0.1712
 2610POPS   D2A31578   5.000  15.043   7.019 -0.0594  0.0905  0.1373
 2610POPS   C3A31579   5.070  15.328   6.657  0.0532 -0.0574  0.1340
 2610POPS   C4A31580   5.412  15.602   6.525  0.3317 -0.0556 -0.2526
 2610POPS   C1B31581   4.355  14.526   6.876  0.1228 -0.0487 -0.0335
 2610POPS   C2B31582   4.416  14.345   6.436 -0.0859 -0.0226  0.1856
 2610POPS   C3B31583   4.416  14.026   6.147 -0.0353 -0.1552 -0.2444
 2610POPS   C4B31584   4.682  13.977   5.748 -0.2214  0.2240  0.1148
 2611POPS   CNO31585   0.093  29.510   8.062 -0.1896  0.0529 -0.0446
 2611POPS   PO431586   0.296  29.424   7.782 -0.1052 -0.0472  0.3452
 2611POPS   GL131587   0.512  29.173   7.433  0.0345  0.2227  0.0126
 2611POPS   GL231588   0.605  29.483   7.386 -0.1067 -0.2419  0.0240
 2611POPS   C1A31589   0.446  29.260   6.995 -0.0662  0.3146  0.1536
 2611POPS   D2A31590   0.311  29.002   6.635 -0.3787 -0.1057  0.2581
 2611POPS   C3A31591   0.659  28.896   6.312  0.3150 -0.1836  0.0029
 2611POPS   C4A31592   0.619  29.148   5.888  0.1112 -0.0202 -0.1824
 2611POPS   C1B31593   0.903  29.534   7.016  0.0418  0.3421  0.0775
 2611POPS   C2B31594   1.026  29.880   6.742 -0.3696  0.2471 -0.0891
 2611POPS   C3B31595   1.115  30.207   6.469 -0.0596 -0.1061  0.3916
 2611POPS   C4B31596   1.400  30.541   6.291 -0.1728  0.4655  0.1887
 2612POPS   CNO31597   1.328   5.704   7.593  0.1274 -0.1453 -0.2675
 2612POPS   PO431598   1.047   5.667   7.314  0.1515  0.1124 -0.0845
 2612POPS   GL131599   0.858   5.657   7.024  0.0865  0.0832  0.1640
 2612POPS   GL231600   0.991   5.423   6.858 -0.0143  0.0435 -0.1146
 2612POPS   C1A31601   0.530   5.794   6.664  0.0640  0.0861  0.1629
 2612POPS   D2A31602   0.260   5.995   6.380 -0.1370  0.2336  0.3567
 2612POPS   C3A31603   0.073   6.008   6.019  0.0522 -0.1582  0.1541
 2612POPS   C4A31604  -0.193   6.222   5.765  0.1814 -0.1715  0.1127
 2612POPS   C1B31605   0.750   5.196   6.651 -0.2118  0.0785  0.1141
 2612POPS   C2B31606   0.554   5.008   6.281  0.2159  0.1836  0.0834
 2612POPS   C3B31607   0.562   5.191   5.858 -0.1751  0.1126 -0.1110
 2612POPS   C4B31608   0.761   4.985   5.452  0.1788 -0.0295 -0.1489
 2613POPS   CNO31609  11.559   2.976   8.199 -0.0809  0.3523 -0.0701
 2613POPS   PO431610  11.461   3.130   7.874 -0.1968  0.2474 -0.0684
 2613POPS   GL131611  11.312   2.922   7.505 -0.0733 -0.2290  0.3060
 2613POPS   GL231612  11.309   3.217   7.382 -0.0064 -0.2004  0.1658
 2613POPS   C1A31613  11.490   2.756   7.137 -0.2398  0.0545  0.2542
 2613POPS   D2A31614  11.248   2.834   6.723  0.1962  0.1547  0.1151
 2613POPS   C3A31615  11.202   2.422   6.422 -0.0591  0.2637  0.0620
 2613POPS   C4A31616  11.493   2.231   6.107 -0.1584  0.2230  0.1049
 2613POPS   C1B31617  11.424   3.247   6.919 -0.0455 -0.0741  0.1328
 2613POPS   C2B31618  11.644   3.173   6.533  0.0796  0.0675 -0.4604
 2613POPS   C3B31619  11.877   3.159   6.100  0.3584  0.0820  0.0535
 2613POPS   C4B31620  12.061   3.016   5.725  0.0463  0.0870 -0.1116
 2614POPS   CNO31621  11.711   8.025   7.672  0.4367  0.6420 -0.2043
 2614POPS   PO431622  11.493   8.298   7.556 -0.2146  0.5915  0.0390
 2614POPS   GL131623  11.840   8.375   7.435  0.1422  0.1448  0.4323
 2614POPS   GL231624  12.058   8.216   7.382  0.1943 -0.0295 -0.1413
 2614POPS   C1A31625  11.906   8.592   7.053  0.0887 -0.1739  0.3954
 2614POPS   D2A31626  12.122   8.671   6.641 -0.5000  0.1058 -0.0312
 2614POPS   C3A31627  12.065   8.656   6.167  0.3113 -0.0497  0.2741
 2614POPS   C4A31628  12.171   8.538   5.732 -0.0856 -0.2779 -0.0561
 2614POPS   C1B31629  12.450   8.433   7.096 -0.0688  0.1704 -0.2130
 2614POPS   C2B31630  12.763   8.266   6.832  0.0530  0.0937  0.1744
 2614POPS   C3B31631  12.825   8.039   6.440 -0.0191  0.1277 -0.3711
 2614POPS   C4B31632  13.086   8.111   6.046  0.1268 -0.2000  0.0019
 2615POPS   CNO31633  10.613  30.783   8.259  0.0982 -0.0358  0.0505
 2615POPS   PO431634  10.627  30.862   7.891  0.0966  0.0537  0.0193
 2615POPS   GL131635  10.623  30.916   7.539  0.3149  0.1300  0.1989
 2615POPS   GL231636  10.449  30.809   7.409  0.0774  0.0845 -0.1218
 2615POPS   C1A31637  10.938  30.820   7.201 -0.3436  0.1862  0.2233
 2615POPS   D2A31638  11.074  30.679   6.758  0.1385  0.0821  0.0333
 2615POPS   C3A31639  10.877  30.840   6.358 -0.0657  0.0692  0.0457
 2615POPS   C4A31640  10.706  30.931   5.887 -0.3129  0.1309 -0.2416
 2615POPS   C1B31641  10.473  30.930   6.944  0.0013  0.3105  0.1964
 2615POPS   C2B31642  10.398  30.955   6.490 -0.0780 -0.1340 -0.0440
 2615POPS   C3B31643  10.173  31.185   6.159  0.0868 -0.2704 -0.1941
 2615POPS   C4B31644  10.232  31.568   5.854 -0.3976 -0.1899  0.1544
 2616POPS   CNO31645  14.753  10.355   8.221 -0.3151 -0.0512 -0.0149
 2616POPS   PO431646  15.112  10.393   8.126  0.0158 -0.3948 -0.1932
 2616POPS   GL131647  15.071  10.492   7.754  0.1679  0.0490 -0.3179
 2616POPS   GL231648  15.069  10.218   7.533  0.3412 -0.1769 -0.2249
 2616POPS   C1A31649  15.122  10.731   7.331  0.2030  0.1487  0.3077
 2616POPS   D2A31650  15.085  10.538   6.879  0.1394 -0.0719 -0.0557
 2616POPS   C3A31651  15.153  10.649   6.426 -0.0705  0.1255  0.0750
 2616POPS   C4A31652  14.774  10.662   6.141  0.2300 -0.0616 -0.2062
 2616POPS   C1B31653  14.831  10.158   7.133 -0.1468  0.1060 -0.1324
 2616POPS   C2B31654  14.703  10.232   6.709  0.1498 -0.1346  0.0580
 2616POPS   C3B31655  14.420  10.309   6.354 -0.0387 -0.4206  0.1688
 2616POPS   C4B31656  13.958  10.260   6.164  0.1454  0.4459  0.0806
 2617POPS   CNO31657  13.596   1.426   7.958  0.2454 -0.1359  0.0445
 2617POPS   PO431658  13.805   1.295   7.678 -0.0036 -0.2026 -0.0029
 2617POPS   GL131659  13.647   1.259   7.378  0.1010  0.0947  0.1343
 2617POPS   GL231660  13.553   1.620   7.295  0.0136 -0.2504  0.0272
 2617POPS   C1A31661  13.771   1.067   6.933  0.0175 -0.0265 -0.1431
 2617POPS   D2A31662  13.897   0.941   6.531  0.1945  0.1247  0.3282
 2617POPS   C3A31663  14.268   0.737   6.325 -0.2266  0.0655 -0.1075
 2617POPS   C4A31664  14.699   0.668   6.179 -0.1718 -0.0880  0.2183
 2617POPS   C1B31665  13.660   1.787   6.901 -0.1522 -0.0658  0.0884
 2617POPS   C2B31666  13.551   1.861   6.467 -0.1091 -0.0580  0.1686
 2617POPS   C3B31667  13.294   2.154   6.194  0.2381 -0.1267 -0.1184
 2617POPS   C4B31668  13.362   2.442   5.885  0.0392  0.4605 -0.2074
 2618POPS   CNO31669  14.131  17.055   7.734  0.2556  0.3721 -0.0827
 2618POPS   PO431670  14.308  16.983   7.436 -0.0564  0.0596 -0.0211
 2618POPS   GL131671  14.619  16.807   7.243 -0.2169 -0.2862  0.0217
 2618POPS   GL231672  14.535  16.548   7.165  0.0034  0.1478 -0.4172
 2618POPS   C1A31673  14.882  16.825   6.903  0.1879 -0.0783 -0.0774
 2618POPS   D2A31674  14.824  16.688   6.491  0.4108  0.0239  0.2298
 2618POPS   C3A31675  14.577  16.359   6.332 -0.2242 -0.2266 -0.0234
 2618POPS   C4A31676  14.605  16.045   5.955  0.1199 -0.0076 -0.2524
 2618POPS   C1B31677  14.413  16.607   6.728 -0.0180 -0.2145  0.0349
 2618POPS   C2B31678  14.368  16.844   6.312  0.0799  0.2926 -0.0887
 2618POPS   C3B31679  14.488  16.605   5.931  0.0243 -0.0896 -0.1603
 2618POPS   C4B31680  14.862  16.484   5.706  0.1424 -0.0423 -0.0563
 2619POPS   CNO31681   6.404   0.146   7.591 -0.0526 -0.0330 -0.1705
 2619POPS   PO431682   6.272   0.499   7.664  0.0164  0.1078  0.1262
 2619POPS   GL131683   6.303   0.510   7.259  0.1105 -0.0426  0.1678
 2619POPS   GL231684   6.064   0.667   7.149 -0.2480  0.0400  0.1324
 2619POPS   C1A31685   6.185   0.235   6.970 -0.1582  0.1243  0.2745
 2619POPS   D2A31686   6.093   0.253   6.487 -0.0325 -0.3204  0.0314
 2619POPS   C3A31687   6.458   0.036   6.466 -0.1729 -0.0735 -0.0251
 2619POPS   C4A31688   6.656  -0.080   6.835  0.1997  0.4080 -0.1985
 2619POPS   C1B31689   6.405   0.810   6.961 -0.1512  0.0923  0.2816
 2619POPS   C2B31690   6.481   1.080   6.625 -0.0554 -0.1335  0.0546
 2619POPS   C3B31691   6.790   1.027   6.271  0.0219  0.0683 -0.0581
 2619POPS   C4B31692   6.849   1.027   5.808  0.2430 -0.0440  0.1354
 2620POPS   CNO31693  11.776   5.152   8.555  0.3323  0.0289  0.2156
 2620POPS   PO431694  12.170   5.115   8.577  0.5426 -0.0699  0.0995
 2620POPS   GL131695  12.609   5.139   8.699 -0.0781 -0.0424 -0.1814
 2620POPS   GL231696  12.578   5.141   8.987 -0.0386  0.2208 -0.1384
 2620POPS   C1A31697  13.030   5.321   8.844 -0.1342  0.0161  0.0453
 2620POPS   D2A31698  13.319   5.256   9.218  0.3167 -0.1244 -0.0472
 2620POPS   C3A31699  13.223   4.812   9.282 -0.1648 -0.0578 -0.1142
 2620POPS   C4A31700  13.436   4.494   9.583 -0.2128 -0.2455  0.0245
 2620POPS   C1B31701  12.941   4.824   8.918 -0.0835  0.0045  0.1581
 2620POPS   C2B31702  13.021   4.441   8.795  0.0416 -0.1629  0.1505
 2620POPS   C3B31703  13.384   4.416   8.555  0.1528  0.1703  0.2586
 2620POPS   C4B31704  13.547   4.084   8.257  0.1735  0.1441  0.1155
 2621POPS   CNO31705  12.507   2.937   7.997  0.0265 -0.1458 -0.0488
 2621POPS   PO431706  12.897   3.027   7.931  0.1695  0.1299 -0.0917
 2621POPS   GL131707  13.121   3.283   7.767  0.2435  0.0238  0.1401
 2621POPS   GL231708  13.390   3.196   7.822  0.4056  0.3062 -0.0210
 2621POPS   C1A31709  13.231   3.129   7.332 -0.2953 -0.3646  0.1616
 2621POPS   D2A31710  13.167   3.085   6.842  0.1749  0.0219  0.0275
 2621POPS   C3A31711  13.445   3.331   6.475  0.2007 -0.1152 -0.2464
 2621POPS   C4A31712  13.833   3.360   6.231 -0.1010  0.0393  0.0492
 2621POPS   C1B31713  13.473   3.519   7.506 -0.3322  0.1286 -0.1065
 2621POPS   C2B31714  13.707   3.789   7.203 -0.2296 -0.2513 -0.0060
 2621POPS   C3B31715  13.832   4.097   6.933  0.3181 -0.1470  0.0243
 2621POPS   C4B31716  14.168   4.249   6.629 -0.0830 -0.2145  0.0093
 2622SAP2    C131717  12.828   3.817   9.447  0.1047  0.0619  0.1338
 2622SAP2    C231718  13.037   3.668   9.344  0.2549  0.1606  0.2909
 2622SAP2    C331719  12.741   3.717   9.193  0.3459  0.0254  0.0635
 2622SAP2    C431720  12.869   3.734   9.328  0.0007 -0.0000  0.0553
 2622SAP2   PO431721  13.010   4.083   9.632  0.2889  0.2601  0.0216
 2622SAP2    P431722  12.642   3.585   8.986 -0.3480  0.1412 -0.1392
 2622SAP2    P531723  13.038   3.390   9.207  0.1479  0.2928  0.0599
 2622SAP2   GL131724  13.257   4.066   9.441  0.2238  0.1427 -0.2716
 2622SAP2   GL231725  13.157   4.054   9.170 -0.1298  0.0452 -0.1575
 2622SAP2   D1A31726  13.669   3.918   9.261 -0.1398 -0.0543  0.0055
 2622SAP2   D2A31727  13.849   4.314   9.566 -0.3613 -0.0617 -0.1933
 2622SAP2   D3A31728  14.190   4.519   9.326 -0.3278 -0.0895 -0.0173
 2622SAP2   D4A31729  14.242   5.037   9.238 -0.2681  0.1040  0.0562
 2622SAP2   C5A31730  13.745   4.972   9.165 -0.2143 -0.2528 -0.0137
 2622SAP2   C1B31731  13.428   3.992   8.803  0.0617 -0.1668 -0.0090
 2622SAP2   C2B31732  13.820   3.863   8.609  0.0822  0.0682  0.2015
 2622SAP2   C3B31733  14.053   3.731   8.267  0.1524 -0.1082 -0.2738
 2622SAP2   C4B31734  14.339   3.564   7.902 -0.1272  0.2397 -0.0341
 2623SAP2    C131735   3.424   6.010   8.074 -0.0354 -0.1358 -0.0916
 2623SAP2    C231736   3.226   6.192   8.141  0.0360 -0.0481 -0.1159
 2623SAP2    C331737   3.434   6.042   8.358  0.1372  0.0852 -0.1197
 2623SAP2    C431738   3.361   6.081   8.191  0.0007 -0.0000  0.0553
 2623SAP2   PO431739   3.538   6.204   7.812  0.3447  0.1124 -0.1072
 2623SAP2    P431740   3.402   6.113   8.651  0.3516  0.0135  0.1249
 2623SAP2    P531741   2.970   6.036   8.298 -0.0400 -0.2347 -0.2108
 2623SAP2   GL131742   3.459   6.253   7.525 -0.1334  0.1251 -0.5012
 2623SAP2   GL231743   3.524   6.173   7.278  0.2772 -0.0773 -0.0751
 2623SAP2   D1A31744   3.268   6.637   7.362  0.3318 -0.2799  0.0603
 2623SAP2   D2A31745   3.261   6.696   6.920  0.0555 -0.3769  0.0274
 2623SAP2   D3A31746   2.989   6.898   6.674 -0.0419 -0.1672  0.2423
 2623SAP2   D4A31747   2.874   6.959   6.231  0.0272  0.0494  0.0803
 2623SAP2   C5A31748   3.311   6.922   6.297  0.0930  0.2928  0.2663
 2623SAP2   C1B31749   3.588   6.352   6.821  0.1875  0.0090 -0.0652
 2623SAP2   C2B31750   3.558   6.504   6.331  0.0871 -0.1418  0.1381
 2623SAP2   C3B31751   3.452   6.627   5.946  0.0505  0.0449  0.1219
 2623SAP2   C4B31752   3.441   6.641   5.512  0.1194  0.2116  0.2376
 2624SAP2    C131753   7.684   9.627   7.953 -0.0558 -0.2058  0.1903
 2624SAP2    C231754   7.415   9.570   7.920 -0.1398  0.1418  0.2301
 2624SAP2    C331755   7.547   9.738   8.179  0.0626  0.2993  0.0285
 2624SAP2    C431756   7.549   9.645   8.018  0.0007 -0.0000  0.0553
 2624SAP2   PO431757   7.816   9.761   7.677  0.0575 -0.2066  0.1556
 2624SAP2    P431758   7.329   9.795   8.386  0.1741 -0.0324 -0.2048
 2624SAP2    P531759   7.186   9.445   8.051  0.0187  0.1628 -0.1174
 2624SAP2   GL131760   7.825   9.767   7.333  0.0021  0.1002  0.1573
 2624SAP2   GL231761   7.643  10.044   7.347 -0.0856  0.0175  0.4021
 2624SAP2   D1A31762   8.086   9.747   6.897  0.1520  0.2594  0.0923
 2624SAP2   D2A31763   8.066  10.170   6.771 -0.0045 -0.0398  0.0958
 2624SAP2   D3A31764   8.229  10.243   6.352  0.1956 -0.3423  0.2094
 2624SAP2   D4A31765   7.958  10.571   6.318 -0.0471  0.2039 -0.2338
 2624SAP2   C5A31766   7.711  10.581   6.734  0.1709  0.1109  0.2889
 2624SAP2   C1B31767   7.567  10.073   6.879  0.0454 -0.0298 -0.1971
 2624SAP2   C2B31768   7.651  10.088   6.373 -0.1783  0.0862  0.2117
 2624SAP2   C3B31769   7.818  10.235   5.950 -0.0041  0.0079  0.0985
 2624SAP2   C4B31770   7.546  10.392   5.658 -0.1906  0.1147  0.3949
 2625SAP2    C131771   3.704  27.146   8.282 -0.0603 -0.2205  0.1455
 2625SAP2    C231772   3.745  27.020   8.526  0.0670 -0.0600  0.2090
 2625SAP2    C331773   3.719  27.352   8.481 -0.0364 -0.0931  0.0133
 2625SAP2    C431774   3.723  27.173   8.430  0.0007 -0.0000  0.0553
 2625SAP2   PO431775   3.487  26.921   8.109 -0.2294 -0.2944 -0.1713
 2625SAP2    P431776   3.753  27.486   8.737 -0.1248 -0.1468 -0.0023
 2625SAP2    P531777   3.953  27.011   8.767  0.3980  0.3371  0.1956
 2625SAP2   GL131778   3.726  27.006   7.843 -0.0280 -0.2874 -0.2005
 2625SAP2   GL231779   3.904  26.772   7.922 -0.0777  0.4117  0.2073
 2625SAP2   D1A31780   3.852  27.318   7.464 -0.0961 -0.1689 -0.1600
 2625SAP2   D2A31781   3.457  27.600   7.334  0.3584 -0.0367  0.0694
 2625SAP2   D3A31782   3.499  27.371   6.899 -0.1475 -0.1962  0.1252
 2625SAP2   D4A31783   3.857  27.129   6.985 -0.0805 -0.0740 -0.3555
 2625SAP2   C5A31784   3.533  26.786   7.103  0.2070 -0.1209 -0.1584
 2625SAP2   C1B31785   3.885  26.812   7.424  0.0813  0.0588  0.0730
 2625SAP2   C2B31786   4.054  26.705   7.003 -0.0206 -0.0018 -0.2017
 2625SAP2   C3B31787   3.905  26.779   6.554 -0.2572  0.1348  0.0451
 2625SAP2   C4B31788   3.962  26.611   6.159 -0.1569 -0.1481  0.1354
 2626SAP2    C131789  13.434   6.723   9.347  0.0900 -0.0778  0.1234
 2626SAP2    C231790  13.673   6.848   9.284 -0.0586  0.0966 -0.1072
 2626SAP2    C331791  13.420   6.988   9.454 -0.0078 -0.0812  0.1195
 2626SAP2    C431792  13.509   6.853   9.362  0.0007 -0.0000  0.0553
 2626SAP2   PO431793  13.417   6.394   9.387  0.0295  0.3504  0.1585
 2626SAP2    P431794  13.511   7.258   9.428  0.1199 -0.0905 -0.1699
 2626SAP2    P531795  13.681   7.048   8.985  0.4007  0.1040  0.0138
 2626SAP2   GL131796  13.437   6.138   9.247  0.0282  0.1382  0.3738
 2626SAP2   GL231797  13.494   6.160   8.939  0.1538 -0.1032 -0.0810
 2626SAP2   D1A31798  13.647   5.651   9.277  0.2165 -0.4366  0.0442
 2626SAP2   D2A31799  14.047   5.635   9.075  0.0082  0.1895 -0.0669
 2626SAP2   D3A31800  14.278   5.999   8.948 -0.0859  0.0838  0.1560
 2626SAP2   D4A31801  14.368   5.600   8.699 -0.2008  0.1960 -0.0860
 2626SAP2   C5A31802  14.546   5.515   9.127  0.0903 -0.1635  0.3519
 2626SAP2   C1B31803  13.502   5.745   8.795  0.1264 -0.1135  0.0952
 2626SAP2   C2B31804  13.597   5.370   8.839 -0.0025  0.0615 -0.0871
 2626SAP2   C3B31805  14.038   5.178   8.781  0.0359 -0.2300 -0.0938
 2626SAP2   C4B31806  14.348   5.134   8.435  0.1349  0.1868 -0.0967
 2627SAP2    C131807   0.200   4.303   9.058  0.2648  0.0482  0.0082
 2627SAP2    C231808   0.265   4.109   9.245 -0.1400 -0.0614  0.0451
 2627SAP2    C331809   0.170   4.423   9.317 -0.6037 -0.1960  0.0531
 2627SAP2    C431810   0.212   4.278   9.207  0.0007 -0.0000  0.0553
 2627SAP2   PO431811   0.046   4.195   8.767 -0.2560 -0.1382  0.2402
 2627SAP2    P431812   0.310   4.397   9.580 -0.2710 -0.0893  0.1813
 2627SAP2    P531813   0.581   4.053   9.355 -0.0103  0.1064 -0.2405
 2627SAP2   GL131814  -0.273   4.297   8.609 -0.0471  0.0000 -0.2112
 2627SAP2   GL231815  -0.196   4.081   8.400  0.2232  0.1194  0.1602
 2627SAP2   D1A31816  -0.704   4.467   8.723  0.2274  0.2739 -0.1867
 2627SAP2   D2A31817  -0.977   4.179   8.953 -0.0082 -0.2844 -0.1149
 2627SAP2   D3A31818  -1.196   4.604   9.087  0.1884  0.0057  0.3608
 2627SAP2   D4A31819  -1.475   4.145   9.080  0.0774  0.1680 -0.0351
 2627SAP2   C5A31820  -1.225   4.141   9.494 -0.1699  0.1644 -0.2120
 2627SAP2   C1B31821  -0.569   4.275   8.262  0.0349  0.1463  0.0251
 2627SAP2   C2B31822  -0.920   4.522   8.101 -0.0607 -0.2302 -0.0095
 2627SAP2   C3B31823  -1.165   4.834   7.917 -0.0683  0.1722  0.0939
 2627SAP2   C4B31824  -1.543   5.091   7.928  0.0399 -0.1845 -0.0646
 2628SAP2    C131825   1.115  30.596   8.909 -0.1664 -0.0175 -0.0500
 2628SAP2    C231826   0.865  30.532   9.009 -0.0076 -0.2615  0.2057
 2628SAP2    C331827   1.052  30.794   9.106 -0.1435 -0.1005  0.0414
 2628SAP2    C431828   1.011  30.641   9.008  0.0007 -0.0000  0.0553
 2628SAP2   PO431829   1.121  30.561   8.552  0.0359 -0.4571 -0.0872
 2628SAP2    P431830   0.938  30.930   9.348 -0.0470  0.1957  0.0169
 2628SAP2    P531831   0.761  30.481   9.274 -0.0436 -0.1537 -0.4119
 2628SAP2   GL131832   1.375  30.659   8.463  0.1413  0.3271  0.0876
 2628SAP2   GL231833   1.616  30.591   8.537  0.0449  0.0755  0.0975
 2628SAP2   D1A31834   1.471  30.855   8.066 -0.1412 -0.1410 -0.0023
 2628SAP2   D2A31835   1.406  30.391   7.999  0.0489 -0.0778  0.1299
 2628SAP2   D3A31836   1.380  30.277   7.558 -0.3002  0.0367 -0.2088
 2628SAP2   D4A31837   1.674  30.600   7.527  0.2773  0.0190 -0.1746
 2628SAP2   C5A31838   1.810  30.646   7.108 -0.0299  0.3935  0.0385
 2628SAP2   C1B31839   1.853  30.272   8.329  0.0328  0.0715  0.1685
 2628SAP2   C2B31840   2.018  29.853   8.247  0.0560  0.2452 -0.2415
 2628SAP2   C3B31841   2.228  29.793   7.862  0.0043  0.0031 -0.0112
 2628SAP2   C4B31842   2.254  29.433   7.560 -0.1255 -0.3863  0.1139
 2629SAP2    C131843   0.936  16.783   9.352 -0.0296 -0.1183 -0.0565
 2629SAP2    C231844   1.159  16.759   9.515 -0.1510 -0.1499  0.1071
 2629SAP2    C331845   1.010  16.506   9.353  0.2021 -0.0643 -0.3757
 2629SAP2    C431846   1.035  16.683   9.406  0.0007 -0.0000  0.0553
 2629SAP2   PO431847   0.907  17.017   9.107 -0.0457 -0.0696 -0.1934
 2629SAP2    P431848   1.127  16.270   9.422 -0.3262 -0.0765 -0.0349
 2629SAP2    P531849   1.141  16.743   9.834  0.0237  0.2475  0.0693
 2629SAP2   GL131850   0.736  16.940   8.855  0.1913  0.4541  0.2109
 2629SAP2   GL231851   0.646  16.778   8.712  0.0204 -0.1303  0.2375
 2629SAP2   D1A31852   0.441  17.285   8.787 -0.2140 -0.1462 -0.1117
 2629SAP2   D2A31853   0.287  17.123   8.373  0.0867 -0.0073  0.1455
 2629SAP2   D3A31854   0.156  17.527   8.289  0.0840 -0.0580  0.0153
 2629SAP2   D4A31855   0.069  17.950   8.121 -0.1246  0.1547  0.3758
 2629SAP2   C5A31856   0.444  18.070   7.869 -0.1602  0.3122  0.0210
 2629SAP2   C1B31857   0.664  16.620   8.262 -0.0032  0.0677 -0.1387
 2629SAP2   C2B31858   0.391  16.474   7.893  0.0878 -0.0528  0.0535
 2629SAP2   C3B31859   0.060  16.273   7.581  0.2154  0.0520  0.0163
 2629SAP2   C4B31860  -0.360  16.422   7.388 -0.1184  0.1235 -0.1638
 2630SAP2    C131861  12.908   6.613   8.683 -0.3244  0.1386 -0.3177
 2630SAP2    C231862  12.977   6.880   8.656 -0.0642  0.1004 -0.0797
 2630SAP2    C331863  12.787   6.753   8.902 -0.1376  0.0574 -0.1585
 2630SAP2    C431864  12.891   6.749   8.747  0.0007 -0.0000  0.0553
 2630SAP2   PO431865  13.211   6.409   8.628  0.0023 -0.1900 -0.0932
 2630SAP2    P431866  12.751   7.014   9.126  0.1261  0.2041  0.0871
 2630SAP2    P531867  12.921   7.126   8.663 -0.0828 -0.2486 -0.0807
 2630SAP2   GL131868  13.215   6.058   8.381  0.1167 -0.4152 -0.1736
 2630SAP2   GL231869  13.197   6.140   8.079  0.0427 -0.0669  0.2326
 2630SAP2   D1A31870  13.543   5.728   8.329 -0.0934 -0.3087  0.0883
 2630SAP2   D2A31871  13.703   6.100   8.213  0.0338 -0.3286  0.3963
 2630SAP2   D3A31872  14.105   6.001   8.077 -0.2722  0.2229 -0.1724
 2630SAP2   D4A31873  14.269   6.213   8.455 -0.2510  0.0142  0.0402
 2630SAP2   C5A31874  13.923   5.993   8.617 -0.2084 -0.0950  0.1228
 2630SAP2   C1B31875  13.180   5.718   7.854 -0.0912  0.0708 -0.2488
 2630SAP2   C2B31876  12.951   5.357   7.717 -0.4188  0.1227 -0.4010
 2630SAP2   C3B31877  12.658   5.327   7.411 -0.0708  0.1576  0.1193
 2630SAP2   C4B31878  12.662   4.910   7.152 -0.1469 -0.0049 -0.1268
 2631SAP2    C131879   2.156  20.558   8.614  0.2915  0.2389 -0.2789
 2631SAP2    C231880   2.389  20.524   8.761  0.0033  0.0126  0.1475
 2631SAP2    C331881   2.128  20.716   8.852 -0.0993  0.0353 -0.1814
 2631SAP2    C431882   2.225  20.600   8.742  0.0007 -0.0000  0.0553
 2631SAP2   PO431883   2.100  20.220   8.550  0.1001 -0.1155  0.0224
 2631SAP2    P431884   2.207  20.860   9.129 -0.4029 -0.1619 -0.2806
 2631SAP2    P531885   2.588  20.780   8.847 -0.5005 -0.1043 -0.1345
 2631SAP2   GL131886   1.753  20.367   8.412 -0.2148  0.2727 -0.2244
 2631SAP2   GL231887   1.765  20.415   8.142 -0.0817 -0.1960 -0.1252
 2631SAP2   D1A31888   1.660  19.880   8.394 -0.1319 -0.0263 -0.0780
 2631SAP2   D2A31889   1.183  19.932   8.418 -0.0785  0.5122 -0.0317
 2631SAP2   D3A31890   1.200  19.668   8.082  0.0607  0.2188  0.0046
 2631SAP2   D4A31891   1.239  19.708   7.665 -0.1086 -0.3277 -0.2813
 2631SAP2   C5A31892   1.255  19.455   7.319 -0.2392  0.0431 -0.0640
 2631SAP2   C1B31893   1.414  20.521   7.893 -0.2991  0.1082 -0.0761
 2631SAP2   C2B31894   1.097  20.612   7.613  0.1948  0.1742  0.3248
 2631SAP2   C3B31895   0.888  20.303   7.413  0.2136 -0.2745 -0.2389
 2631SAP2   C4B31896   1.014  19.873   7.278  0.0640  0.1124 -0.2100
 2632SAP2    C131897   9.555  15.243   8.457  0.1515  0.0246 -0.1265
 2632SAP2    C231898   9.370  15.290   8.657  0.0610  0.2241 -0.2531
 2632SAP2    C331899   9.704  15.303   8.694  0.0616 -0.3004  0.0168
 2632SAP2    C431900   9.543  15.279   8.603  0.0007 -0.0000  0.0553
 2632SAP2   PO431901   9.409  15.328   8.127  0.3295 -0.3124  0.1005
 2632SAP2    P431902   9.848  15.458   8.916  0.4554  0.2050  0.1303
 2632SAP2    P531903   9.279  15.463   8.870 -0.0786  0.3910 -0.1305
 2632SAP2   GL131904   9.580  15.565   7.940  0.0568  0.0878  0.1357
 2632SAP2   GL231905   9.474  15.461   7.672 -0.0209 -0.1067 -0.3162
 2632SAP2   D1A31906   9.374  15.992   7.745  0.0414  0.2410  0.0207
 2632SAP2   D2A31907   9.227  16.419   7.674 -0.0392  0.1413  0.0852
 2632SAP2   D3A31908   9.512  16.796   7.692  0.0081 -0.0274  0.0733
 2632SAP2   D4A31909   9.810  16.691   7.410 -0.4557  0.1178 -0.1527
 2632SAP2   C5A31910  10.258  16.751   7.456  0.1201 -0.3294 -0.3912
 2632SAP2   C1B31911   9.436  15.776   7.313  0.0054  0.2029  0.0765
 2632SAP2   C2B31912   9.708  15.908   7.027 -0.0276  0.0732 -0.1809
 2632SAP2   C3B31913   9.804  16.050   6.629  0.0634 -0.0481  0.1070
 2632SAP2   C4B31914   9.978  16.114   6.192  0.0462 -0.2405  0.0166
 2633SAP2    C131915   6.226  17.577   7.919 -0.0588  0.0673 -0.0767
 2633SAP2    C231916   6.163  17.775   8.102  0.0954  0.0009  0.0499
 2633SAP2    C331917   6.140  17.444   8.158 -0.1391 -0.0198 -0.1530
 2633SAP2    C431918   6.176  17.599   8.059  0.0007 -0.0000  0.0553
 2633SAP2   PO431919   6.508  17.733   7.794  0.3580 -0.2509  0.2548
 2633SAP2    P431920   6.062  17.443   8.450  0.2259 -0.0959  0.0267
 2633SAP2    P531921   6.052  17.863   8.327 -0.0308 -0.0050 -0.1480
 2633SAP2   GL131922   6.722  17.617   7.601  0.2288 -0.0127  0.0141
 2633SAP2   GL231923   7.022  17.722   7.493 -0.0306 -0.3280  0.0722
 2633SAP2   D1A31924   6.607  17.710   7.161 -0.0194 -0.2612 -0.0962
 2633SAP2   D2A31925   6.364  17.511   6.904  0.0981  0.1430 -0.2208
 2633SAP2   D3A31926   6.451  17.338   6.505  0.3648 -0.0880 -0.3132
 2633SAP2   D4A31927   6.367  17.563   6.158  0.0822  0.2279  0.0904
 2633SAP2   C5A31928   6.306  18.035   6.311  0.3612  0.2238 -0.3271
 2633SAP2   C1B31929   7.136  17.873   7.091  0.1826  0.1352  0.0008
 2633SAP2   C2B31930   7.256  17.925   6.595 -0.0394  0.0367 -0.2283
 2633SAP2   C3B31931   7.278  17.740   6.174  0.0804  0.1179  0.0467
 2633SAP2   C4B31932   7.137  17.871   5.717  0.0393  0.0321 -0.1561
 2634SAP2    C131933   8.266   0.917   8.017 -0.2144 -0.0510 -0.0061
 2634SAP2    C231934   8.104   0.803   8.210 -0.0419 -0.2167  0.0449
 2634SAP2    C331935   8.391   0.967   8.270 -0.2771  0.2383 -0.0296
 2634SAP2    C431936   8.254   0.896   8.166  0.0007 -0.0000  0.0553
 2634SAP2   PO431937   8.110   1.069   7.814  0.0172 -0.0797  0.3201
 2634SAP2    P431938   8.536   0.911   8.512 -0.0256 -0.0481 -0.2641
 2634SAP2    P531939   8.174   0.569   8.395 -0.2973  0.0035  0.1180
 2634SAP2   GL131940   8.045   1.050   7.486 -0.3208  0.1544 -0.1278
 2634SAP2   GL231941   7.953   0.759   7.432  0.0181  0.1199  0.2143
 2634SAP2   D1A31942   8.145   1.247   7.103 -0.1012  0.0429  0.0310
 2634SAP2   D2A31943   8.322   0.911   6.819 -0.0190  0.0418 -0.0087
 2634SAP2   D3A31944   8.435   0.944   6.365  0.1023  0.1468 -0.1290
 2634SAP2   D4A31945   8.581   0.961   5.959  0.0090 -0.0680  0.2757
 2634SAP2   C5A31946   8.936   0.804   5.776 -0.0210 -0.0885  0.1172
 2634SAP2   C1B31947   7.861   0.792   6.976 -0.1005  0.1299  0.0958
 2634SAP2   C2B31948   7.922   0.769   6.521 -0.2291 -0.1330 -0.0012
 2634SAP2   C3B31949   7.964   0.674   6.040  0.2352 -0.1532  0.0290
 2634SAP2   C4B31950   8.115   0.437   5.677 -0.0341 -0.1599  0.1353
 2635SAP2    C131951   0.802  20.142   9.229 -0.2478 -0.0348 -0.0254
 2635SAP2    C231952   1.019  20.206   9.389 -0.0166  0.0144 -0.3485
 2635SAP2    C331953   0.713  20.344   9.411 -0.0805 -0.1914  0.2378
 2635SAP2    C431954   0.845  20.231   9.343  0.0007 -0.0000  0.0553
 2635SAP2   PO431955   0.794  19.804   9.159  0.0981  0.0201  0.3087
 2635SAP2    P431956   0.802  20.568   9.586 -0.1683 -0.3132  0.5029
 2635SAP2    P531957   1.205  20.357   9.368  0.0051 -0.3105 -0.0858
 2635SAP2   GL131958   0.547  19.776   8.870 -0.0163  0.1121  0.1099
 2635SAP2   GL231959   0.797  19.811   8.752 -0.1714 -0.0017  0.3161
 2635SAP2   D1A31960   0.499  19.351   8.678 -0.2251  0.2779 -0.0387
 2635SAP2   D2A31961   0.382  19.458   8.244 -0.3155  0.2135 -0.2965
 2635SAP2   D3A31962   0.321  19.827   7.979  0.1998  0.0022  0.2288
 2635SAP2   D4A31963   0.723  19.856   8.210  0.0099 -0.0692 -0.2931
 2635SAP2   C5A31964   0.995  20.127   7.883 -0.2147  0.1881  0.0324
 2635SAP2   C1B31965   0.907  19.441   8.454  0.0393  0.0110 -0.2538
 2635SAP2   C2B31966   1.044  19.161   8.135  0.0129  0.0818  0.0723
 2635SAP2   C3B31967   1.179  18.799   7.950  0.0478 -0.2520 -0.2246
 2635SAP2   C4B31968   1.335  18.421   7.701  0.2909 -0.0956 -0.2648
 2636SAP2    C131969   7.672   6.734   8.100 -0.2104  0.0917  0.0298
 2636SAP2    C231970   7.761   6.485   8.183  0.0484  0.2367  0.1998
 2636SAP2    C331971   7.513   6.659   8.327 -0.1775  0.0525  0.0400
 2636SAP2    C431972   7.649   6.626   8.203  0.0007 -0.0000  0.0553
 2636SAP2   PO431973   7.688   6.725   7.804  0.2724 -0.0650  0.2348
 2636SAP2    P431974   7.384   6.463   8.456 -0.1915  0.0284 -0.3802
 2636SAP2    P531975   7.907   6.329   8.483 -0.2970  0.1689 -0.0372
 2636SAP2   GL131976   7.871   6.862   7.587  0.0271 -0.4019 -0.0829
 2636SAP2   GL231977   8.128   6.834   7.594  0.1967  0.1690 -0.2521
 2636SAP2   D1A31978   7.654   6.641   7.252  0.1127  0.1616  0.2258
 2636SAP2   D2A31979   7.496   6.974   6.997 -0.2203  0.0041  0.0583
 2636SAP2   D3A31980   7.743   6.780   6.725  0.2343 -0.1479 -0.0075
 2636SAP2   D4A31981   7.432   6.440   6.841 -0.0725  0.0073 -0.2224
 2636SAP2   C5A31982   7.019   6.489   6.702 -0.2257  0.2931 -0.1200
 2636SAP2   C1B31983   8.031   6.998   7.201  0.1224  0.1151  0.1446
 2636SAP2   C2B31984   8.257   7.133   6.808  0.2240  0.2423  0.1404
 2636SAP2   C3B31985   8.365   7.088   6.341 -0.2750 -0.0160  0.1420
 2636SAP2   C4B31986   8.277   7.005   5.871 -0.2749 -0.0445  0.1136
 2637SAP2    C131987  12.832  10.173   8.775 -0.1325 -0.1258 -0.2005
 2637SAP2    C231988  13.091  10.148   8.870 -0.1971  0.0566  0.0313
 2637SAP2    C331989  12.895   9.893   8.772 -0.0296 -0.1105  0.1244
 2637SAP2    C431990  12.939  10.072   8.806  0.0007 -0.0000  0.0553
 2637SAP2   PO431991  12.884  10.478   8.645 -0.2982 -0.0468  0.2566
 2637SAP2    P431992  13.119   9.695   8.797  0.0937  0.1597  0.1784
 2637SAP2    P531993  13.331  10.105   9.021  0.2270  0.1434 -0.0562
 2637SAP2   GL131994  13.130  10.319   8.371  0.0753  0.0862 -0.3235
 2637SAP2   GL231995  12.957  10.225   8.209  0.4068  0.3552  0.3099
 2637SAP2   D1A31996  13.298  10.506   8.017 -0.1960  0.3004  0.1219
 2637SAP2   D2A31997  13.761  10.646   8.006  0.1557 -0.1653 -0.1419
 2637SAP2   D3A31998  14.043  10.439   7.713 -0.0188 -0.0363  0.0125
 2637SAP2   D4A31999  14.304  10.597   8.043 -0.2392  0.2053  0.4035
 2637SAP2   C5A32000  14.635  10.536   7.655  0.1306  0.1599 -0.0784
 2637SAP2   C1B32001  12.930  10.202   7.699  0.1640 -0.0884 -0.2342
 2637SAP2   C2B32002  12.962  10.146   7.316  0.0793 -0.0084  0.1007
 2637SAP2   C3B32003  12.886  10.172   6.853  0.0516  0.3737 -0.1876
 2637SAP2   C4B32004  13.015  10.386   6.409  0.0355  0.1228 -0.0520
 2638SAP2    C132005  14.721  16.658   8.358 -0.0549 -0.0900  0.0920
 2638SAP2    C232006  14.886  16.454   8.448  0.0055 -0.0953 -0.0281
 2638SAP2    C332007  14.572  16.414   8.335  0.0583 -0.1385 -0.1607
 2638SAP2    C432008  14.726  16.509   8.381  0.0007 -0.0000  0.0553
 2638SAP2   PO432009  14.958  16.783   8.179  0.0174 -0.0409 -0.1623
 2638SAP2    P432010  14.496  16.098   8.412  0.1086 -0.0234  0.2881
 2638SAP2    P532011  14.871  16.242   8.649  0.0831 -0.0066  0.0648
 2638SAP2   GL132012  15.094  16.565   7.949  0.3828 -0.1268 -0.1404
 2638SAP2   GL232013  15.069  16.720   7.762 -0.3447  0.0782  0.1379
 2638SAP2   D1A32014  15.540  16.408   7.895  0.1097  0.0112 -0.0808
 2638SAP2   D2A32015  15.742  16.756   8.054  0.0040 -0.1407 -0.1079
 2638SAP2   D3A32016  16.049  16.624   8.383 -0.2202  0.1269  0.1417
 2638SAP2   D4A32017  16.180  16.207   8.381  0.1200  0.1820 -0.0909
 2638SAP2   C5A32018  16.526  16.105   8.100 -0.2499 -0.0796  0.0622
 2638SAP2   C1B32019  15.463  16.891   7.653  0.2557  0.0040  0.1377
 2638SAP2   C2B32020  15.889  16.829   7.467  0.1595  0.0425  0.3022
 2638SAP2   C3B32021  16.316  17.049   7.381  0.0830 -0.0904  0.0969
 2638SAP2   C4B32022  16.639  17.320   7.440  0.0282 -0.0570 -0.0069
 2639SAP2    C132023   0.372   0.761   7.910  0.1504  0.1069 -0.1635
 2639SAP2    C232024   0.244   0.728   8.153  0.2016 -0.0005 -0.1507
 2639SAP2    C332025   0.533   0.894   8.106  0.3143 -0.1784 -0.0982
 2639SAP2    C432026   0.383   0.795   8.056  0.0007 -0.0000  0.0553
 2639SAP2   PO432027   0.098   0.760   7.731  0.2184  0.3182  0.0973
 2639SAP2    P432028   0.554   0.918   8.438  0.0540  0.0527 -0.3116
 2639SAP2    P532029   0.221   0.527   8.406  0.0436 -0.3300  0.3483
 2639SAP2   GL132030   0.297   0.528   7.548 -0.0726 -0.1346  0.1012
 2639SAP2   GL232031   0.143   0.604   7.331 -0.3167  0.2229 -0.0431
 2639SAP2   D1A32032   0.612   0.369   7.287  0.1711 -0.0748 -0.4701
 2639SAP2   D2A32033   0.811   0.133   6.914 -0.2735 -0.0922  0.1326
 2639SAP2   D3A32034   0.559   0.094   6.498  0.3477 -0.1858  0.1265
 2639SAP2   D4A32035   1.005   0.041   6.455 -0.1966  0.1975  0.1219
 2639SAP2   C5A32036   0.914  -0.143   6.082 -0.0416  0.0732 -0.1561
 2639SAP2   C1B32037   0.051   0.813   6.901 -0.2647 -0.1030  0.1815
 2639SAP2   C2B32038  -0.134   1.032   6.540  0.1829  0.2164 -0.2397
 2639SAP2   C3B32039  -0.354   1.166   6.168  0.0300 -0.0826 -0.0493
 2639SAP2   C4B32040  -0.333   1.179   5.741 -0.0182  0.0344 -0.1309
 2640SAP2    C132041  12.212   1.095   8.535  0.1586 -0.0067 -0.1509
 2640SAP2    C232042  12.287   1.052   8.798 -0.2293 -0.1287 -0.0536
 2640SAP2    C332043  12.058   1.275   8.695 -0.1374 -0.1372 -0.2816
 2640SAP2    C432044  12.186   1.141   8.676  0.0007 -0.0000  0.0553
 2640SAP2   PO432045  12.245   0.838   8.390  0.0261 -0.1454 -0.0103
 2640SAP2    P432046  11.893   1.350   8.926 -0.0876 -0.3886  0.0589
 2640SAP2    P532047  12.468   1.126   9.092  0.1202  0.4171 -0.0092
 2640SAP2   GL132048  12.524   0.691   8.304 -0.0311 -0.7488 -0.2577
 2640SAP2   GL232049  12.702   0.797   8.104 -0.1632  0.0704 -0.1942
 2640SAP2   D1A32050  12.367   0.370   8.013  0.1551 -0.0149  0.1073
 2640SAP2   D2A32051  12.044   0.174   7.773  0.3149  0.0933  0.0439
 2640SAP2   D3A32052  12.038   0.512   7.501  0.3046  0.0249 -0.1148
 2640SAP2   D4A32053  12.236   0.443   7.084 -0.0010  0.0584 -0.1793
 2640SAP2   C5A32054  12.408   0.876   6.932  0.0927 -0.0815  0.2612
 2640SAP2   C1B32055  12.653   0.732   7.632 -0.0629 -0.1673  0.1769
 2640SAP2   C2B32056  12.701   0.526   7.203  0.2461  0.1204  0.0588
 2640SAP2   C3B32057  12.668   0.450   6.793 -0.1221 -0.0541 -0.0940
 2640SAP2   C4B32058  12.932   0.605   6.436 -0.1813  0.1887  0.0592
 2641SAP2    C132059  13.639   8.920   8.543  0.0583  0.2223  0.2413
 2641SAP2    C232060  13.890   8.831   8.619 -0.0277 -0.3676 -0.0996
 2641SAP2    C332061  13.635   8.896   8.828  0.3135 -0.0342  0.2280
 2641SAP2    C432062  13.721   8.882   8.663  0.0007 -0.0000  0.0553
 2641SAP2   PO432063  13.510   8.788   8.245  0.0249 -0.0228  0.1035
 2641SAP2    P432064  13.722   8.789   9.095  0.0915  0.2462  0.1650
 2641SAP2    P532065  14.073   8.974   8.853 -0.1740  0.1186 -0.1388
 2641SAP2   GL132066  13.189   8.883   8.056 -0.0627 -0.2253 -0.0395
 2641SAP2   GL232067  13.440   8.961   7.870  0.3811  0.0703  0.0430
 2641SAP2   D1A32068  13.149   8.404   7.859  0.1430  0.2030 -0.1652
 2641SAP2   D2A32069  12.826   8.444   7.499  0.0652  0.1623 -0.0511
 2641SAP2   D3A32070  12.520   8.649   7.682  0.2839  0.2086  0.3179
 2641SAP2   D4A32071  12.857   8.910   7.740  0.2781  0.1205  0.1665
 2641SAP2   C5A32072  12.757   9.000   7.316  0.2111  0.3134  0.3239
 2641SAP2   C1B32073  13.464   8.848   7.439 -0.2771  0.1248 -0.2347
 2641SAP2   C2B32074  13.149   8.607   7.184 -0.0376 -0.1913  0.1861
 2641SAP2   C3B32075  12.807   8.748   6.833  0.1992  0.1460 -0.1010
 2641SAP2   C4B32076  12.554   8.799   6.432  0.0936  0.0304 -0.1060
 2642SAP2    C132077   0.144   6.837   8.159 -0.0539 -0.4094  0.1535
 2642SAP2    C232078   0.058   6.874   8.420  0.1445  0.2786  0.1425
 2642SAP2    C332079   0.359   6.755   8.330  0.0606  0.0008  0.2179
 2642SAP2    C432080   0.187   6.822   8.303  0.0007 -0.0000  0.0553
 2642SAP2   PO432081   0.073   7.103   8.003  0.3283 -0.0585  0.0566
 2642SAP2    P432082   0.448   6.661   8.637  0.0714 -0.1685 -0.0372
 2642SAP2    P532083   0.080   6.941   8.706 -0.1702 -0.1086 -0.1856
 2642SAP2   GL132084  -0.131   6.822   7.748  0.1214 -0.1967  0.3053
 2642SAP2   GL232085  -0.344   6.999   7.848 -0.0717 -0.1093 -0.2408
 2642SAP2   D1A32086  -0.043   6.455   7.443 -0.2554  0.0592  0.2192
 2642SAP2   D2A32087  -0.469   6.349   7.294 -0.1221  0.0809  0.1320
 2642SAP2   D3A32088  -0.985   6.338   7.337  0.2710  0.0743 -0.0610
 2642SAP2   D4A32089  -0.723   5.963   7.441 -0.0678 -0.0242 -0.1356
 2642SAP2   C5A32090  -0.876   5.898   7.010  0.0837  0.1067 -0.1634
 2642SAP2   C1B32091  -0.497   6.826   7.457  0.3588 -0.2583  0.0525
 2642SAP2   C2B32092  -0.665   6.717   7.048  0.1082 -0.0954  0.0776
 2642SAP2   C3B32093  -0.680   6.641   6.606 -0.2982 -0.1260 -0.0171
 2642SAP2   C4B32094  -0.801   6.842   6.193 -0.0878  0.1469 -0.0079
 2643SAP2    C132095   2.606   9.798   8.372 -0.0532  0.1176  0.0597
 2643SAP2    C232096   2.811   9.934   8.500 -0.1477  0.0571  0.2803
 2643SAP2    C332097   2.729   9.613   8.554  0.0839 -0.1021 -0.2466
 2643SAP2    C432098   2.715   9.782   8.475  0.0007 -0.0000  0.0553
 2643SAP2   PO432099   2.634   9.815   8.029  0.1594 -0.1611 -0.0380
 2643SAP2    P432100   2.971   9.536   8.739 -0.2589 -0.0284 -0.1841
 2643SAP2    P532101   3.031  10.010   8.712  0.2732  0.0440  0.2964
 2643SAP2   GL132102   2.788   9.769   7.747 -0.1481  0.2080 -0.3269
 2643SAP2   GL232103   3.095   9.806   7.754 -0.2283  0.2796  0.0347
 2643SAP2   D1A32104   2.981   9.534   7.382 -0.1823  0.2165  0.0319
 2643SAP2   D2A32105   2.843   9.090   7.247  0.3873  0.0158 -0.1082
 2643SAP2   D3A32106   2.404   9.244   7.324 -0.0445  0.2036  0.2694
 2643SAP2   D4A32107   2.064   8.965   7.337 -0.1210 -0.0234  0.1188
 2643SAP2   C5A32108   2.301   9.078   7.775  0.0333 -0.2527 -0.0426
 2643SAP2   C1B32109   2.964  10.038   7.341  0.2780 -0.0532  0.2519
 2643SAP2   C2B32110   2.891  10.073   6.893 -0.2045  0.2356 -0.1099
 2643SAP2   C3B32111   2.650   9.909   6.516 -0.3689  0.0314 -0.1046
 2643SAP2   C4B32112   2.475   9.659   6.145  0.0995  0.3032  0.2523
 2644POPC   NC332113  14.533  25.201   3.832 -0.1564  0.1293 -0.2469
 2644POPC   PO432114  14.819  25.339   3.662 -0.1907  0.3007 -0.2959
 2644POPC   GL132115  14.905  25.296   4.043  0.0607 -0.3826 -0.0345
 2644POPC   GL232116  15.090  25.300   4.257 -0.0219 -0.1689 -0.0088
 2644POPC   C1A32117  14.638  25.258   4.436 -0.0890 -0.0942 -0.2379
 2644POPC   D2A32118  14.742  25.408   4.867  0.2003  0.3423  0.1430
 2644POPC   C3A32119  14.956  25.139   5.185 -0.0175  0.1363  0.1127
 2644POPC   C4A32120  15.028  25.147   5.669 -0.2108 -0.3199  0.0958
 2644POPC   C1B32121  15.132  25.056   4.618  0.0445 -0.1080 -0.3155
 2644POPC   C2B32122  15.355  24.906   4.949 -0.0580  0.4029 -0.0715
 2644POPC   C3B32123  15.677  24.686   5.243  0.0382 -0.5068 -0.1935
 2644POPC   C4B32124  15.922  24.465   5.531 -0.2314 -0.0402  0.0229
 2645POPC   NC332125   0.523  31.223   3.637 -0.2086  0.1716 -0.4747
 2645POPC   PO432126   0.168  31.133   3.785  0.3045  0.1307  0.1396
 2645POPC   GL132127   0.044  31.129   4.168 -0.1723  0.0918  0.0457
 2645POPC   GL232128   0.173  30.942   4.334 -0.1303 -0.2489 -0.2448
 2645POPC   C1A32129   0.106  31.403   4.541 -0.0612 -0.0451 -0.2114
 2645POPC   D2A32130   0.199  31.585   5.021 -0.0826  0.2023  0.2370
 2645POPC   C3A32131   0.472  31.596   5.408  0.0412 -0.3568 -0.2605
 2645POPC   C4A32132   0.803  31.459   5.631  0.0835 -0.3295  0.4745
 2645POPC   C1B32133   0.317  30.973   4.743 -0.0214  0.1608 -0.1224
 2645POPC   C2B32134   0.214  31.078   5.185  0.2916 -0.0140 -0.0731
 2645POPC   C3B32135  -0.082  31.354   5.346 -0.2726  0.1856  0.0841
 2645POPC   C4B32136  -0.281  31.693   5.138  0.2032  0.1803  0.1632
 2646POPC   NC332137  13.249   9.184   3.649 -0.0012 -0.2644 -0.1011
 2646POPC   PO432138  13.296   8.888   3.919 -0.1242 -0.0642  0.0393
 2646POPC   GL132139  13.564   8.731   4.257 -0.0865  0.0747 -0.1093
 2646POPC   GL232140  13.571   9.056   4.321 -0.2403 -0.2221  0.1515
 2646POPC   C1A32141  13.897   8.597   4.597  0.0981 -0.0014  0.1059
 2646POPC   D2A32142  14.040   8.659   5.029  0.2298 -0.0984  0.1219
 2646POPC   C3A32143  13.923   8.459   5.403 -0.1108 -0.0302  0.1911
 2646POPC   C4A32144  13.935   8.327   5.857  0.2090 -0.0153  0.0388
 2646POPC   C1B32145  13.819   9.130   4.719  0.2992  0.1538 -0.0339
 2646POPC   C2B32146  13.950   9.446   4.973  0.0764 -0.1980  0.0461
 2646POPC   C3B32147  14.199   9.806   5.167  0.3520  0.1427 -0.1315
 2646POPC   C4B32148  14.244  10.047   5.551 -0.0277  0.0155  0.2555
 2647POPC   NC332149  11.445  18.298   4.071  0.2221  0.0070 -0.3381
 2647POPC   PO432150  11.760  18.204   3.868  0.1179  0.1973 -0.0852
 2647POPC   GL132151  12.066  18.154   4.169  0.3770  0.2155  0.0882
 2647POPC   GL232152  11.989  18.324   4.354  0.1977 -0.2435 -0.0122
 2647POPC   C1A32153  12.422  17.921   4.305 -0.1277 -0.1037  0.2436
 2647POPC   D2A32154  12.846  18.052   4.453  0.0682 -0.1919 -0.0983
 2647POPC   C3A32155  12.689  17.847   4.852 -0.0599  0.2875  0.1912
 2647POPC   C4A32156  12.393  17.531   5.106 -0.1377 -0.0851 -0.3998
 2647POPC   C1B32157  12.164  18.186   4.790  0.1240  0.0415  0.2649
 2647POPC   C2B32158  12.336  18.074   5.172 -0.1376  0.1130 -0.1000
 2647POPC   C3B32159  12.414  18.249   5.603 -0.0015  0.1586 -0.1165
 2647POPC   C4B32160  12.424  18.438   6.060 -0.0172 -0.0736  0.0368
 2648POPC   NC332161   3.904   1.703   3.694 -0.0297  0.3428 -0.3935
 2648POPC   PO432162   4.266   1.895   3.765  0.0546  0.2362  0.1544
 2648POPC   GL132163   4.172   1.818   4.152  0.0173  0.4602  0.0216
 2648POPC   GL232164   3.855   1.808   4.233  0.1108  0.0081  0.0636
 2648POPC   C1A32165   4.505   1.615   4.386  0.1765  0.3297  0.1714
 2648POPC   D2A32166   4.617   1.376   4.729 -0.1555  0.1049 -0.2291
 2648POPC   C3A32167   5.051   1.341   4.924 -0.0566  0.0273 -0.1126
 2648POPC   C4A32168   5.142   1.023   5.213  0.3307  0.0214 -0.4170
 2648POPC   C1B32169   3.674   1.715   4.616 -0.0667  0.1894  0.2566
 2648POPC   C2B32170   3.785   1.470   4.958 -0.1720  0.2964  0.1582
 2648POPC   C3B32171   3.826   1.300   5.374  0.0174 -0.0566  0.2025
 2648POPC   C4B32172   3.517   1.018   5.581  0.2496  0.1085 -0.2595
 2649POPC   NC332173   0.373  14.050   3.734  0.1362 -0.0445  0.1539
 2649POPC   PO432174   0.758  14.113   3.682  0.0526 -0.1141 -0.1893
 2649POPC   GL132175   0.819  13.909   4.066  0.0489  0.3762  0.2277
 2649POPC   GL232176   0.453  13.786   4.130  0.3490  0.1669 -0.0619
 2649POPC   C1A32177   1.176  13.879   4.314 -0.2353 -0.0488  0.1190
 2649POPC   D2A32178   1.519  14.121   4.399  0.1080 -0.2656  0.0114
 2649POPC   C3A32179   1.484  14.157   4.874  0.2354  0.1232  0.0959
 2649POPC   C4A32180   1.240  14.311   5.220  0.1204 -0.1525 -0.1779
 2649POPC   C1B32181   0.680  13.656   4.479 -0.1529 -0.0146  0.3311
 2649POPC   C2B32182   0.706  13.558   4.918  0.1016  0.0552 -0.0965
 2649POPC   C3B32183   0.640  13.349   5.307  0.0486 -0.2848  0.1198
 2649POPC   C4B32184   0.839  13.112   5.637 -0.0596 -0.0375 -0.1679
 2650POPC   NC332185   3.607  10.825   3.904 -0.1976 -0.1672 -0.0169
 2650POPC   PO432186   3.349  10.566   3.819 -0.1649  0.0611 -0.0050
 2650POPC   GL132187   3.275  10.583   4.278 -0.1283 -0.0953 -0.1745
 2650POPC   GL232188   3.153  10.394   4.387  0.3431 -0.1946  0.0955
 2650POPC   C1A32189   3.019  10.804   4.658 -0.1448 -0.0261  0.0413
 2650POPC   D2A32190   2.563  10.829   4.736 -0.2905 -0.1155 -0.1456
 2650POPC   C3A32191   2.437  10.928   5.132  0.0371 -0.1664 -0.2375
 2650POPC   C4A32192   2.488  11.053   5.600 -0.3636 -0.2803 -0.2270
 2650POPC   C1B32193   3.461  10.330   4.710 -0.0385 -0.1375  0.1178
 2650POPC   C2B32194   3.704  10.422   5.108 -0.0747  0.2474 -0.2313
 2650POPC   C3B32195   3.883  10.224   5.513 -0.3364  0.0138 -0.0090
 2650POPC   C4B32196   4.213  10.301   5.831  0.1101  0.1152 -0.0799
 2651POPC   NC332197   4.816  18.454   2.981 -0.3829  0.0293  0.0309
 2651POPC   PO432198   4.542  18.592   3.234 -0.0209  0.0964  0.0481
 2651POPC   GL132199   4.528  18.650   3.590  0.0649  0.1741  0.0279
 2651POPC   GL232200   4.797  18.707   3.637 -0.2404  0.0555  0.0672
 2651POPC   C1A32201   4.154  18.873   3.696 -0.1712  0.0542 -0.3455
 2651POPC   D2A32202   3.837  18.891   3.973 -0.0011  0.1653  0.1655
 2651POPC   C3A32203   3.824  18.517   4.238  0.3040  0.1072  0.1571
 2651POPC   C4A32204   3.889  18.250   4.607  0.1486  0.1490  0.0229
 2651POPC   C1B32205   4.543  18.756   4.012 -0.1046 -0.0142  0.2267
 2651POPC   C2B32206   4.567  18.864   4.478 -0.2447  0.1041  0.0104
 2651POPC   C3B32207   4.438  18.972   4.944 -0.0444 -0.2095  0.1250
 2651POPC   C4B32208   3.987  18.934   5.042  0.2224  0.1516 -0.1845
 2652POPC   NC332209   7.590  29.729   3.730 -0.1357  0.1404 -0.0263
 2652POPC   PO432210   7.822  29.427   3.696  0.1154  0.0254 -0.2281
 2652POPC   GL132211   7.759  29.235   3.923 -0.0389 -0.3246 -0.0052
 2652POPC   GL232212   7.476  29.108   3.948  0.2723  0.0131  0.0258
 2652POPC   C1A32213   7.688  29.195   4.408  0.1266 -0.0933 -0.2244
 2652POPC   D2A32214   7.462  29.156   4.821 -0.0641 -0.0631 -0.3230
 2652POPC   C3A32215   7.336  29.578   4.984 -0.1418 -0.0636  0.1835
 2652POPC   C4A32216   7.202  29.917   5.230  0.0815 -0.2018 -0.0424
 2652POPC   C1B32217   7.333  28.911   4.354  0.0154  0.4214 -0.0272
 2652POPC   C2B32218   6.988  28.952   4.667  0.0864 -0.0275  0.1153
 2652POPC   C3B32219   6.985  29.119   5.134 -0.0256 -0.2783  0.1366
 2652POPC   C4B32220   7.255  29.234   5.502  0.0004 -0.4128 -0.0074
 2653POPC   NC332221   5.026  25.101   3.867  0.2093  0.0248 -0.0047
 2653POPC   PO432222   4.708  25.273   4.061 -0.2116 -0.0017 -0.0248
 2653POPC   GL132223   4.918  25.248   4.450 -0.0270 -0.3169  0.0472
 2653POPC   GL232224   5.197  25.160   4.383  0.2449 -0.0545  0.1805
 2653POPC   C1A32225   4.654  25.321   4.848 -0.1055 -0.0772 -0.0209
 2653POPC   D2A32226   4.360  25.403   5.142 -0.0185 -0.3318 -0.0240
 2653POPC   C3A32227   3.912  25.184   5.209 -0.0530  0.1471  0.1092
 2653POPC   C4A32228   3.474  25.154   5.327 -0.2829 -0.1938  0.3959
 2653POPC   C1B32229   5.174  25.237   4.867  0.2794  0.0224 -0.4215
 2653POPC   C2B32230   5.274  24.981   5.265  0.0208  0.0294 -0.2949
 2653POPC   C3B32231   5.317  24.511   5.408 -0.0016  0.0486 -0.1459
 2653POPC   C4B32232   5.481  24.332   5.822 -0.0566  0.4061  0.1823
 2654POPC   NC332233  10.689   0.336   3.971 -0.2555  0.2372 -0.1728
 2654POPC   PO432234  10.372   0.206   3.792 -0.2251 -0.0034  0.0790
 2654POPC   GL132235  10.241   0.264   4.085  0.0674 -0.0589 -0.2618
 2654POPC   GL232236   9.937   0.305   4.036 -0.4006  0.1726 -0.3236
 2654POPC   C1A32237  10.470   0.214   4.436  0.2228 -0.1423  0.3751
 2654POPC   D2A32238  10.646   0.357   4.846  0.0205  0.1695 -0.2389
 2654POPC   C3A32239  10.400   0.571   5.200  0.2447 -0.0511  0.1484
 2654POPC   C4A32240   9.994   0.584   5.460  0.2175 -0.1919  0.1199
 2654POPC   C1B32241   9.610   0.165   4.328  0.0829  0.0757 -0.0887
 2654POPC   C2B32242   9.513   0.149   4.808 -0.0487  0.1428 -0.1991
 2654POPC   C3B32243   9.768  -0.164   5.154 -0.0503  0.2004 -0.0083
 2654POPC   C4B32244  10.013  -0.412   5.505 -0.1725 -0.2883 -0.1919
 2655POPC   NC332245  14.270  25.528   3.373  0.1143 -0.0870 -0.0654
 2655POPC   PO432246  14.141  25.455   3.739  0.0776 -0.0981 -0.1453
 2655POPC   GL132247  13.910  25.554   4.108 -0.1360  0.1856  0.0163
 2655POPC   GL232248  13.727  25.707   3.979  0.0148 -0.0281 -0.0076
 2655POPC   C1A32249  14.168  25.677   4.422 -0.1134 -0.1202  0.3384
 2655POPC   D2A32250  14.329  25.684   4.862  0.2442 -0.3567 -0.1138
 2655POPC   C3A32251  13.911  25.874   4.991  0.2433 -0.1187 -0.0607
 2655POPC   C4A32252  13.687  26.231   5.139  0.3564 -0.0041 -0.1915
 2655POPC   C1B32253  13.824  26.011   4.294 -0.2151  0.0469 -0.4655
 2655POPC   C2B32254  13.643  26.186   4.676  0.0885 -0.1050  0.1198
 2655POPC   C3B32255  13.347  26.514   4.917 -0.0209 -0.2184 -0.0267
 2655POPC   C4B32256  13.144  26.959   4.975  0.2152  0.2543 -0.0664
 2656POPC   NC332257   7.796  17.918   3.317 -0.0226 -0.1115  0.0976
 2656POPC   PO432258   7.732  18.300   3.469  0.3710  0.3172  0.1137
 2656POPC   GL132259   7.543  18.445   3.920  0.1984 -0.2777  0.0408
 2656POPC   GL232260   7.436  18.210   3.916  0.1686 -0.2158  0.2664
 2656POPC   C1A32261   7.484  18.317   4.388 -0.0722 -0.0213  0.1986
 2656POPC   D2A32262   7.497  18.290   4.860 -0.0057 -0.1377  0.2804
 2656POPC   C3A32263   7.510  18.220   5.306  0.0811 -0.0199  0.1429
 2656POPC   C4A32264   7.609  18.133   5.724  0.0328 -0.1105 -0.2910
 2656POPC   C1B32265   7.742  18.024   4.079  0.1076  0.0389  0.0694
 2656POPC   C2B32266   8.125  18.084   4.328 -0.0741  0.0421  0.1308
 2656POPC   C3B32267   8.267  18.147   4.776 -0.3899 -0.2440 -0.1439
 2656POPC   C4B32268   8.417  18.424   5.104  0.0052  0.1065  0.2669
 2657POPC   NC332269  13.400  30.764   3.232  0.1586  0.0090  0.2403
 2657POPC   PO432270  13.234  31.088   3.419 -0.6355  0.1274 -0.0170
 2657POPC   GL132271  13.446  31.106   3.808  0.3391 -0.3126  0.0051
 2657POPC   GL232272  13.232  31.025   3.990  0.0887 -0.0835  0.1950
 2657POPC   C1A32273  13.597  31.356   4.181 -0.1556  0.1312  0.5247
 2657POPC   D2A32274  13.407  31.208   4.577 -0.1050 -0.1768  0.2744
 2657POPC   C3A32275  13.192  31.545   4.861  0.3681 -0.0475  0.0679
 2657POPC   C4A32276  12.885  31.537   5.227 -0.0861  0.1158  0.1809
 2657POPC   C1B32277  13.042  30.901   4.410 -0.1608 -0.0063 -0.0510
 2657POPC   C2B32278  13.091  30.628   4.785 -0.2124  0.1139  0.1395
 2657POPC   C3B32279  13.204  30.658   5.284 -0.1641 -0.0312 -0.1935
 2657POPC   C4B32280  13.457  30.932   5.672  0.0523 -0.1040 -0.0171
 2658POPC   NC332281   0.297   7.512   3.653 -0.2911 -0.0719 -0.0014
 2658POPC   PO432282   0.018   7.790   3.734 -0.0526 -0.1795  0.2107
 2658POPC   GL132283  -0.007   7.961   4.068 -0.0009 -0.1333 -0.0864
 2658POPC   GL232284   0.340   8.136   4.065 -0.2361  0.3925 -0.0227
 2658POPC   C1A32285   0.002   7.812   4.509 -0.1018 -0.1533  0.1712
 2658POPC   D2A32286   0.142   7.941   4.952  0.0311 -0.2467  0.0417
 2658POPC   C3A32287  -0.085   8.033   5.343 -0.0710  0.0052 -0.0424
 2658POPC   C4A32288  -0.013   8.086   5.808 -0.0278 -0.0354  0.1515
 2658POPC   C1B32289   0.451   8.204   4.552  0.2391 -0.0489  0.0295
 2658POPC   C2B32290   0.437   8.406   4.980  0.0959  0.1017 -0.1451
 2658POPC   C3B32291   0.337   8.318   5.429  0.3800  0.0156 -0.1265
 2658POPC   C4B32292   0.428   7.908   5.603 -0.2612 -0.0041 -0.1749
 2659POPC   NC332293   9.029  19.010   3.676 -0.1172 -0.0391  0.3482
 2659POPC   PO432294   9.321  19.053   3.408 -0.2707  0.1120 -0.2084
 2659POPC   GL132295   9.516  18.996   3.826 -0.1700 -0.0463 -0.0006
 2659POPC   GL232296   9.377  18.848   3.994 -0.1929  0.2841  0.1803
 2659POPC   C1A32297   9.418  19.286   4.174 -0.3116  0.2960 -0.1988
 2659POPC   D2A32298   9.082  19.472   4.510 -0.0219 -0.2616 -0.1044
 2659POPC   C3A32299   9.096  19.258   4.916  0.1169  0.3335  0.0202
 2659POPC   C4A32300   8.821  19.127   5.234 -0.3236 -0.2304  0.0400
 2659POPC   C1B32301   9.323  18.941   4.481  0.2713 -0.3165 -0.1772
 2659POPC   C2B32302   9.576  19.150   4.790 -0.1461 -0.0328  0.0726
 2659POPC   C3B32303   9.471  19.286   5.219 -0.1181  0.0838 -0.1844
 2659POPC   C4B32304   9.419  19.550   5.640 -0.3400 -0.2205 -0.0100
 2660POPC   NC332305   4.692  22.083   3.945 -0.3336 -0.0386 -0.2175
 2660POPC   PO432306   4.903  21.780   3.958 -0.1433 -0.0493 -0.0094
 2660POPC   GL132307   4.737  21.854   4.354  0.1478 -0.1808  0.1450
 2660POPC   GL232308   5.047  21.841   4.420 -0.0817  0.1531  0.1100
 2660POPC   C1A32309   4.755  21.997   4.783 -0.2236 -0.3906  0.2373
 2660POPC   D2A32310   4.746  22.219   5.166  0.1694 -0.1142  0.1349
 2660POPC   C3A32311   4.441  21.857   5.301  0.0286 -0.2051  0.3346
 2660POPC   C4A32312   4.025  21.765   5.030 -0.0415 -0.2029  0.0661
 2660POPC   C1B32313   5.105  21.658   4.849  0.0746 -0.0866 -0.3812
 2660POPC   C2B32314   5.250  21.400   5.182 -0.0614 -0.1157 -0.1363
 2660POPC   C3B32315   5.379  21.255   5.565 -0.3003  0.2254  0.1142
 2660POPC   C4B32316   5.786  21.209   5.763 -0.1296  0.1136 -0.0126
 2661POPC   NC332317  11.947  13.613   3.886 -0.4386  0.1792  0.0752
 2661POPC   PO432318  11.625  13.808   3.716 -0.2621  0.1891  0.0882
 2661POPC   GL132319  11.487  13.512   3.895  0.1048 -0.0879 -0.2466
 2661POPC   GL232320  11.240  13.601   4.029 -0.0909 -0.2475 -0.1759
 2661POPC   C1A32321  11.580  13.485   4.373  0.1101 -0.1686  0.0415
 2661POPC   D2A32322  11.672  13.468   4.863 -0.0763 -0.2605 -0.2420
 2661POPC   C3A32323  11.775  13.754   5.211 -0.2555  0.1054  0.1109
 2661POPC   C4A32324  11.778  13.760   5.666 -0.3589 -0.4083  0.0815
 2661POPC   C1B32325  10.928  13.412   4.269  0.2092 -0.0681 -0.0753
 2661POPC   C2B32326  10.736  13.428   4.705  0.2023 -0.2923 -0.0297
 2661POPC   C3B32327  10.711  13.430   5.147  0.0169 -0.2145 -0.3120
 2661POPC   C4B32328  10.435  13.090   5.317  0.0367 -0.3983 -0.0700
 2662POPC   NC332329   8.384  20.225   3.341  0.2034 -0.0699  0.0057
 2662POPC   PO432330   8.360  19.872   3.585  0.1518 -0.0602  0.2301
 2662POPC   GL132331   8.578  19.899   3.852  0.2767 -0.0998 -0.4733
 2662POPC   GL232332   8.564  20.149   4.049 -0.2637 -0.0121  0.3483
 2662POPC   C1A32333   8.907  19.649   4.106  0.1852 -0.0142 -0.1424
 2662POPC   D2A32334   8.923  19.170   4.143 -0.0311  0.1708  0.0528
 2662POPC   C3A32335   8.800  18.861   4.462  0.1519 -0.1231 -0.0981
 2662POPC   C4A32336   8.819  18.702   4.950 -0.1785  0.0435 -0.0488
 2662POPC   C1B32337   8.375  20.328   4.454  0.2411  0.3851 -0.1465
 2662POPC   C2B32338   8.276  20.306   4.924 -0.3214  0.1282  0.1821
 2662POPC   C3B32339   8.525  20.188   5.303 -0.1643 -0.2796 -0.0858
 2662POPC   C4B32340   8.531  20.285   5.780  0.2211 -0.3015 -0.2623
 2663POPC   NC332341  11.321  27.051   4.016 -0.2710 -0.1017  0.1946
 2663POPC   PO432342  11.386  27.342   3.747  0.2305  0.2393  0.0858
 2663POPC   GL132343  11.715  27.325   3.915  0.0511 -0.0400  0.1216
 2663POPC   GL232344  11.865  27.091   3.823 -0.0102  0.2063 -0.1874
 2663POPC   C1A32345  11.821  27.609   4.302 -0.1812  0.2325  0.2179
 2663POPC   D2A32346  11.951  27.726   4.750  0.0717  0.3499  0.2878
 2663POPC   C3A32347  11.872  27.553   5.164  0.0595  0.2562  0.0303
 2663POPC   C4A32348  11.602  27.239   5.339  0.1238 -0.0266 -0.4405
 2663POPC   C1B32349  12.130  27.255   4.139 -0.2504 -0.2278 -0.2962
 2663POPC   C2B32350  12.387  27.407   4.562 -0.0665  0.1183  0.0259
 2663POPC   C3B32351  12.402  27.627   4.943  0.0561 -0.0825 -0.1593
 2663POPC   C4B32352  12.709  27.592   5.277 -0.1754  0.2334 -0.1110
 2664POPC   NC332353  10.184   9.502   3.519  0.3075 -0.0747 -0.2380
 2664POPC   PO432354  10.080   9.874   3.403  0.0155 -0.1836 -0.1460
 2664POPC   GL132355  10.003   9.841   3.814 -0.0700  0.2290  0.4342
 2664POPC   GL232356   9.765   9.796   3.846 -0.0541 -0.0682  0.1100
 2664POPC   C1A32357  10.164   9.576   4.159  0.1544  0.0440  0.2266
 2664POPC   D2A32358  10.046   9.231   4.454  0.1218 -0.1006 -0.1952
 2664POPC   C3A32359   9.817   9.252   4.831  0.4208 -0.3270 -0.2011
 2664POPC   C4A32360   9.597   9.373   5.187  0.1552 -0.0570  0.0636
 2664POPC   C1B32361   9.751  10.025   4.240  0.1685 -0.1603 -0.0729
 2664POPC   C2B32362  10.012  10.147   4.619 -0.2027  0.2519  0.2910
 2664POPC   C3B32363  10.238  10.053   5.035 -0.0370  0.1551  0.3386
 2664POPC   C4B32364  10.585   9.885   5.344  0.0382  0.0206  0.2088
 2665POPC   NC332365   4.267  29.698   3.644  0.0208 -0.1463 -0.1016
 2665POPC   PO432366   4.268  29.329   3.659  0.0842 -0.2262  0.1818
 2665POPC   GL132367   4.246  29.256   4.014 -0.1411  0.0926 -0.0369
 2665POPC   GL232368   4.376  29.500   4.134  0.3491  0.1934 -0.0335
 2665POPC   C1A32369   4.514  29.132   4.374 -0.0647  0.2136  0.0405
 2665POPC   D2A32370   4.548  29.165   4.819  0.0401 -0.0968  0.1857
 2665POPC   C3A32371   4.597  29.558   4.891 -0.1510  0.1981  0.0214
 2665POPC   C4A32372   4.824  29.849   5.098 -0.1340 -0.0006 -0.4196
 2665POPC   C1B32373   4.226  29.561   4.574  0.0035  0.0897 -0.3397
 2665POPC   C2B32374   3.855  29.685   4.830  0.0413  0.2932  0.0481
 2665POPC   C3B32375   3.656  29.978   5.123 -0.2408  0.1202 -0.1143
 2665POPC   C4B32376   3.388  30.363   5.169 -0.4485  0.0106 -0.1734
 2666POPC   NC332377  15.661  21.262   3.235 -0.2900 -0.1069  0.0408
 2666POPC   PO432378  15.392  21.300   3.525 -0.3424 -0.0494 -0.1485
 2666POPC   GL132379  15.221  21.566   3.726 -0.1156  0.2376  0.3077
 2666POPC   GL232380  15.120  21.377   3.905  0.2276 -0.2896 -0.1861
 2666POPC   C1A32381  15.085  21.842   4.093 -0.0339  0.1261 -0.0658
 2666POPC   D2A32382  15.111  21.870   4.563 -0.1334  0.0477 -0.0029
 2666POPC   C3A32383  15.060  21.945   5.015 -0.0804  0.0146 -0.1814
 2666POPC   C4A32384  14.891  21.955   5.484  0.0804  0.1603 -0.0029
 2666POPC   C1B32385  14.853  21.133   4.185  0.1576 -0.2786 -0.1378
 2666POPC   C2B32386  14.812  21.080   4.669 -0.1323  0.0730  0.0252
 2666POPC   C3B32387  14.587  21.134   5.105  0.1049  0.2613  0.0041
 2666POPC   C4B32388  14.317  21.479   5.285 -0.2033 -0.1007 -0.1708
 2667POPC   NC332389  13.223   2.485   3.614 -0.1910  0.0859  0.2607
 2667POPC   PO432390  13.579   2.393   3.814  0.2340 -0.0464  0.0206
 2667POPC   GL132391  13.742   2.435   4.185  0.1222  0.2360 -0.1298
 2667POPC   GL232392  13.554   2.217   4.296  0.3988  0.3902 -0.1496
 2667POPC   C1A32393  13.982   2.451   4.608 -0.1110 -0.0315  0.1668
 2667POPC   D2A32394  14.350   2.472   4.880 -0.0389  0.1219 -0.1221
 2667POPC   C3A32395  14.677   2.726   5.174 -0.2377  0.0496 -0.2077
 2667POPC   C4A32396  14.822   2.836   5.598 -0.0297  0.4505 -0.2561
 2667POPC   C1B32397  13.794   1.957   4.554 -0.0003  0.1038  0.2543
 2667POPC   C2B32398  13.993   2.132   4.968  0.2650 -0.2801 -0.2194
 2667POPC   C3B32399  14.213   2.144   5.353  0.2095  0.3858  0.2083
 2667POPC   C4B32400  14.471   2.305   5.637 -0.0439 -0.4546 -0.3110
 2668POPC   NC332401   2.421  27.394   3.655 -0.4028  0.0443 -0.0787
 2668POPC   PO432402   2.648  27.609   3.418 -0.2075  0.0530 -0.0502
 2668POPC   GL132403   2.713  27.749   3.776 -0.0788  0.2264 -0.1589
 2668POPC   GL232404   2.851  27.602   4.081 -0.2351 -0.1498  0.1901
 2668POPC   C1A32405   2.398  27.707   4.126 -0.1099 -0.0375 -0.2408
 2668POPC   D2A32406   2.408  27.799   4.549 -0.1358 -0.1206 -0.0955
 2668POPC   C3A32407   2.444  27.597   4.944  0.0108 -0.1074 -0.2250
 2668POPC   C4A32408   2.700  27.433   5.257  0.0812 -0.0734 -0.0643
 2668POPC   C1B32409   2.790  27.491   4.463  0.1034  0.2944 -0.0374
 2668POPC   C2B32410   2.939  27.565   4.847 -0.4577 -0.0620  0.1508
 2668POPC   C3B32411   3.222  27.556   5.265  0.0041 -0.3731  0.0785
 2668POPC   C4B32412   3.364  27.247   5.584  0.0144 -0.2014  0.0849
 2669POPC   NC332413   0.395  17.984   4.082 -0.0345  0.0190 -0.2765
 2669POPC   PO432414   0.142  17.726   4.041  0.3880  0.3665 -0.1363
 2669POPC   GL132415   0.244  17.568   4.316 -0.2682  0.2437  0.0828
 2669POPC   GL232416   0.376  17.248   4.347 -0.2021 -0.2628 -0.1189
 2669POPC   C1A32417  -0.065  17.350   4.567 -0.2447  0.1766 -0.1788
 2669POPC   D2A32418  -0.308  17.216   4.882  0.2564  0.1677  0.1630
 2669POPC   C3A32419  -0.298  17.291   5.347 -0.3005  0.2027  0.4601
 2669POPC   C4A32420   0.039  17.486   5.645  0.3825 -0.2620 -0.0814
 2669POPC   C1B32421   0.406  17.227   4.786 -0.2966  0.0109 -0.0486
 2669POPC   C2B32422   0.336  17.091   5.230  0.0841  0.3359  0.3348
 2669POPC   C3B32423   0.258  17.006   5.664  0.0954  0.3113  0.1608
 2669POPC   C4B32424   0.149  17.145   6.052  0.3070  0.0395 -0.0771
 2670POPC   NC332425   1.128  11.655   4.063  0.0828 -0.0434  0.0792
 2670POPC   PO432426   0.737  11.777   3.902  0.0092  0.1136  0.1816
 2670POPC   GL132427   0.735  11.882   4.253 -0.1704 -0.0087  0.0892
 2670POPC   GL232428   0.467  11.753   4.322  0.0981 -0.0129  0.0862
 2670POPC   C1A32429   1.050  11.824   4.570  0.1243  0.2236 -0.1946
 2670POPC   D2A32430   1.344  12.104   4.773 -0.2676 -0.2706  0.0659
 2670POPC   C3A32431   1.556  11.879   5.069  0.0848 -0.0133 -0.2571
 2670POPC   C4A32432   1.666  11.429   5.122  0.1493  0.0239  0.1081
 2670POPC   C1B32433   0.172  11.584   4.639  0.2437  0.1934 -0.0429
 2670POPC   C2B32434   0.203  11.592   5.125  0.0524  0.0074 -0.1121
 2670POPC   C3B32435   0.452  11.784   5.504  0.0739 -0.1229 -0.1033
 2670POPC   C4B32436   0.910  11.697   5.580  0.1059  0.0735  0.1360
 2671POPC   NC332437   3.252  13.938   3.768  0.2343 -0.0857 -0.2079
 2671POPC   PO432438   3.175  13.680   3.490 -0.1807 -0.1366 -0.0002
 2671POPC   GL132439   2.957  13.568   3.914  0.0995  0.1856 -0.0135
 2671POPC   GL232440   2.728  13.811   3.915 -0.1747  0.0204 -0.0107
 2671POPC   C1A32441   3.146  13.413   4.357 -0.2909  0.2221 -0.0890
 2671POPC   D2A32442   2.952  13.354   4.742 -0.0368  0.1728  0.1687
 2671POPC   C3A32443   3.061  13.300   5.160  0.3412  0.1937  0.3916
 2671POPC   C4A32444   2.963  13.245   5.506  0.0700 -0.0889 -0.2012
 2671POPC   C1B32445   2.995  13.864   4.311  0.1856  0.1798  0.0803
 2671POPC   C2B32446   3.375  13.829   4.454 -0.1165  0.0091  0.1897
 2671POPC   C3B32447   3.772  13.628   4.721 -0.0931  0.1807  0.1508
 2671POPC   C4B32448   4.064  13.260   4.800  0.3129 -0.0642 -0.2610
 2672POPC   NC332449  10.066  25.642   3.354 -0.3266  0.0758 -0.0341
 2672POPC   PO432450   9.992  25.784   3.707  0.0164  0.2776  0.0696
 2672POPC   GL132451  10.110  25.782   4.144  0.0277  0.4384 -0.1685
 2672POPC   GL232452   9.993  25.469   4.227 -0.1420  0.1720 -0.2026
 2672POPC   C1A32453   9.889  25.865   4.568  0.2641  0.2949  0.1967
 2672POPC   D2A32454   9.988  25.869   4.970 -0.0800 -0.2138 -0.3280
 2672POPC   C3A32455   9.579  25.799   5.165  0.0152  0.2059 -0.3014
 2672POPC   C4A32456   9.340  25.817   5.576  0.1099 -0.0109  0.3562
 2672POPC   C1B32457   9.922  25.411   4.668  0.1706 -0.1695  0.0097
 2672POPC   C2B32458   9.917  25.372   5.122  0.0049  0.1406  0.2379
 2672POPC   C3B32459   9.966  25.475   5.575 -0.0846  0.1815  0.1392
 2672POPC   C4B32460  10.212  25.757   5.831  0.3108 -0.0873 -0.0618
 2673POPC   NC332461   9.925  14.991   3.488  0.1746  0.0159 -0.2923
 2673POPC   PO432462  10.275  14.886   3.653 -0.0754  0.0569  0.1323
 2673POPC   GL132463  10.212  14.656   3.960 -0.0141  0.2529 -0.2843
 2673POPC   GL232464  10.305  14.836   4.156 -0.0968  0.0128  0.2440
 2673POPC   C1A32465  10.063  14.435   4.343  0.3483  0.1269 -0.1159
 2673POPC   D2A32466  10.191  14.363   4.722 -0.1089  0.1039 -0.0489
 2673POPC   C3A32467  10.419  14.330   5.109  0.1843 -0.0773 -0.2658
 2673POPC   C4A32468  10.681  14.265   5.426 -0.0709 -0.4545 -0.2919
 2673POPC   C1B32469  10.514  14.962   4.557 -0.1089  0.0894  0.0698
 2673POPC   C2B32470  10.553  14.882   5.009 -0.0316  0.2676  0.1558
 2673POPC   C3B32471  10.495  14.685   5.435  0.0142  0.2852  0.0195
 2673POPC   C4B32472  10.233  14.619   5.810  0.2697 -0.2096  0.4054
 2674POPC   NC332473   2.302   2.625   3.467  0.0339  0.1918 -0.3094
 2674POPC   PO432474   2.566   2.394   3.655  0.0418 -0.0139 -0.1822
 2674POPC   GL132475   2.835   2.602   3.989 -0.2251 -0.2465  0.0290
 2674POPC   GL232476   3.176   2.598   3.969  0.1792 -0.0794 -0.0830
 2674POPC   C1A32477   2.568   2.797   4.334  0.2925  0.1374 -0.0095
 2674POPC   D2A32478   2.251   2.625   4.674 -0.0168  0.1191  0.0037
 2674POPC   C3A32479   1.905   2.440   4.483  0.2264  0.0940  0.1094
 2674POPC   C4A32480   1.768   2.196   4.113 -0.0617  0.1394  0.0919
 2674POPC   C1B32481   3.467   2.636   4.345 -0.0604 -0.0342 -0.0890
 2674POPC   C2B32482   3.551   2.531   4.802  0.1074 -0.0926 -0.2014
 2674POPC   C3B32483   3.603   2.495   5.277 -0.2325  0.3637  0.0427
 2674POPC   C4B32484   3.611   2.439   5.680  0.2052  0.1528 -0.2172
 2675POPC   NC332485  12.870   7.739   3.842 -0.0687  0.0827  0.0203
 2675POPC   PO432486  12.599   7.998   3.835 -0.0398 -0.2095 -0.1652
 2675POPC   GL132487  12.624   8.159   4.235 -0.0425  0.3959  0.4491
 2675POPC   GL232488  12.568   7.861   4.322 -0.0223  0.1599  0.4512
 2675POPC   C1A32489  12.764   8.495   4.523 -0.2856  0.0177  0.2226
 2675POPC   D2A32490  12.902   8.825   4.819  0.2336  0.2704 -0.0314
 2675POPC   C3A32491  12.612   8.928   5.193 -0.2820 -0.1035 -0.1145
 2675POPC   C4A32492  12.618   8.896   5.643  0.1481  0.0997  0.0366
 2675POPC   C1B32493  12.733   7.765   4.746  0.1163 -0.1963 -0.0787
 2675POPC   C2B32494  12.720   7.875   5.211 -0.1050  0.1980  0.1844
 2675POPC   C3B32495  12.865   8.106   5.571 -0.0016  0.1422 -0.1457
 2675POPC   C4B32496  12.953   8.541   5.723 -0.1566  0.4681  0.1506
 2676POPC   NC332497   1.063  26.363   3.301 -0.1217 -0.3025  0.1123
 2676POPC   PO432498   1.114  26.324   3.703  0.1218 -0.2048  0.1846
 2676POPC   GL132499   1.464  26.244   3.869 -0.3448  0.1303 -0.0062
 2676POPC   GL232500   1.409  25.986   3.992 -0.1948  0.0392  0.1807
 2676POPC   C1A32501   1.762  26.232   4.297  0.1467 -0.0671  0.1329
 2676POPC   D2A32502   2.148  26.294   4.564  0.0917  0.1922 -0.1064
 2676POPC   C3A32503   2.491  26.061   4.355  0.1518  0.1380 -0.4716
 2676POPC   C4A32504   2.860  25.849   4.172 -0.4124 -0.1452 -0.1128
 2676POPC   C1B32505   1.225  26.169   4.363  0.0618  0.1825 -0.0500
 2676POPC   C2B32506   1.023  26.221   4.786 -0.0114  0.1351  0.0704
 2676POPC   C3B32507   1.066  26.362   5.241  0.1009  0.0237  0.2189
 2676POPC   C4B32508   1.222  26.111   5.613  0.1365 -0.0400  0.2584
 2677POPC   NC332509   7.216  25.255   3.296 -0.2104  0.3466 -0.1397
 2677POPC   PO432510   7.183  25.461   3.671 -0.0586 -0.0148 -0.0995
 2677POPC   GL132511   7.052  25.666   3.952 -0.1216 -0.0759 -0.0467
 2677POPC   GL232512   6.960  25.465   4.145  0.0639 -0.0620 -0.1878
 2677POPC   C1A32513   7.414  25.682   4.314  0.0105  0.0527  0.2430
 2677POPC   D2A32514   7.705  25.411   4.665 -0.1492  0.0510  0.1985
 2677POPC   C3A32515   7.589  25.327   5.033 -0.1534 -0.3128  0.1132
 2677POPC   C4A32516   7.537  25.197   5.497  0.2199 -0.0955  0.1343
 2677POPC   C1B32517   7.144  25.241   4.456 -0.0494  0.0842  0.2186
 2677POPC   C2B32518   7.411  24.953   4.732 -0.2266 -0.0614  0.0020
 2677POPC   C3B32519   7.510  24.845   5.156  0.0645 -0.2051 -0.1681
 2677POPC   C4B32520   7.929  24.976   5.266 -0.0086 -0.2556 -0.2275
 2678POPC   NC332521  13.381  14.520   3.639  0.1117  0.0674  0.0144
 2678POPC   PO432522  13.021  14.655   3.614  0.3181  0.1717 -0.1509
 2678POPC   GL132523  12.864  14.558   3.946  0.1795 -0.1778 -0.2025
 2678POPC   GL232524  12.619  14.735   4.060 -0.2043 -0.1295 -0.0093
 2678POPC   C1A32525  12.968  14.422   4.388 -0.3188  0.1543 -0.0202
 2678POPC   D2A32526  12.848  14.504   4.841 -0.1158 -0.0168 -0.0726
 2678POPC   C3A32527  12.544  14.454   5.138 -0.1001  0.1774 -0.0055
 2678POPC   C4A32528  12.606  14.212   5.500  0.0145  0.3576 -0.0531
 2678POPC   C1B32529  12.796  14.900   4.491  0.2167  0.4039 -0.4379
 2678POPC   C2B32530  13.100  14.945   4.809 -0.0794  0.1078 -0.3140
 2678POPC   C3B32531  13.110  14.840   5.255 -0.1741 -0.1700 -0.0559
 2678POPC   C4B32532  13.115  15.061   5.666 -0.0309  0.3144 -0.0960
 2679POPC   NC332533   6.123   7.167   3.908  0.0268 -0.1786 -0.0973
 2679POPC   PO432534   5.859   7.479   3.921 -0.0115  0.2099 -0.1093
 2679POPC   GL132535   5.876   7.435   4.353 -0.0268  0.0875  0.1502
 2679POPC   GL232536   5.862   7.741   4.454 -0.0576 -0.3649  0.2716
 2679POPC   C1A32537   6.025   7.358   4.785 -0.4412 -0.4206  0.0002
 2679POPC   D2A32538   6.081   7.311   5.265 -0.1396 -0.4620  0.0365
 2679POPC   C3A32539   6.352   7.491   5.529 -0.2618 -0.2918  0.4349
 2679POPC   C4A32540   6.861   7.500   5.530 -0.0299  0.1259 -0.2123
 2679POPC   C1B32541   6.181   8.060   4.589  0.2023  0.0549  0.0448
 2679POPC   C2B32542   6.385   8.220   4.903 -0.1990 -0.2592 -0.3926
 2679POPC   C3B32543   6.607   8.286   5.310  0.2200 -0.1057 -0.1823
 2679POPC   C4B32544   6.926   8.030   5.555 -0.0453 -0.2455  0.2726
 2680POPC   NC332545   5.614   5.305   3.925  0.0729 -0.1589  0.4002
 2680POPC   PO432546   5.771   5.665   3.889  0.0295 -0.0250 -0.2143
 2680POPC   GL132547   5.745   5.731   4.268 -0.2554 -0.2228 -0.2775
 2680POPC   GL232548   5.531   5.944   4.295  0.0001  0.2798  0.0058
 2680POPC   C1A32549   5.967   5.730   4.670  0.0170 -0.0234 -0.2214
 2680POPC   D2A32550   5.946   5.834   5.159 -0.0189  0.1974  0.2187
 2680POPC   C3A32551   6.236   5.754   5.491 -0.1051  0.1512 -0.1370
 2680POPC   C4A32552   6.596   5.592   5.832 -0.0295 -0.2997  0.0444
 2680POPC   C1B32553   5.451   5.900   4.725 -0.0610  0.2149 -0.1403
 2680POPC   C2B32554   5.428   6.095   5.148 -0.0447  0.0788 -0.2024
 2680POPC   C3B32555   5.466   6.324   5.558  0.1580 -0.0297  0.3247
 2680POPC   C4B32556   5.142   6.283   5.884 -0.3420 -0.0456 -0.1363
 2681POPC   NC332557   8.106  20.384   4.049 -0.1036  0.1257  0.1239
 2681POPC   PO432558   8.313  20.511   3.758 -0.1171 -0.0235  0.1622
 2681POPC   GL132559   8.495  20.714   4.092  0.2326 -0.2159  0.0633
 2681POPC   GL232560   8.764  20.628   4.233  0.2924  0.2416  0.3648
 2681POPC   C1A32561   8.554  21.097   4.372  0.3012  0.0897 -0.1531
 2681POPC   D2A32562   8.793  21.223   4.774  0.0584 -0.0478  0.1480
 2681POPC   C3A32563   8.601  21.333   5.223 -0.0446  0.2235  0.0047
 2681POPC   C4A32564   8.799  21.270   5.591  0.1628  0.0244 -0.0064
 2681POPC   C1B32565   8.920  20.445   4.632 -0.1004  0.1348 -0.1219
 2681POPC   C2B32566   9.008  20.232   5.064 -0.1813  0.0713 -0.1535
 2681POPC   C3B32567   8.944  20.052   5.478 -0.2028 -0.0934 -0.1924
 2681POPC   C4B32568   9.043  19.939   5.921  0.0256 -0.0317 -0.1492
 2682POPC   NC332569   1.780  13.889   3.891 -0.0931 -0.1467 -0.0860
 2682POPC   PO432570   1.794  14.233   3.719  0.3761 -0.2897 -0.1061
 2682POPC   GL132571   1.848  14.453   4.065  0.2352  0.3340 -0.0806
 2682POPC   GL232572   2.006  14.266   4.263 -0.2303 -0.0541  0.1204
 2682POPC   C1A32573   1.722  14.637   4.493 -0.0776  0.1837 -0.3246
 2682POPC   D2A32574   1.767  14.650   4.968 -0.3113 -0.0234 -0.0542
 2682POPC   C3A32575   2.027  14.711   5.352  0.0975  0.0577  0.1597
 2682POPC   C4A32576   2.237  14.708   5.753  0.0154  0.1937  0.0256
 2682POPC   C1B32577   2.017  14.219   4.727  0.1370  0.1580 -0.1855
 2682POPC   C2B32578   1.930  14.251   5.197 -0.2275 -0.2421 -0.2518
 2682POPC   C3B32579   1.771  14.150   5.616  0.0400 -0.3176 -0.1452
 2682POPC   C4B32580   1.559  14.283   6.041  0.1521 -0.3312 -0.1983
 2683POPC   NC332581   1.784  21.363   3.981  0.3001  0.0930  0.1313
 2683POPC   PO432582   2.053  21.636   3.853 -0.1879 -0.1702  0.3177
 2683POPC   GL132583   2.035  21.812   4.135  0.0100 -0.5057  0.2449
 2683POPC   GL232584   2.262  21.839   4.321  0.1270 -0.0465 -0.0424
 2683POPC   C1A32585   1.891  22.125   4.462 -0.2841  0.0708 -0.1593
 2683POPC   D2A32586   1.617  22.236   4.829  0.2735 -0.1329 -0.0342
 2683POPC   C3A32587   1.273  22.555   4.760  0.0165 -0.2107 -0.1237
 2683POPC   C4A32588   1.221  22.987   4.533 -0.0430  0.1406  0.1833
 2683POPC   C1B32589   2.267  21.732   4.739  0.0385  0.0155  0.0646
 2683POPC   C2B32590   2.369  21.872   5.160  0.3176 -0.1982 -0.4507
 2683POPC   C3B32591   2.239  21.854   5.592  0.0563  0.1619 -0.0200
 2683POPC   C4B32592   2.450  22.078   5.977 -0.1767  0.2081 -0.0613
 2684POPC   NC332593  13.835   9.008   3.906  0.4403 -0.0228 -0.0214
 2684POPC   PO432594  13.824   9.383   3.929  0.2135 -0.4134 -0.2753
 2684POPC   GL132595  13.892   9.440   4.333  0.4024  0.1676  0.0561
 2684POPC   GL232596  13.785   9.676   4.533 -0.1345 -0.2000 -0.0510
 2684POPC   C1A32597  14.275   9.455   4.614  0.1369 -0.1617  0.2045
 2684POPC   D2A32598  14.487   9.417   5.051 -0.0445 -0.3054 -0.2004
 2684POPC   C3A32599  14.534   9.558   5.433 -0.0247 -0.0534  0.0319
 2684POPC   C4A32600  14.613   9.544   5.878 -0.0428 -0.2435 -0.1602
 2684POPC   C1B32601  13.488   9.612   4.874 -0.0485  0.2348 -0.0940
 2684POPC   C2B32602  13.464   9.443   5.340 -0.1498 -0.1662  0.2952
 2684POPC   C3B32603  13.641   9.283   5.724  0.2109 -0.1218  0.1826
 2684POPC   C4B32604  13.766   9.167   6.180 -0.0545 -0.2192 -0.0813
 2685POPC   NC332605  15.487  23.314   3.227 -0.0669 -0.1665  0.1046
 2685POPC   PO432606  15.521  23.298   3.595 -0.0248  0.1043  0.1951
 2685POPC   GL132607  15.920  23.328   3.873  0.0467 -0.2568 -0.1629
 2685POPC   GL232608  16.073  23.128   3.791  0.1687  0.1212 -0.1829
 2685POPC   C1A32609  15.954  23.444   4.329 -0.2234  0.1758 -0.3722
 2685POPC   D2A32610  16.091  23.337   4.752  0.0706  0.2272  0.0900
 2685POPC   C3A32611  16.422  23.359   5.035 -0.0079  0.0049  0.1215
 2685POPC   C4A32612  16.775  23.442   5.278  0.0316 -0.0449  0.0598
 2685POPC   C1B32613  16.403  23.300   4.085  0.3180  0.0855 -0.2090
 2685POPC   C2B32614  16.579  23.164   4.507  0.2479  0.3493  0.0115
 2685POPC   C3B32615  16.792  22.967   4.863  0.1483 -0.0278 -0.1676
 2685POPC   C4B32616  17.029  22.930   5.288 -0.0194 -0.0853  0.0007
 2686POPC   NC332617   8.209  30.196   4.066 -0.0964 -0.0061  0.0212
 2686POPC   PO432618   7.853  30.097   3.907  0.0524 -0.0592  0.0516
 2686POPC   GL132619   7.853  29.964   4.306 -0.4223  0.0433  0.0001
 2686POPC   GL232620   7.778  30.212   4.418  0.2844  0.1198 -0.1900
 2686POPC   C1A32621   8.048  29.913   4.726 -0.1336  0.3087  0.0909
 2686POPC   D2A32622   7.863  29.586   5.017 -0.1239  0.1614  0.0673
 2686POPC   C3A32623   7.617  29.659   5.431 -0.1667  0.1399 -0.0164
 2686POPC   C4A32624   7.258  29.653   5.720  0.1838 -0.1085 -0.0966
 2686POPC   C1B32625   7.573  30.522   4.751  0.0572  0.3330  0.4161
 2686POPC   C2B32626   7.441  30.781   5.083  0.0269  0.1764 -0.3899
 2686POPC   C3B32627   7.702  30.978   5.398 -0.1882 -0.0921 -0.1407
 2686POPC   C4B32628   7.780  31.039   5.827  0.0338  0.1562  0.1015
 2687POPC   NC332629   2.859   3.468   3.938 -0.3445 -0.1018  0.0763
 2687POPC   PO432630   2.965   3.107   3.949  0.0601 -0.1656 -0.0165
 2687POPC   GL132631   3.216   3.047   4.321 -0.0478  0.1995 -0.0938
 2687POPC   GL232632   2.957   3.231   4.429  0.1460 -0.0880  0.1741
 2687POPC   C1A32633   3.208   2.906   4.741  0.1080 -0.0450 -0.0867
 2687POPC   D2A32634   3.249   2.935   5.211 -0.2803  0.0498 -0.2732
 2687POPC   C3A32635   3.134   2.544   5.518  0.2615 -0.0987  0.1841
 2687POPC   C4A32636   2.975   2.485   5.888 -0.1604  0.1470  0.2103
 2687POPC   C1B32637   2.952   3.287   4.914  0.0981  0.1295 -0.1301
 2687POPC   C2B32638   2.750   3.049   5.293 -0.2633 -0.0505 -0.1346
 2687POPC   C3B32639   2.436   2.983   5.621 -0.1462  0.2076  0.0168
 2687POPC   C4B32640   2.534   2.621   5.907 -0.0568 -0.2745  0.0028
 2688POPC   NC332641   6.102  26.889   3.475 -0.0175  0.0699  0.0090
 2688POPC   PO432642   6.050  26.534   3.650  0.0828  0.1297  0.4188
 2688POPC   GL132643   5.898  26.633   4.079 -0.3183 -0.0739 -0.0605
 2688POPC   GL232644   5.654  26.515   3.930  0.0889 -0.4016 -0.2804
 2688POPC   C1A32645   6.030  26.500   4.484  0.0552  0.0786 -0.2754
 2688POPC   D2A32646   5.834  26.417   4.890  0.0370  0.1981 -0.0253
 2688POPC   C3A32647   5.703  26.306   5.364 -0.2338  0.2499  0.2096
 2688POPC   C4A32648   5.766  26.344   5.812  0.0071  0.2657 -0.1394
 2688POPC   C1B32649   5.597  26.268   4.337  0.2395  0.4843  0.0942
 2688POPC   C2B32650   5.393  26.100   4.728 -0.1899 -0.1302 -0.1969
 2688POPC   C3B32651   5.303  25.990   5.156 -0.2304 -0.2908  0.0078
 2688POPC   C4B32652   5.424  25.959   5.601 -0.1102 -0.1322  0.2793
 2689POPC   NC332653  13.854  13.080   4.084 -0.3709  0.2143 -0.1242
 2689POPC   PO432654  13.596  12.798   4.085 -0.0794  0.1552 -0.0086
 2689POPC   GL132655  13.483  12.724   4.424  0.2503 -0.1095  0.0024
 2689POPC   GL232656  13.692  12.614   4.565 -0.1013 -0.1585 -0.3073
 2689POPC   C1A32657  13.303  12.758   4.863 -0.0204 -0.2085 -0.3735
 2689POPC   D2A32658  13.441  12.617   5.274 -0.1593 -0.1132  0.1334
 2689POPC   C3A32659  13.175  12.461   5.543 -0.0138 -0.1202 -0.0228
 2689POPC   C4A32660  12.751  12.583   5.657 -0.0541 -0.0419  0.0203
 2689POPC   C1B32661  13.739  12.410   4.987 -0.0442 -0.1394 -0.1444
 2689POPC   C2B32662  13.941  12.360   5.401 -0.0831  0.2199 -0.0864
 2689POPC   C3B32663  14.032  12.231   5.852 -0.1140  0.2122  0.0403
 2689POPC   C4B32664  14.221  11.962   6.222  0.1354  0.0010 -0.2221
 2690POPC   NC332665  13.844   7.989   3.453 -0.1001  0.0535 -0.0634
 2690POPC   PO432666  14.111   8.186   3.665  0.0583  0.2270  0.0884
 2690POPC   GL132667  14.070   8.142   4.010  0.0667  0.1797 -0.1394
 2690POPC   GL232668  13.793   8.091   4.099  0.1195  0.0680  0.2302
 2690POPC   C1A32669  14.078   8.058   4.473 -0.2111  0.1194 -0.1027
 2690POPC   D2A32670  13.935   8.086   4.944 -0.2761  0.0163  0.0533
 2690POPC   C3A32671  13.820   7.986   5.431  0.1401 -0.0647  0.3104
 2690POPC   C4A32672  13.667   7.865   5.825  0.2271  0.0188  0.1966
 2690POPC   C1B32673  13.501   8.154   4.411 -0.0053 -0.0978  0.0653
 2690POPC   C2B32674  13.495   8.246   4.859 -0.2781  0.2362 -0.2013
 2690POPC   C3B32675  13.431   8.525   5.262 -0.1121 -0.3039  0.0819
 2690POPC   C4B32676  13.043   8.677   5.284  0.0863  0.2525 -0.1134
 2691POPC   NC332677   9.167  18.517   3.562 -0.2031 -0.0782  0.3933
 2691POPC   PO432678   9.422  18.347   3.778 -0.2133  0.1711  0.1662
 2691POPC   GL132679   9.301  18.200   4.069 -0.0862 -0.2041  0.4456
 2691POPC   GL232680   9.091  18.055   4.031 -0.1414 -0.1428 -0.2876
 2691POPC   C1A32681   9.549  18.085   4.444 -0.1206 -0.2598  0.1181
 2691POPC   D2A32682   9.555  17.787   4.814  0.0363  0.0920 -0.0878
 2691POPC   C3A32683   9.369  17.785   5.202 -0.2328 -0.1564 -0.0155
 2691POPC   C4A32684   9.380  17.839   5.702 -0.1304  0.2879  0.0673
 2691POPC   C1B32685   8.942  17.997   4.449 -0.0376 -0.1874 -0.0109
 2691POPC   C2B32686   8.872  18.126   4.906  0.0678 -0.0803  0.1091
 2691POPC   C3B32687   8.988  18.239   5.320  0.1245  0.0607  0.0338
 2691POPC   C4B32688   8.969  18.159   5.774  0.3113 -0.0162  0.0233
 2692POPC   NC332689  12.583   6.376   3.555 -0.2509 -0.2042  0.4962
 2692POPC   PO432690  12.236   6.493   3.728 -0.3936  0.0188 -0.1637
 2692POPC   GL132691  12.212   6.204   4.110 -0.0786  0.0295  0.1616
 2692POPC   GL232692  12.545   6.093   4.206 -0.2088 -0.1570 -0.0031
 2692POPC   C1A32693  11.892   6.168   4.423 -0.2663 -0.5072  0.2331
 2692POPC   D2A32694  11.825   6.268   4.857  0.3300 -0.1050 -0.1547
 2692POPC   C3A32695  12.053   6.181   5.192  0.1569  0.1097  0.2979
 2692POPC   C4A32696  11.851   6.227   5.582 -0.5389  0.0018 -0.0184
 2692POPC   C1B32697  12.414   6.369   4.569  0.2025  0.2539  0.0879
 2692POPC   C2B32698  12.367   6.535   5.033  0.0692 -0.2391  0.2036
 2692POPC   C3B32699  12.140   6.782   5.368 -0.1012  0.1682 -0.0694
 2692POPC   C4B32700  12.151   7.068   5.780 -0.0705 -0.5454 -0.1395
 2693POPC   NC332701   4.323  23.559   3.088  0.0637  0.1787 -0.2484
 2693POPC   PO432702   4.369  23.244   3.312 -0.2885  0.2726  0.0985
 2693POPC   GL132703   4.219  23.154   3.592 -0.3393 -0.3937 -0.3102
 2693POPC   GL232704   3.906  23.185   3.510  0.3908  0.0660 -0.1448
 2693POPC   C1A32705   4.156  23.418   3.997  0.0621  0.0711 -0.3249
 2693POPC   D2A32706   3.745  23.498   4.171  0.0445 -0.0338 -0.2088
 2693POPC   C3A32707   3.320  23.553   3.981 -0.1036 -0.0681  0.1711
 2693POPC   C4A32708   2.909  23.610   3.872  0.0610  0.0134  0.1556
 2693POPC   C1B32709   3.481  23.154   3.733 -0.1985 -0.2603 -0.2639
 2693POPC   C2B32710   3.023  23.094   3.858 -0.3149 -0.0241  0.1677
 2693POPC   C3B32711   2.626  23.211   3.978 -0.0012 -0.3017 -0.1167
 2693POPC   C4B32712   2.219  23.385   3.905 -0.2716  0.0465  0.1332
 2694POPC   NC332713  14.864   4.911   3.894  0.2131  0.1626  0.0117
 2694POPC   PO432714  14.757   4.515   3.935  0.2052  0.1526 -0.1348
 2694POPC   GL132715  14.977   4.599   4.347  0.0496  0.0293  0.0150
 2694POPC   GL232716  15.071   4.373   4.591  0.4821 -0.1441 -0.1003
 2694POPC   C1A32717  14.718   4.733   4.719 -0.1057  0.2522 -0.0296
 2694POPC   D2A32718  14.599   4.512   5.096  0.2137 -0.1893  0.2631
 2694POPC   C3A32719  14.432   4.408   5.490  0.0992  0.1901 -0.0019
 2694POPC   C4A32720  14.294   4.113   5.822  0.0742  0.2286  0.1731
 2694POPC   C1B32721  15.103   4.475   5.095 -0.3387  0.0403 -0.2643
 2694POPC   C2B32722  14.922   4.562   5.448 -0.3165 -0.0397 -0.0859
 2694POPC   C3B32723  14.782   4.472   5.889 -0.0719  0.4011 -0.0621
 2694POPC   C4B32724  15.007   4.334   6.322 -0.0047  0.1910  0.1220
 2695POPC   NC332725   5.720  20.408   3.806  0.2680 -0.0304  0.0662
 2695POPC   PO432726   5.874  20.136   4.033  0.1004 -0.0874  0.3495
 2695POPC   GL132727   6.097  20.018   4.352 -0.1478  0.0279  0.0099
 2695POPC   GL232728   6.315  19.859   4.273  0.2417  0.0544 -0.3037
 2695POPC   C1A32729   5.982  19.778   4.739  0.0169  0.1278  0.1434
 2695POPC   D2A32730   5.997  19.697   5.217 -0.0316  0.0051 -0.1098
 2695POPC   C3A32731   6.006  20.105   5.489  0.1175  0.0116 -0.0284
 2695POPC   C4A32732   5.839  20.269   5.878 -0.1435 -0.1523 -0.2850
 2695POPC   C1B32733   6.509  19.835   4.732 -0.1755 -0.0602  0.2396
 2695POPC   C2B32734   6.445  19.555   5.086  0.0061 -0.1710 -0.2484
 2695POPC   C3B32735   6.394  19.378   5.532 -0.2116 -0.1701  0.0329
 2695POPC   C4B32736   6.333  19.457   5.948 -0.2116 -0.0118  0.0359
 2696POPC   NC332737   9.874  12.190   3.729  0.0031 -0.0790 -0.4461
 2696POPC   PO432738   9.770  12.627   3.714 -0.0739  0.1052  0.2317
 2696POPC   GL132739   9.659  12.529   4.108 -0.1288 -0.4329  0.1748
 2696POPC   GL232740   9.927  12.520   4.241  0.1704 -0.1000  0.1278
 2696POPC   C1A32741   9.307  12.679   4.416 -0.2455  0.4116  0.0721
 2696POPC   D2A32742   8.988  12.912   4.643  0.0561 -0.1002  0.0715
 2696POPC   C3A32743   8.966  12.745   5.072 -0.1485  0.1497 -0.3297
 2696POPC   C4A32744   8.889  12.474   5.463  0.1284  0.0430 -0.0914
 2696POPC   C1B32745   9.785  12.646   4.699  0.1767  0.1626 -0.0557
 2696POPC   C2B32746   9.448  12.878   4.892  0.1977 -0.3061 -0.1678
 2696POPC   C3B32747   9.211  13.203   5.042 -0.0783  0.1736  0.1082
 2696POPC   C4B32748   9.244  13.655   5.027  0.2200  0.0916 -0.0915
 2697POPC   NC332749   6.411  11.824   3.639  0.2556 -0.0325  0.4497
 2697POPC   PO432750   6.078  11.648   3.663 -0.0062 -0.0213 -0.2219
 2697POPC   GL132751   6.082  11.843   3.963 -0.2217 -0.1659 -0.1523
 2697POPC   GL232752   6.345  11.832   4.158  0.4177 -0.1918 -0.0855
 2697POPC   C1A32753   5.884  11.842   4.341  0.0476 -0.0718  0.0248
 2697POPC   D2A32754   5.790  11.761   4.829  0.1536 -0.2972  0.0043
 2697POPC   C3A32755   5.529  12.150   4.987 -0.2391  0.0990  0.0803
 2697POPC   C4A32756   5.453  12.448   5.333  0.0261  0.2020  0.0095
 2697POPC   C1B32757   6.678  11.736   4.447 -0.1350 -0.3142 -0.3420
 2697POPC   C2B32758   6.792  11.801   4.917 -0.3750 -0.2295  0.0782
 2697POPC   C3B32759   6.974  12.042   5.335 -0.0084  0.0434 -0.0315
 2697POPC   C4B32760   6.980  12.443   5.571  0.0036  0.4715  0.0518
 2698POPC   NC332761  14.226   3.504   4.149 -0.3200  0.3417  0.0032
 2698POPC   PO432762  14.613   3.475   4.167  0.0187  0.0946  0.0999
 2698POPC   GL132763  14.577   3.275   4.494  0.2589  0.0345 -0.1780
 2698POPC   GL232764  14.347   3.080   4.390  0.2774 -0.2518  0.1964
 2698POPC   C1A32765  14.396   3.247   4.929  0.0427  0.1391 -0.0963
 2698POPC   D2A32766  14.360   3.046   5.327  0.0394 -0.1343 -0.0421
 2698POPC   C3A32767  14.474   3.172   5.735 -0.1678  0.1162  0.0806
 2698POPC   C4A32768  14.677   3.466   5.990 -0.4888 -0.0573  0.3056
 2698POPC   C1B32769  14.627   2.764   4.606  0.0595 -0.0835  0.2905
 2698POPC   C2B32770  15.025   2.629   4.794 -0.0635  0.2181  0.1916
 2698POPC   C3B32771  15.163   2.609   5.233  0.3221 -0.0854  0.0130
 2698POPC   C4B32772  15.295   2.675   5.642  0.1019  0.1755  0.2921
 2699POPC   NC332773  13.300  13.815   4.087  0.0137 -0.0091  0.2661
 2699POPC   PO432774  13.287  14.156   3.923  0.1759  0.4922 -0.0676
 2699POPC   GL132775  13.593  14.426   4.030  0.3238  0.3357  0.1522
 2699POPC   GL232776  13.807  14.142   4.154  0.4661 -0.2483  0.2077
 2699POPC   C1A32777  13.856  14.603   4.360  0.0526 -0.1969 -0.1651
 2699POPC   D2A32778  14.211  14.398   4.644  0.3164  0.2909  0.0655
 2699POPC   C3A32779  14.536  14.593   4.829 -0.3475 -0.1672 -0.3184
 2699POPC   C4A32780  14.660  14.553   5.201  0.1446  0.3217 -0.4378
 2699POPC   C1B32781  13.494  14.190   4.515 -0.3489 -0.0017 -0.0100
 2699POPC   C2B32782  13.222  13.935   4.771 -0.0672  0.2010  0.1847
 2699POPC   C3B32783  13.183  13.538   5.088  0.1632 -0.0112 -0.0573
 2699POPC   C4B32784  13.372  13.582   5.521  0.0186  0.1185  0.1398
 2700POPC   NC332785   9.958  30.801   3.890  0.3984  0.2869 -0.1273
 2700POPC   PO432786   9.944  30.426   4.034 -0.2909 -0.2665  0.0645
 2700POPC   GL132787  10.048  30.497   4.461 -0.2556 -0.2441  0.2805
 2700POPC   GL232788  10.215  30.191   4.362 -0.4081  0.0018  0.0902
 2700POPC   C1A32789  10.202  30.801   4.818 -0.1481 -0.0344  0.0419
 2700POPC   D2A32790  10.612  31.041   4.894 -0.2178 -0.1888 -0.4850
 2700POPC   C3A32791  10.833  30.944   5.339 -0.2537  0.0102  0.0888
 2700POPC   C4A32792  11.089  30.665   5.611  0.0682 -0.3626  0.0805
 2700POPC   C1B32793  10.336  30.199   4.828  0.3818  0.0527 -0.0512
 2700POPC   C2B32794  10.358  30.228   5.321  0.0412  0.1268  0.2424
 2700POPC   C3B32795  10.151  30.438   5.661  0.0733  0.0767 -0.2337
 2700POPC   C4B32796   9.910  30.311   5.996 -0.1478 -0.2815 -0.1267
 2701POPC   NC332797   3.986  22.314   3.327 -0.3444  0.2080  0.0934
 2701POPC   PO432798   4.345  22.327   3.568  0.3052  0.1933 -0.2269
 2701POPC   GL132799   4.470  22.497   3.932 -0.4592 -0.3765 -0.1744
 2701POPC   GL232800   4.205  22.540   4.033 -0.0148  0.3806  0.0153
 2701POPC   C1A32801   4.547  22.360   4.391 -0.0879  0.1101  0.0324
 2701POPC   D2A32802   4.888  22.505   4.685  0.1558  0.2832  0.0087
 2701POPC   C3A32803   4.845  22.731   5.067  0.1168 -0.1610 -0.1249
 2701POPC   C4A32804   5.168  22.859   5.430  0.2103 -0.3084 -0.0751
 2701POPC   C1B32805   4.099  22.518   4.505 -0.0124  0.1803 -0.0985
 2701POPC   C2B32806   4.025  22.698   4.922  0.1301  0.3552  0.0728
 2701POPC   C3B32807   3.826  23.087   5.071 -0.1780 -0.0727  0.0286
 2701POPC   C4B32808   3.530  23.480   5.077  0.0072  0.2283 -0.1777
 2702POPC   NC332809   1.169   7.519   3.532 -0.2745 -0.0566  0.0613
 2702POPC   PO432810   1.099   7.110   3.541  0.0623 -0.1042  0.2844
 2702POPC   GL132811   1.175   7.145   3.910 -0.4228 -0.0793 -0.0826
 2702POPC   GL232812   1.472   7.190   3.962  0.1139  0.3017 -0.1424
 2702POPC   C1A32813   1.282   6.819   4.234  0.0010 -0.2507 -0.0790
 2702POPC   D2A32814   1.235   6.550   4.615 -0.1561 -0.1863 -0.0438
 2702POPC   C3A32815   1.625   6.440   4.856 -0.1954  0.2362 -0.2536
 2702POPC   C4A32816   1.930   6.161   4.924 -0.0502 -0.0132  0.0773
 2702POPC   C1B32817   1.726   6.843   4.067  0.0132 -0.0305  0.2804
 2702POPC   C2B32818   2.010   6.556   3.973 -0.0254 -0.2105 -0.2615
 2702POPC   C3B32819   2.078   6.146   4.074  0.0677  0.1867  0.1032
 2702POPC   C4B32820   2.422   5.876   4.111  0.3266 -0.2009  0.3550
 2703POPC   NC332821   7.906  12.991   3.651  0.1416  0.1385  0.2526
 2703POPC   PO432822   8.297  13.000   3.725 -0.0472 -0.1870 -0.0276
 2703POPC   GL132823   8.480  13.042   4.108  0.1397 -0.1440  0.2205
 2703POPC   GL232824   8.764  13.071   4.061 -0.2983  0.0059  0.0521
 2703POPC   C1A32825   8.527  13.113   4.572 -0.0213  0.0047 -0.1000
 2703POPC   D2A32826   8.688  13.115   5.048  0.0038 -0.3461  0.1113
 2703POPC   C3A32827   8.668  12.892   5.462 -0.1006 -0.0871  0.0406
 2703POPC   C4A32828   8.531  12.660   5.855 -0.0469  0.1149 -0.0553
 2703POPC   C1B32829   8.684  12.707   4.293 -0.0135 -0.0284 -0.0709
 2703POPC   C2B32830   8.620  12.523   4.714 -0.3209 -0.2379 -0.2253
 2703POPC   C3B32831   8.475  12.467   5.173 -0.1490  0.0391 -0.2957
 2703POPC   C4B32832   8.144  12.520   5.486 -0.0024 -0.1414 -0.1098
 2704POPC   NC332833  13.789   4.345   3.662  0.2009  0.0346  0.1829
 2704POPC   PO432834  13.712   4.341   4.040  0.0416 -0.1038  0.2079
 2704POPC   GL132835  13.686   4.476   4.343 -0.1218 -0.1887 -0.1365
 2704POPC   GL232836  13.710   4.276   4.630 -0.2286  0.0631  0.2802
 2704POPC   C1A32837  13.330   4.681   4.600  0.1450  0.1029  0.0926
 2704POPC   D2A32838  13.111   4.446   4.934  0.1029 -0.0376  0.2374
 2704POPC   C3A32839  13.101   4.672   5.294  0.1193 -0.1885 -0.2827
 2704POPC   C4A32840  13.185   4.584   5.753 -0.2972  0.0087  0.2863
 2704POPC   C1B32841  13.724   4.476   5.045 -0.1409 -0.0340  0.3152
 2704POPC   C2B32842  14.008   4.586   5.383 -0.1075  0.2276 -0.2827
 2704POPC   C3B32843  14.195   4.618   5.851 -0.1492  0.0590  0.1198
 2704POPC   C4B32844  14.453   4.408   6.228 -0.0876  0.2928  0.2965
 2705POPC   NC332845   9.343   3.054   3.285  0.0145 -0.2404  0.2393
 2705POPC   PO432846   8.940   3.067   3.405 -0.0201 -0.1674 -0.0729
 2705POPC   GL132847   8.971   3.084   3.781 -0.1979  0.1792 -0.0048
 2705POPC   GL232848   8.789   2.954   3.938 -0.0447 -0.0430  0.1199
 2705POPC   C1A32849   9.263   2.994   4.131 -0.1004  0.0879  0.0102
 2705POPC   D2A32850   9.499   3.213   4.411 -0.4570  0.3617 -0.3656
 2705POPC   C3A32851   9.541   3.332   4.812  0.2416 -0.0775 -0.2692
 2705POPC   C4A32852   9.749   3.618   5.184  0.3953  0.2074 -0.0767
 2705POPC   C1B32853   8.703   2.541   4.046  0.0593 -0.0324 -0.0218
 2705POPC   C2B32854   8.896   2.096   4.052  0.1090 -0.0963  0.1427
 2705POPC   C3B32855   9.102   1.691   3.951  0.0800  0.0800  0.0793
 2705POPC   C4B32856   9.248   1.212   3.884  0.1056 -0.3431  0.1347
 2706POPC   NC332857   3.380  27.097   2.961  0.3309  0.0735  0.2554
 2706POPC   PO432858   3.506  27.256   3.321  0.0508 -0.2539  0.1748
 2706POPC   GL132859   3.375  27.076   3.717 -0.2084  0.0624 -0.0432
 2706POPC   GL232860   3.587  27.257   3.903  0.0011 -0.1247  0.0685
 2706POPC   C1A32861   3.118  27.183   4.138  0.0980  0.0034 -0.1117
 2706POPC   D2A32862   2.805  26.895   4.437 -0.0541 -0.0671  0.5685
 2706POPC   C3A32863   2.713  27.073   4.828  0.0461 -0.1339  0.2173
 2706POPC   C4A32864   2.553  26.933   5.218 -0.0704  0.0368 -0.2180
 2706POPC   C1B32865   3.727  27.113   4.339  0.1528 -0.0169 -0.2056
 2706POPC   C2B32866   3.746  26.882   4.772 -0.0846  0.0116 -0.1746
 2706POPC   C3B32867   3.920  26.905   5.217 -0.1905  0.1912  0.0886
 2706POPC   C4B32868   3.778  26.724   5.599  0.1392 -0.2605 -0.1618
 2707POPC   NC332869   5.764  25.730   3.861 -0.2611  0.0142  0.0731
 2707POPC   PO432870   6.029  25.437   3.935 -0.1636 -0.2854  0.0850
 2707POPC   GL132871   6.244  25.386   4.293  0.0326  0.0775  0.1059
 2707POPC   GL232872   6.078  25.478   4.496 -0.0541 -0.0716  0.1098
 2707POPC   C1A32873   6.647  25.372   4.578 -0.3018  0.1711 -0.0820
 2707POPC   D2A32874   6.808  25.496   5.030  0.1507  0.0224 -0.0517
 2707POPC   C3A32875   7.119  25.322   5.259 -0.0050 -0.1785  0.1390
 2707POPC   C4A32876   7.083  25.164   5.689 -0.2570  0.0176 -0.0460
 2707POPC   C1B32877   6.240  25.626   4.913 -0.2060 -0.1876  0.1808
 2707POPC   C2B32878   6.349  25.689   5.331  0.0153  0.4348  0.0676
 2707POPC   C3B32879   6.533  25.722   5.713 -0.2259 -0.0937 -0.2543
 2707POPC   C4B32880   6.492  25.964   6.070 -0.1336  0.0229  0.0278
 2708POPC   NC332881   9.859  14.177   3.921  0.0954  0.1250 -0.2279
 2708POPC   PO432882   9.869  14.529   3.726 -0.0512  0.2521 -0.0174
 2708POPC   GL132883   9.605  14.531   4.062 -0.0348  0.1909 -0.0752
 2708POPC   GL232884   9.312  14.563   4.232 -0.1794 -0.0146  0.4581
 2708POPC   C1A32885   9.590  14.154   4.384 -0.0757  0.2031 -0.0585
 2708POPC   D2A32886   9.584  13.910   4.768 -0.0607  0.0406  0.4180
 2708POPC   C3A32887   9.995  13.882   5.020  0.1648 -0.0320  0.0609
 2708POPC   C4A32888  10.400  13.864   5.312  0.1008  0.2161 -0.0049
 2708POPC   C1B32889   9.168  14.364   4.602 -0.0309  0.1355 -0.2482
 2708POPC   C2B32890   9.218  14.228   5.031  0.3562  0.2420  0.0601
 2708POPC   C3B32891   9.038  14.014   5.368 -0.2271 -0.4418 -0.2517
 2708POPC   C4B32892   9.196  13.623   5.658  0.0160 -0.1851 -0.2694
 2709POPC   NC332893   6.352   6.330   3.863  0.1628  0.1454 -0.5026
 2709POPC   PO432894   6.096   6.601   3.885  0.1253 -0.0928  0.2891
 2709POPC   GL132895   6.134   6.610   4.208 -0.0113 -0.0174  0.0216
 2709POPC   GL232896   6.023   6.432   4.425 -0.0166 -0.4385 -0.1888
 2709POPC   C1A32897   6.435   6.730   4.543 -0.2723 -0.3032  0.0913
 2709POPC   D2A32898   6.688   6.543   4.878 -0.1339  0.0751 -0.0363
 2709POPC   C3A32899   6.515   6.521   5.336 -0.0262 -0.0092  0.0440
 2709POPC   C4A32900   6.249   6.637   5.734 -0.0675  0.0717  0.0968
 2709POPC   C1B32901   6.097   6.616   4.862  0.0188 -0.0979 -0.3648
 2709POPC   C2B32902   6.066   6.807   5.292  0.0064  0.1016  0.1111
 2709POPC   C3B32903   5.685   6.860   5.557  0.0413 -0.2159  0.0295
 2709POPC   C4B32904   5.199   6.876   5.511  0.1288  0.1526 -0.2879
 2710POPC   NC332905   6.209   5.124   3.206  0.0591  0.1020 -0.2170
 2710POPC   PO432906   6.388   5.026   3.522 -0.0467 -0.1698  0.2439
 2710POPC   GL132907   6.494   5.118   3.939  0.1547 -0.2294 -0.2327
 2710POPC   GL232908   6.721   4.984   4.118  0.2285  0.0392 -0.0461
 2710POPC   C1A32909   6.449   5.213   4.390 -0.1271 -0.1352  0.0518
 2710POPC   D2A32910   6.731   5.347   4.755  0.3561  0.0765  0.1063
 2710POPC   C3A32911   6.481   5.185   5.137 -0.1156 -0.1800  0.0495
 2710POPC   C4A32912   6.330   5.156   5.582  0.2216  0.2131  0.1084
 2710POPC   C1B32913   6.919   4.795   4.504 -0.1761  0.0209 -0.0007
 2710POPC   C2B32914   6.874   4.905   4.900  0.1853  0.0685 -0.1788
 2710POPC   C3B32915   7.001   4.737   5.296  0.1908  0.2974 -0.2054
 2710POPC   C4B32916   7.083   4.537   5.711  0.1825  0.0245  0.2276
 2711POPC   NC332917   2.672  31.412   3.701 -0.2600 -0.1405 -0.0761
 2711POPC   PO432918   2.521  31.664   3.969  0.0585  0.1145 -0.0221
 2711POPC   GL132919   2.574  31.412   4.292 -0.3940 -0.5113  0.5053
 2711POPC   GL232920   2.283  31.424   4.363  0.0707  0.1214 -0.0827
 2711POPC   C1A32921   2.608  31.312   4.765  0.2645  0.0674 -0.3418
 2711POPC   D2A32922   2.353  31.222   5.133  0.3740 -0.0536 -0.1004
 2711POPC   C3A32923   2.431  31.246   5.579 -0.0530  0.2272  0.0123
 2711POPC   C4A32924   2.663  31.092   5.987  0.1501  0.0186  0.2591
 2711POPC   C1B32925   2.192  31.601   4.788  0.1449  0.0224  0.0214
 2711POPC   C2B32926   2.270  31.743   5.228 -0.0756 -0.1276 -0.1904
 2711POPC   C3B32927   2.333  31.830   5.704  0.3265  0.4418  0.0413
 2711POPC   C4B32928   2.432  31.553   6.071  0.0718  0.2383 -0.0437
 2712POPC   NC332929   3.996   8.903   3.715  0.2156 -0.3687 -0.1027
 2712POPC   PO432930   4.352   9.085   3.725  0.1579 -0.2198 -0.0089
 2712POPC   GL132931   4.266   9.087   4.099  0.0216 -0.0045 -0.0552
 2712POPC   GL232932   4.038   9.184   4.260  0.0135 -0.0728  0.2666
 2712POPC   C1A32933   4.551   9.228   4.419  0.1247 -0.1754 -0.0813
 2712POPC   D2A32934   4.564   9.406   4.888  0.2255  0.0426 -0.0629
 2712POPC   C3A32935   4.269   9.764   4.962 -0.0570  0.0665 -0.4163
 2712POPC   C4A32936   4.302  10.180   5.051  0.3356 -0.3613  0.0798
 2712POPC   C1B32937   4.146   9.233   4.762 -0.3307  0.1682 -0.0755
 2712POPC   C2B32938   4.028   9.226   5.212 -0.0295 -0.0046  0.0570
 2712POPC   C3B32939   3.948   9.339   5.668 -0.3615  0.0228  0.0584
 2712POPC   C4B32940   4.003   9.415   6.084 -0.0380 -0.1689  0.0892
 2713POPC   NC332941  13.521   1.718   4.142  0.2813 -0.0775  0.1125
 2713POPC   PO432942  13.130   1.603   4.016 -0.1883 -0.1034 -0.2491
 2713POPC   GL132943  13.026   1.777   4.336  0.1020 -0.2489 -0.0922
 2713POPC   GL232944  12.793   1.555   4.466  0.0541  0.1244  0.0799
 2713POPC   C1A32945  13.047   2.211   4.553 -0.1121  0.2152 -0.0348
 2713POPC   D2A32946  13.111   2.477   4.902  0.1197  0.1772 -0.1019
 2713POPC   C3A32947  13.109   2.494   5.368 -0.1359  0.3309 -0.3606
 2713POPC   C4A32948  13.018   2.872   5.593 -0.1013  0.0295  0.2027
 2713POPC   C1B32949  12.964   1.580   4.878 -0.2553  0.0174 -0.2447
 2713POPC   C2B32950  13.180   1.424   5.264 -0.3079  0.0408  0.3667
 2713POPC   C3B32951  13.144   1.274   5.738  0.0298 -0.1134 -0.1163
 2713POPC   C4B32952  12.982   0.995   6.084 -0.1401 -0.2523  0.0321
 2714POPC   NC332953   7.172   5.555   3.879  0.0776 -0.0961 -0.0494
 2714POPC   PO432954   7.426   5.786   3.746  0.0696 -0.1310 -0.0831
 2714POPC   GL132955   7.736   5.902   4.014 -0.0489 -0.0182  0.2631
 2714POPC   GL232956   7.574   6.098   4.248 -0.0810  0.2678  0.1821
 2714POPC   C1A32957   8.046   5.675   4.353 -0.0278 -0.3468  0.1634
 2714POPC   D2A32958   8.122   5.506   4.734 -0.2358 -0.3013 -0.0950
 2714POPC   C3A32959   8.351   5.216   5.063 -0.0765 -0.0280  0.0057
 2714POPC   C4A32960   8.480   4.760   5.171  0.0437  0.0629  0.2665
 2714POPC   C1B32961   7.444   5.878   4.644 -0.1410  0.4457 -0.0958
 2714POPC   C2B32962   7.144   5.679   4.999  0.0343 -0.1909  0.4532
 2714POPC   C3B32963   6.947   5.367   5.281  0.0213  0.3840  0.1179
 2714POPC   C4B32964   6.835   5.097   5.680  0.0530  0.1360  0.3849
 2715POPC   NC332965  14.622  26.305   3.693  0.1759  0.0607  0.2024
 2715POPC   PO432966  14.853  26.010   3.645  0.0125  0.1625 -0.0520
 2715POPC   GL132967  14.689  25.769   3.826  0.0502  0.2071 -0.3893
 2715POPC   GL232968  14.403  25.879   3.854  0.0971  0.2984  0.0970
 2715POPC   C1A32969  14.734  25.675   4.282  0.3035 -0.2502  0.0382
 2715POPC   D2A32970  14.743  25.930   4.608  0.1352  0.1600  0.0767
 2715POPC   C3A32971  14.773  25.853   5.037 -0.2466 -0.0899 -0.0610
 2715POPC   C4A32972  14.961  25.620   5.462  0.1960  0.0585 -0.3588
 2715POPC   C1B32973  14.374  26.140   4.256 -0.0521 -0.1806  0.1012
 2715POPC   C2B32974  14.164  26.167   4.681 -0.3352 -0.1823  0.0968
 2715POPC   C3B32975  14.288  26.167   5.074 -0.4533  0.1435 -0.0557
 2715POPC   C4B32976  14.653  26.156   5.355  0.1540 -0.1039 -0.2270
 2716POPC   NC332977   0.720   9.302   3.733  0.1305 -0.5389 -0.2892
 2716POPC   PO432978   0.412   9.542   3.720 -0.3057 -0.3638 -0.0810
 2716POPC   GL132979   0.318   9.781   4.069  0.0651 -0.3464 -0.2838
 2716POPC   GL232980   0.049   9.687   4.073 -0.2344 -0.0291 -0.0863
 2716POPC   C1A32981   0.672   9.857   4.371  0.0833  0.0977  0.0747
 2716POPC   D2A32982   0.791  10.104   4.745 -0.0287  0.0115 -0.1944
 2716POPC   C3A32983   0.681  10.041   5.216 -0.3307  0.2814  0.2242
 2716POPC   C4A32984   0.570  10.203   5.631  0.1999 -0.4118  0.2087
 2716POPC   C1B32985   0.115   9.903   4.483  0.3137 -0.1769  0.3264
 2716POPC   C2B32986   0.235  10.072   4.901 -0.1876  0.2001  0.3268
 2716POPC   C3B32987  -0.103  10.190   5.221 -0.0845  0.0826 -0.1278
 2716POPC   C4B32988  -0.132  10.553   5.523 -0.1455  0.2151 -0.1638
 2717POPC   NC332989   3.175  27.493   3.702  0.2595  0.2646 -0.1173
 2717POPC   PO432990   3.415  27.715   3.939  0.1175  0.0036  0.1339
 2717POPC   GL132991   3.368  27.511   4.290 -0.1673 -0.3511 -0.2590
 2717POPC   GL232992   3.364  27.820   4.441 -0.0062 -0.0416  0.2402
 2717POPC   C1A32993   3.214  27.188   4.625  0.0047 -0.1446  0.1630
 2717POPC   D2A32994   3.378  27.094   5.070 -0.1392 -0.0672 -0.0977
 2717POPC   C3A32995   3.456  26.670   5.206  0.0785 -0.3976 -0.2085
 2717POPC   C4A32996   3.209  26.286   5.177 -0.1404 -0.5215  0.2921
 2717POPC   C1B32997   3.309  27.865   4.850  0.0366 -0.0338  0.0387
 2717POPC   C2B32998   3.720  27.839   5.036  0.2108 -0.1032 -0.0813
 2717POPC   C3B32999   3.834  28.110   5.431 -0.2091 -0.0300 -0.0633
 2717POPC   C4B33000   4.079  28.440   5.613 -0.1530 -0.2369  0.0329
 2718POPC   NC333001   9.346  31.259   3.803 -0.1867  0.0766 -0.0149
 2718POPC   PO433002   9.033  31.011   3.665  0.0852 -0.1853  0.0166
 2718POPC   GL133003   8.977  30.893   4.133  0.2077 -0.2104 -0.0642
 2718POPC   GL233004   9.206  31.014   4.268 -0.1410 -0.2464 -0.0500
 2718POPC   C1A33005   8.916  30.526   4.391 -0.1601  0.3302  0.1291
 2718POPC   D2A33006   8.923  30.307   4.741  0.0873  0.0854  0.2310
 2718POPC   C3A33007   8.873  30.442   5.150 -0.0270 -0.1601  0.0808
 2718POPC   C4A33008   8.748  30.466   5.584  0.0622 -0.1571 -0.1205
 2718POPC   C1B33009   8.892  30.956   4.549 -0.0117 -0.2183  0.0223
 2718POPC   C2B33010   8.540  30.716   4.759 -0.1784  0.3985 -0.0027
 2718POPC   C3B33011   8.228  30.889   4.972 -0.1044  0.1928 -0.0589
 2718POPC   C4B33012   7.833  30.971   4.846  0.2646  0.1177  0.0830
 2719POPC   NC333013  13.926  24.981   3.681 -0.2875  0.1500 -0.2488
 2719POPC   PO433014  14.265  24.791   3.788  0.1376 -0.4739 -0.1144
 2719POPC   GL133015  14.238  24.883   4.133 -0.1186  0.4428  0.3669
 2719POPC   GL233016  14.173  25.134   4.180 -0.1394 -0.2181  0.2229
 2719POPC   C1A33017  14.232  24.721   4.531 -0.0843 -0.0677 -0.0422
 2719POPC   D2A33018  14.280  24.501   4.969  0.0980  0.1725 -0.1262
 2719POPC   C3A33019  14.104  24.507   5.347 -0.0290  0.3263  0.0689
 2719POPC   C4A33020  13.860  24.496   5.684 -0.0894  0.2225 -0.3082
 2719POPC   C1B33021  14.206  25.223   4.595 -0.1122  0.0983 -0.0393
 2719POPC   C2B33022  14.320  25.206   5.008 -0.2021  0.3342  0.1895
 2719POPC   C3B33023  14.528  25.461   5.328  0.1832  0.3057 -0.1975
 2719POPC   C4B33024  14.655  25.495   5.783 -0.2515  0.1322 -0.1151
 2720POPC   NC333025   8.994  28.743   3.976  0.1366  0.0876 -0.0776
 2720POPC   PO433026   9.202  28.508   3.786  0.1785 -0.0461 -0.0911
 2720POPC   GL133027   9.303  28.337   4.149 -0.0802  0.0116 -0.3334
 2720POPC   GL233028   9.048  28.224   4.256  0.1216  0.0216 -0.0102
 2720POPC   C1A33029   9.425  28.276   4.628  0.0271  0.0668 -0.0253
 2720POPC   D2A33030   9.437  28.068   5.038  0.1636  0.0178 -0.1050
 2720POPC   C3A33031   9.143  28.037   5.422  0.1342  0.0112  0.4178
 2720POPC   C4A33032   9.109  27.800   5.848  0.2210 -0.0984  0.1549
 2720POPC   C1B33033   8.971  28.002   4.612 -0.2983 -0.0122 -0.1428
 2720POPC   C2B33034   8.839  27.972   5.023 -0.1178  0.0343 -0.1023
 2720POPC   C3B33035   8.638  27.929   5.412 -0.3123  0.0912 -0.2488
 2720POPC   C4B33036   8.633  27.770   5.823  0.2042 -0.0908 -0.0885
 2721POPC   NC333037  14.959   9.434   3.824 -0.0630  0.0973 -0.2623
 2721POPC   PO433038  14.658   9.202   3.786 -0.1688 -0.0994  0.4343
 2721POPC   GL133039  14.774   9.042   4.069 -0.0476 -0.1572  0.3390
 2721POPC   GL233040  15.132   8.989   4.095 -0.0472  0.1700  0.1692
 2721POPC   C1A33041  14.873   8.722   4.371 -0.0684  0.0603 -0.3063
 2721POPC   D2A33042  14.838   8.596   4.854  0.1233 -0.0590 -0.1053
 2721POPC   C3A33043  15.056   8.670   5.267 -0.2474 -0.1942  0.3470
 2721POPC   C4A33044  14.928   8.650   5.742  0.0911 -0.2416 -0.0646
 2721POPC   C1B33045  15.393   9.082   4.457  0.1164 -0.0265  0.2440
 2721POPC   C2B33046  15.510   9.282   4.845  0.0466 -0.0078 -0.1234
 2721POPC   C3B33047  15.355   9.418   5.234 -0.0515  0.2560 -0.4004
 2721POPC   C4B33048  15.041   9.633   5.407 -0.2413 -0.4315  0.2424
 2722POPC   NC333049   8.730  13.709   3.645 -0.0176  0.0247  0.0601
 2722POPC   PO433050   8.330  13.757   3.579 -0.2169  0.2340  0.0846
 2722POPC   GL133051   8.287  13.660   4.014  0.3684 -0.1893  0.1236
 2722POPC   GL233052   8.454  13.449   3.994  0.1124  0.0663  0.1361
 2722POPC   C1A33053   8.125  13.985   4.354  0.2022 -0.0981  0.1043
 2722POPC   D2A33054   7.834  13.793   4.639 -0.1831 -0.2288  0.0058
 2722POPC   C3A33055   7.489  14.023   4.847 -0.3851 -0.0190  0.3418
 2722POPC   C4A33056   7.260  14.457   4.782 -0.0614 -0.0157  0.0242
 2722POPC   C1B33057   8.323  13.529   4.407 -0.1428 -0.1414 -0.0057
 2722POPC   C2B33058   8.426  13.657   4.839  0.1521 -0.0743  0.4116
 2722POPC   C3B33059   8.543  13.533   5.240 -0.0212  0.0989 -0.2531
 2722POPC   C4B33060   8.381  13.243   5.532 -0.1128 -0.0765 -0.1471
 2723POPC   NC333061   7.077   3.749   3.447 -0.0708  0.4095  0.1195
 2723POPC   PO433062   6.774   3.761   3.685  0.0663 -0.1708  0.1513
 2723POPC   GL133063   6.916   3.842   4.004 -0.2714  0.3140  0.5004
 2723POPC   GL233064   7.169   3.727   3.962 -0.1761 -0.2337 -0.0764
 2723POPC   C1A33065   6.801   3.918   4.459  0.0248  0.0208 -0.1921
 2723POPC   D2A33066   6.626   3.763   4.876 -0.3381  0.0685 -0.0489
 2723POPC   C3A33067   6.759   3.905   5.317  0.1891  0.1713  0.0129
 2723POPC   C4A33068   6.952   3.743   5.652  0.0065  0.0183  0.2976
 2723POPC   C1B33069   7.096   3.497   4.344 -0.4586 -0.1138 -0.0020
 2723POPC   C2B33070   7.265   3.406   4.731 -0.1115  0.2521 -0.1136
 2723POPC   C3B33071   7.508   3.191   5.091 -0.1761  0.1185 -0.1290
 2723POPC   C4B33072   7.794   3.032   5.408  0.1661 -0.1247  0.1592
 2724POPC   NC333073   6.872   4.588   3.756  0.1161  0.1813 -0.2099
 2724POPC   PO433074   7.201   4.694   3.577  0.1314  0.0462  0.2774
 2724POPC   GL133075   7.258   4.569   3.968  0.2683 -0.1104  0.0858
 2724POPC   GL233076   7.289   4.850   4.099 -0.1334  0.1367  0.1268
 2724POPC   C1A33077   7.556   4.371   4.242  0.2491 -0.3165  0.1972
 2724POPC   D2A33078   7.729   4.163   4.667  0.0371 -0.1957  0.2240
 2724POPC   C3A33079   7.654   4.044   5.059  0.1437 -0.2850 -0.1253
 2724POPC   C4A33080   7.756   4.039   5.455  0.0692  0.1094 -0.1210
 2724POPC   C1B33081   7.460   4.844   4.543  0.0589  0.0512  0.1786
 2724POPC   C2B33082   7.761   4.986   4.891  0.1394  0.1520  0.2726
 2724POPC   C3B33083   7.962   4.763   5.269  0.3262  0.0064 -0.1189
 2724POPC   C4B33084   8.008   4.423   5.616  0.3456 -0.1973  0.4397
 2725POPC   NC333085   5.376   6.115   3.692  0.5816  0.0414  0.1320
 2725POPC   PO433086   5.278   5.787   3.873  0.2475 -0.0245 -0.0410
 2725POPC   GL133087   5.012   6.021   4.084 -0.0863 -0.0422 -0.1189
 2725POPC   GL233088   5.065   5.854   4.352 -0.0319 -0.0266  0.1931
 2725POPC   C1A33089   4.802   6.299   4.306  0.5244 -0.2756 -0.2528
 2725POPC   D2A33090   4.655   6.348   4.737 -0.1141 -0.2258  0.6470
 2725POPC   C3A33091   4.857   6.392   5.168  0.0996  0.0967  0.2361
 2725POPC   C4A33092   4.971   6.113   5.499  0.0987  0.2308 -0.3937
 2725POPC   C1B33093   4.881   5.547   4.673  0.1083 -0.2686  0.1967
 2725POPC   C2B33094   4.662   5.460   5.016 -0.3314 -0.1201  0.0063
 2725POPC   C3B33095   4.791   5.394   5.413 -0.0382  0.1008  0.2027
 2725POPC   C4B33096   4.802   5.175   5.793  0.1487  0.3485  0.0813
 2726POPC   NC333097   9.310  12.862   3.872  0.1125  0.1044 -0.2033
 2726POPC   PO433098   9.269  12.778   3.532 -0.3522  0.1136 -0.1133
 2726POPC   GL133099   9.277  12.414   3.651  0.1334 -0.1018  0.2606
 2726POPC   GL233100   9.055  12.339   3.568 -0.0617  0.1329 -0.1987
 2726POPC   C1A33101   9.355  12.114   4.034  0.2125 -0.0802 -0.1808
 2726POPC   D2A33102   9.184  11.829   4.362  0.0878  0.4886 -0.0090
 2726POPC   C3A33103   9.296  11.853   4.832  0.1838  0.1626  0.1260
 2726POPC   C4A33104   9.457  11.836   5.290  0.1618  0.1712  0.0155
 2726POPC   C1B33105   8.956  12.363   4.006  0.1680 -0.1463 -0.0583
 2726POPC   C2B33106   9.021  12.301   4.457  0.1171 -0.1618 -0.0972
 2726POPC   C3B33107   8.803  12.117   4.866 -0.2094 -0.0710 -0.2463
 2726POPC   C4B33108   8.803  11.774   5.119 -0.1934  0.0127  0.1238
 2727POPC   NC333109   5.027   0.883   3.736 -0.0709 -0.1904 -0.0957
 2727POPC   PO433110   4.734   1.105   3.584  0.0262  0.4520  0.0578
 2727POPC   GL133111   4.595   0.948   3.895  0.1444 -0.3997  0.0318
 2727POPC   GL233112   4.319   0.889   3.813  0.2397  0.1199 -0.0171
 2727POPC   C1A33113   4.772   0.639   4.221  0.1255 -0.0850 -0.4590
 2727POPC   D2A33114   4.881   0.458   4.592 -0.1146  0.1353  0.1632
 2727POPC   C3A33115   4.983   0.528   5.062  0.0872 -0.2638  0.1858
 2727POPC   C4A33116   5.160   0.300   5.449  0.1296  0.0371  0.0112
 2727POPC   C1B33117   4.309   1.113   4.165  0.2026  0.2519  0.0050
 2727POPC   C2B33118   4.053   1.348   4.483 -0.3639  0.3489 -0.0510
 2727POPC   C3B33119   4.160   1.720   4.713 -0.0939  0.2700  0.0539
 2727POPC   C4B33120   4.405   2.079   4.599 -0.1608  0.0495 -0.6636
 2728POPC   NC333121   1.180  19.177   4.045  0.0174  0.1966  0.1496
 2728POPC   PO433122   0.866  19.317   4.191 -0.1371 -0.0277 -0.0606
 2728POPC   GL133123   0.974  19.333   4.560 -0.2899 -0.2661  0.0053
 2728POPC   GL233124   1.286  19.409   4.567 -0.2394  0.1519 -0.1960
 2728POPC   C1A33125   0.687  19.303   4.885  0.0922 -0.0375 -0.0087
 2728POPC   D2A33126   0.533  19.285   5.342  0.1018  0.0780  0.1098
 2728POPC   C3A33127   0.409  18.998   5.673  0.1343  0.0703 -0.0647
 2728POPC   C4A33128   0.718  18.729   5.910  0.1162 -0.0518  0.0479
 2728POPC   C1B33129   1.231  19.320   5.023 -0.0066 -0.0525 -0.2869
 2728POPC   C2B33130   0.945  19.539   5.313 -0.1082  0.0500 -0.2091
 2728POPC   C3B33131   0.705  19.675   5.672  0.5799 -0.1947  0.0584
 2728POPC   C4B33132   0.789  19.998   6.010  0.0234 -0.0271 -0.1709
 2729POPC   NC333133   9.003  17.964   3.532 -0.2710 -0.0542  0.0026
 2729POPC   PO433134   8.646  17.817   3.480  0.3403  0.3169  0.1126
 2729POPC   GL133135   8.603  18.155   3.812  0.2226 -0.0221  0.0870
 2729POPC   GL233136   8.618  18.025   4.042  0.3213  0.2166  0.0806
 2729POPC   C1A33137   8.243  18.492   3.893  0.1641 -0.2021  0.1842
 2729POPC   D2A33138   7.876  18.535   4.166  0.2503  0.0401 -0.1964
 2729POPC   C3A33139   7.906  18.482   4.630 -0.0510 -0.0927  0.1210
 2729POPC   C4A33140   7.891  18.500   5.081 -0.2061  0.0608  0.0451
 2729POPC   C1B33141   8.629  18.341   4.307 -0.0859  0.2644 -0.1182
 2729POPC   C2B33142   8.390  18.663   4.569  0.1129  0.3580  0.1801
 2729POPC   C3B33143   8.348  18.934   4.927 -0.3163 -0.1269 -0.1368
 2729POPC   C4B33144   8.392  18.974   5.382 -0.3775  0.0357 -0.0031
 2730POPC   NC333145   0.077  30.358   3.724  0.2050 -0.0093 -0.1182
 2730POPC   PO433146  -0.251  30.549   3.643  0.3160 -0.0049  0.1748
 2730POPC   GL133147  -0.429  30.462   4.021 -0.3057  0.0554  0.1038
 2730POPC   GL233148  -0.167  30.573   4.140 -0.1112 -0.2272 -0.2190
 2730POPC   C1A33149  -0.311  30.198   4.415 -0.0696  0.0303  0.1105
 2730POPC   D2A33150  -0.221  30.053   4.918  0.1235  0.1242  0.0359
 2730POPC   C3A33151   0.022  29.684   5.082 -0.3628 -0.1173 -0.0683
 2730POPC   C4A33152   0.278  29.425   5.385  0.3058 -0.1940  0.1726
 2730POPC   C1B33153  -0.048  30.624   4.605  0.1472 -0.2510  0.0860
 2730POPC   C2B33154  -0.025  30.638   5.021 -0.0879 -0.1428 -0.2508
 2730POPC   C3B33155  -0.139  30.823   5.450 -0.0761  0.0982  0.0130
 2730POPC   C4B33156  -0.371  31.150   5.656 -0.0296  0.1701 -0.0444
 2731POPC   NC333157   4.242  11.375   4.217  0.1101  0.5262  0.3727
 2731POPC   PO433158   3.863  11.354   4.091  0.2036 -0.1131 -0.2644
 2731POPC   GL133159   3.587  11.453   4.400  0.0021 -0.0493  0.1652
 2731POPC   GL233160   3.583  11.766   4.324  0.3342  0.0927  0.0044
 2731POPC   C1A33161   3.391  11.315   4.812 -0.0340  0.0403  0.0172
 2731POPC   D2A33162   3.536  11.525   5.204 -0.3752 -0.2214  0.0937
 2731POPC   C3A33163   3.723  11.922   5.132 -0.2076 -0.0756  0.2953
 2731POPC   C4A33164   3.624  12.382   5.035  0.2659  0.1663  0.1872
 2731POPC   C1B33165   3.893  11.571   4.690  0.3192  0.2506  0.2041
 2731POPC   C2B33166   3.910  11.248   5.026 -0.2382  0.0790  0.0106
 2731POPC   C3B33167   4.084  11.143   5.464  0.0439 -0.2259  0.0570
 2731POPC   C4B33168   3.928  11.029   5.922 -0.2660 -0.2999  0.3600
 2732POPC   NC333169   0.597   4.395   3.516 -0.0119  0.3616 -0.0600
 2732POPC   PO433170   0.965   4.552   3.628 -0.1882  0.1600 -0.3352
 2732POPC   GL133171   1.180   4.722   3.875  0.2099 -0.1252 -0.3862
 2732POPC   GL233172   1.125   4.974   3.824  0.2237  0.1854 -0.1721
 2732POPC   C1A33173   1.402   4.666   4.277  0.1699  0.3135  0.2068
 2732POPC   D2A33174   1.446   4.644   4.741 -0.1386  0.2381 -0.0301
 2732POPC   C3A33175   1.264   4.776   5.115  0.1214  0.0529 -0.1084
 2732POPC   C4A33176   1.263   4.617   5.542  0.0157  0.2513  0.0613
 2732POPC   C1B33177   0.979   4.968   4.306 -0.0707 -0.1122  0.0607
 2732POPC   C2B33178   0.998   5.063   4.773 -0.2351 -0.0362  0.2103
 2732POPC   C3B33179   1.102   5.263   5.170 -0.0407 -0.0178 -0.0368
 2732POPC   C4B33180   1.312   5.167   5.579 -0.1948  0.0501  0.3500
 2733POPC   NC333181   0.266  22.121   3.050  0.1134 -0.1351  0.1705
 2733POPC   PO433182   0.096  22.266   3.367  0.1976  0.0659  0.3639
 2733POPC   GL133183   0.357  22.060   3.664  0.0510 -0.0639  0.0311
 2733POPC   GL233184   0.314  21.817   3.730  0.0331 -0.0216 -0.3595
 2733POPC   C1A33185   0.541  22.138   4.099  0.2255  0.1359 -0.1072
 2733POPC   D2A33186   0.748  21.985   4.467 -0.0570 -0.1812 -0.2642
 2733POPC   C3A33187   0.615  22.007   4.909 -0.0590  0.2058 -0.0477
 2733POPC   C4A33188   0.593  21.717   5.309 -0.0854 -0.0081 -0.0292
 2733POPC   C1B33189   0.151  21.814   4.163  0.0832  0.0739 -0.3161
 2733POPC   C2B33190   0.183  21.867   4.620 -0.0563  0.0232  0.0250
 2733POPC   C3B33191   0.142  21.819   5.090  0.1141  0.0004  0.0119
 2733POPC   C4B33192   0.048  21.793   5.563 -0.5207 -0.0925 -0.4170
 2734POPC   NC333193  10.826  18.577   3.855  0.2574  0.1407 -0.2474
 2734POPC   PO433194  11.049  18.297   3.807 -0.0190  0.3186  0.1207
 2734POPC   GL133195  10.986  18.131   4.156 -0.4051  0.1711 -0.1905
 2734POPC   GL233196  11.088  17.895   4.139 -0.1520 -0.1981  0.1436
 2734POPC   C1A33197  10.869  18.044   4.588  0.3318 -0.2939 -0.1065
 2734POPC   D2A33198  10.874  17.823   5.010 -0.1006  0.2827 -0.0755
 2734POPC   C3A33199  10.954  17.934   5.421  0.0396  0.1700  0.0958
 2734POPC   C4A33200  10.868  17.635   5.788  0.1306  0.1101 -0.1356
 2734POPC   C1B33201  11.229  17.739   4.533  0.1533  0.1485  0.1372
 2734POPC   C2B33202  11.413  17.803   4.932 -0.1331 -0.0450 -0.2137
 2734POPC   C3B33203  11.470  17.720   5.376  0.0267 -0.0340  0.2905
 2734POPC   C4B33204  11.328  17.779   5.829  0.1415 -0.1944  0.0248
 2735POPC   NC333205  15.473  31.053   3.577  0.0334 -0.0045 -0.0558
 2735POPC   PO433206  15.101  31.166   3.632  0.0884 -0.0829  0.0560
 2735POPC   GL133207  15.072  31.003   4.032  0.1980  0.1751  0.1370
 2735POPC   GL233208  15.214  30.811   3.994  0.1511  0.1403  0.1893
 2735POPC   C1A33209  14.862  30.986   4.460 -0.0473 -0.1095  0.1570
 2735POPC   D2A33210  15.029  30.943   4.837 -0.1836  0.2093 -0.0267
 2735POPC   C3A33211  15.214  31.340   4.908 -0.1013  0.0396 -0.2772
 2735POPC   C4A33212  15.507  31.589   4.621  0.0740 -0.0543  0.1169
 2735POPC   C1B33213  15.273  30.681   4.427 -0.2563 -0.1893 -0.0874
 2735POPC   C2B33214  15.407  30.479   4.833 -0.1384 -0.1585 -0.2236
 2735POPC   C3B33215  15.443  30.392   5.325  0.0974  0.2149  0.3223
 2735POPC   C4B33216  15.530  30.347   5.773 -0.1001 -0.2473  0.1443
 2736POPC   NC333217   6.910  14.827   3.816 -0.2957  0.1110 -0.2313
 2736POPC   PO433218   7.304  14.782   3.847  0.1707  0.1409  0.0133
 2736POPC   GL133219   7.340  15.065   4.197 -0.0520 -0.0093  0.1054
 2736POPC   GL233220   7.123  14.957   4.348  0.1659  0.1895  0.1120
 2736POPC   C1A33221   7.266  15.279   4.658 -0.0443 -0.1979  0.0602
 2736POPC   D2A33222   7.147  15.648   4.955  0.0198  0.0268  0.4843
 2736POPC   C3A33223   6.922  15.613   5.362 -0.0903  0.1632 -0.0204
 2736POPC   C4A33224   7.094  15.820   5.753  0.1788  0.0996  0.0692
 2736POPC   C1B33225   6.919  14.823   4.747 -0.2450  0.0102  0.2425
 2736POPC   C2B33226   7.009  14.650   5.188 -0.0731 -0.0505  0.2901
 2736POPC   C3B33227   6.970  14.798   5.640 -0.2493 -0.0819  0.1997
 2736POPC   C4B33228   6.901  15.224   5.780  0.1024  0.0936  0.3621
 2737POPC   NC333229   9.827   1.906   3.788 -0.1068  0.0964  0.0508
 2737POPC   PO433230   9.559   2.137   3.603 -0.0225  0.1404 -0.2465
 2737POPC   GL133231   9.271   2.105   3.891  0.0883 -0.0145 -0.2305
 2737POPC   GL233232   9.452   2.035   4.055  0.4421  0.1073  0.0790
 2737POPC   C1A33233   9.247   2.463   4.225 -0.0913  0.0292  0.0446
 2737POPC   D2A33234   8.972   2.735   4.444 -0.3092 -0.2042  0.2648
 2737POPC   C3A33235   9.023   2.627   4.869  0.1152  0.0556 -0.1856
 2737POPC   C4A33236   8.745   2.747   5.204 -0.0869 -0.1555  0.0355
 2737POPC   C1B33237   9.216   1.972   4.487 -0.3084 -0.1130  0.1023
 2737POPC   C2B33238   8.958   1.922   4.862  0.5761 -0.0003  0.1050
 2737POPC   C3B33239   8.723   2.208   5.228 -0.1119 -0.0751  0.2122
 2737POPC   C4B33240   8.481   2.306   5.620  0.0338 -0.0467 -0.0616
 2738POPC   NC333241   1.143  15.559   3.864 -0.1173  0.0683 -0.4264
 2738POPC   PO433242   0.777  15.547   3.715  0.1040 -0.1000 -0.1189
 2738POPC   GL133243   0.668  15.483   4.078 -0.2275 -0.0256  0.2652
 2738POPC   GL233244   0.474  15.198   4.027 -0.0368  0.0021  0.0027
 2738POPC   C1A33245   1.013  15.457   4.358 -0.1006  0.1200 -0.2267
 2738POPC   D2A33246   1.392  15.507   4.627 -0.1093  0.0621 -0.0390
 2738POPC   C3A33247   1.499  15.487   5.064 -0.2738 -0.0945  0.2551
 2738POPC   C4A33248   1.438  15.501   5.552  0.0222  0.2289 -0.1707
 2738POPC   C1B33249   0.499  15.234   4.486 -0.0286 -0.1296  0.1028
 2738POPC   C2B33250   0.543  15.172   4.912  0.1067  0.0923 -0.0724
 2738POPC   C3B33251   0.684  15.110   5.320  0.0778  0.0686  0.0156
 2738POPC   C4B33252   1.084  15.099   5.535  0.3611  0.3964 -0.2356
 2739POPC   NC333253  13.685   3.872   4.322  0.0597  0.1822  0.1012
 2739POPC   PO433254  14.054   4.056   4.320 -0.0250 -0.2003 -0.0630
 2739POPC   GL133255  14.104   3.805   4.650 -0.3950  0.3037  0.2889
 2739POPC   GL233256  14.368   3.646   4.629 -0.0650 -0.0107 -0.2159
 2739POPC   C1A33257  13.799   3.906   4.978 -0.1849 -0.1067 -0.1854
 2739POPC   D2A33258  13.411   4.096   5.121  0.1501  0.2204  0.1585
 2739POPC   C3A33259  13.462   4.329   5.493 -0.0923  0.4301  0.2842
 2739POPC   C4A33260  13.580   4.206   5.938 -0.0071  0.0167  0.2358
 2739POPC   C1B33261  14.298   3.748   5.105 -0.2721  0.0736 -0.1076
 2739POPC   C2B33262  14.397   3.623   5.540 -0.2445  0.2990 -0.0647
 2739POPC   C3B33263  14.205   3.590   6.009  0.3348  0.0124 -0.1652
 2739POPC   C4B33264  13.910   3.925   6.238 -0.2058  0.2081 -0.0918
 2740POPC   NC333265   2.733  28.869   3.634 -0.0550 -0.0744 -0.0601
 2740POPC   PO433266   2.417  28.693   3.801 -0.2755  0.0943 -0.2904
 2740POPC   GL133267   2.707  28.595   4.079  0.2928 -0.0331  0.5130
 2740POPC   GL233268   2.830  28.844   4.108  0.0501  0.0755  0.0723
 2740POPC   C1A33269   2.747  28.584   4.533  0.0140 -0.1039  0.4236
 2740POPC   D2A33270   2.780  28.683   4.958 -0.3671 -0.0759 -0.2528
 2740POPC   C3A33271   2.571  28.446   5.257  0.0375  0.1448 -0.0658
 2740POPC   C4A33272   2.318  28.559   5.649 -0.0869 -0.1446  0.1179
 2740POPC   C1B33273   2.634  29.038   4.483 -0.0352  0.2787 -0.2748
 2740POPC   C2B33274   2.650  29.140   4.930 -0.2435  0.4169 -0.4693
 2740POPC   C3B33275   2.734  28.979   5.368  0.1232 -0.4145  0.2298
 2740POPC   C4B33276   2.621  29.086   5.799 -0.1625  0.2336 -0.1518
 2741POPC   NC333277   6.760  28.481   3.711 -0.3258 -0.5008  0.0823
 2741POPC   PO433278   6.567  28.131   3.621  0.1460 -0.1415 -0.0890
 2741POPC   GL133279   6.659  28.064   3.991  0.1797 -0.0959 -0.0892
 2741POPC   GL233280   6.442  27.954   4.170 -0.4456 -0.0864 -0.1219
 2741POPC   C1A33281   6.925  28.145   4.342  0.2658 -0.1851  0.0125
 2741POPC   D2A33282   6.935  28.286   4.779 -0.1321  0.1180  0.4303
 2741POPC   C3A33283   6.622  28.127   5.038  0.0663 -0.3517 -0.1486
 2741POPC   C4A33284   6.272  28.282   5.264 -0.3867  0.0366  0.1896
 2741POPC   C1B33285   6.452  28.160   4.547  0.1963 -0.1141  0.1852
 2741POPC   C2B33286   6.500  28.522   4.816  0.0471  0.0269 -0.0843
 2741POPC   C3B33287   6.531  28.735   5.227 -0.0810 -0.0369 -0.1613
 2741POPC   C4B33288   6.754  29.037   5.534 -0.3269 -0.2384  0.3114
 2742POPC   NC333289   9.562  20.494   3.328 -0.2398 -0.1952 -0.1042
 2742POPC   PO433290   9.254  20.280   3.388 -0.1131  0.1404 -0.0560
 2742POPC   GL133291   9.414  20.477   3.784  0.0191 -0.1586 -0.3443
 2742POPC   GL233292   9.607  20.297   3.933 -0.1385  0.5131 -0.0641
 2742POPC   C1A33293   9.489  20.918   3.907  0.0600  0.2189  0.2312
 2742POPC   D2A33294   9.497  21.159   4.230 -0.0142 -0.1047 -0.1676
 2742POPC   C3A33295   9.578  21.108   4.696  0.1353  0.0690  0.0314
 2742POPC   C4A33296   9.596  21.067   5.114 -0.1681 -0.0696  0.0333
 2742POPC   C1B33297   9.538  20.565   4.323  0.1718  0.0178 -0.1607
 2742POPC   C2B33298   9.593  20.601   4.797 -0.0395 -0.0900  0.0663
 2742POPC   C3B33299   9.423  20.593   5.264 -0.2872  0.0869  0.1020
 2742POPC   C4B33300   9.624  20.754   5.677  0.1044  0.2631  0.0159
 2743POPC   NC333301  15.380   8.072   4.078  0.0088 -0.0185  0.1747
 2743POPC   PO433302  15.084   7.840   3.994 -0.1355 -0.1175 -0.0145
 2743POPC   GL133303  14.967   7.718   4.366  0.1906  0.0677  0.2896
 2743POPC   GL233304  14.903   7.453   4.566 -0.2726 -0.3005 -0.2713
 2743POPC   C1A33305  15.232   7.839   4.652 -0.1332  0.0127 -0.0518
 2743POPC   D2A33306  15.589   7.726   4.889  0.1214 -0.2604  0.2857
 2743POPC   C3A33307  15.599   7.566   5.292 -0.1848 -0.3132 -0.2132
 2743POPC   C4A33308  15.252   7.640   5.597 -0.2441 -0.1480 -0.0596
 2743POPC   C1B33309  14.956   7.050   4.811  0.0988  0.0584  0.1890
 2743POPC   C2B33310  15.281   6.767   4.924  0.1454 -0.0342  0.1233
 2743POPC   C3B33311  15.544   6.506   5.170  0.1945  0.0769  0.0077
 2743POPC   C4B33312  15.750   6.112   5.049  0.1725  0.1837 -0.2754
 2744POPC   NC333313   8.244   0.638   3.104 -0.2106  0.0253  0.2375
 2744POPC   PO433314   7.915   0.797   2.898  0.0683 -0.2889 -0.0564
 2744POPC   GL133315   7.814   0.724   3.297  0.0037  0.0737 -0.0971
 2744POPC   GL233316   7.669   0.472   3.366 -0.0996  0.1111  0.0041
 2744POPC   C1A33317   8.155   0.669   3.624  0.2858 -0.3764  0.0945
 2744POPC   D2A33318   8.308   0.656   4.086 -0.0515  0.2854 -0.1450
 2744POPC   C3A33319   8.427   0.320   4.395 -0.1066  0.1932 -0.1765
 2744POPC   C4A33320   8.425   0.116   4.818 -0.3686  0.0085  0.0164
 2744POPC   C1B33321   7.641   0.397   3.810  0.0614  0.1724  0.1716
 2744POPC   C2B33322   7.429   0.467   4.218 -0.0335  0.1394  0.1377
 2744POPC   C3B33323   7.193   0.562   4.580 -0.1458  0.0154  0.2227
 2744POPC   C4B33324   7.141   0.474   5.030  0.1885  0.3134 -0.0405
 2745POPC   NC333325  12.140  16.043   3.437  0.1763 -0.0735  0.0087
 2745POPC   PO433326  11.797  16.024   3.640 -0.1241  0.0105 -0.0612
 2745POPC   GL133327  11.636  16.155   3.978 -0.1075  0.5034  0.1551
 2745POPC   GL233328  11.847  15.985   4.133 -0.1661  0.0624  0.1188
 2745POPC   C1A33329  11.593  16.574   4.270  0.0675 -0.2273 -0.1620
 2745POPC   D2A33330  11.661  16.945   4.624 -0.0845  0.3313  0.1977
 2745POPC   C3A33331  11.772  16.760   5.010 -0.1949 -0.2474 -0.3018
 2745POPC   C4A33332  11.891  16.681   5.447  0.1154  0.0329  0.0645
 2745POPC   C1B33333  12.044  16.156   4.554 -0.1534 -0.0679  0.0453
 2745POPC   C2B33334  12.061  16.165   5.002 -0.0510  0.1960 -0.0059
 2745POPC   C3B33335  11.915  16.181   5.441 -0.3359  0.1422 -0.5038
 2745POPC   C4B33336  11.618  16.370   5.782 -0.2000  0.0020 -0.1857
 2746POPC   NC333337   0.685  20.413   4.049  0.0067 -0.0136  0.1590
 2746POPC   PO433338   1.011  20.217   4.024 -0.4486  0.2340 -0.0365
 2746POPC   GL133339   1.075  20.101   4.394 -0.3779  0.0022  0.1552
 2746POPC   GL233340   0.832  20.106   4.473 -0.0863  0.2122 -0.0660
 2746POPC   C1A33341   1.085  19.814   4.783 -0.0007 -0.0503  0.0086
 2746POPC   D2A33342   1.241  19.906   5.269 -0.1651 -0.3032  0.0043
 2746POPC   C3A33343   1.176  19.790   5.710  0.3205 -0.3049  0.3186
 2746POPC   C4A33344   1.297  19.890   6.151 -0.0582 -0.0653  0.2360
 2746POPC   C1B33345   0.820  20.366   4.868 -0.3989 -0.2569 -0.1735
 2746POPC   C2B33346   0.695  20.542   5.298 -0.0846  0.0181 -0.5940
 2746POPC   C3B33347   0.414  20.602   5.690 -0.4727 -0.1874 -0.0937
 2746POPC   C4B33348   0.390  20.488   6.168  0.1144 -0.1550 -0.2932
 2747POPC   NC333349   4.009  12.072   3.457 -0.3215  0.0871  0.2419
 2747POPC   PO433350   4.237  11.842   3.643  0.1116  0.0019  0.2184
 2747POPC   GL133351   4.356  11.835   4.049 -0.0801  0.3359  0.2904
 2747POPC   GL233352   4.119  11.896   4.222  0.0250  0.0422  0.0840
 2747POPC   C1A33353   4.582  12.190   4.163 -0.0454  0.0870  0.1548
 2747POPC   D2A33354   4.831  12.462   4.407  0.0252  0.2267  0.1063
 2747POPC   C3A33355   5.168  12.490   4.751  0.2339  0.1066 -0.1159
 2747POPC   C4A33356   5.580  12.676   4.876 -0.1596  0.0800  0.0920
 2747POPC   C1B33357   4.314  12.052   4.529 -0.2443  0.0998 -0.1109
 2747POPC   C2B33358   4.605  12.244   4.814 -0.1958 -0.0834  0.2110
 2747POPC   C3B33359   4.860  12.342   5.128  0.0100  0.0043  0.1162
 2747POPC   C4B33360   5.046  12.115   5.509 -0.1618  0.3694  0.0683
 2748POPC   NC333361   2.313   9.151   3.400  0.0000  0.4136 -0.1127
 2748POPC   PO433362   2.101   8.916   3.682 -0.1448  0.1477 -0.0157
 2748POPC   GL133363   2.335   8.761   4.111  0.0868 -0.0370 -0.1767
 2748POPC   GL233364   2.187   9.000   4.166  0.1801  0.0610 -0.0928
 2748POPC   C1A33365   2.326   8.729   4.566 -0.1263 -0.1863  0.0043
 2748POPC   D2A33366   2.246   8.619   5.007  0.2030 -0.1019  0.0009
 2748POPC   C3A33367   1.979   8.735   5.369  0.2683  0.1915 -0.0904
 2748POPC   C4A33368   2.058   8.661   5.804  0.0210 -0.2365  0.1730
 2748POPC   C1B33369   1.843   8.704   4.419 -0.2940  0.0080 -0.1697
 2748POPC   C2B33370   1.727   8.675   4.896 -0.0638 -0.0252  0.0145
 2748POPC   C3B33371   1.809   8.268   5.184  0.0435  0.1938  0.3956
 2748POPC   C4B33372   2.049   7.865   5.229 -0.0923  0.3030 -0.0640
 2749POPC   NC333373   9.459  30.356   3.889 -0.3699 -0.0300  0.3692
 2749POPC   PO433374   9.418  30.750   3.894  0.0224 -0.0975 -0.0677
 2749POPC   GL133375   9.364  30.583   4.332  0.0489 -0.0493 -0.2721
 2749POPC   GL233376   9.591  30.547   4.345 -0.0537 -0.0331 -0.0447
 2749POPC   C1A33377   9.247  30.669   4.771 -0.2293  0.2613  0.1851
 2749POPC   D2A33378   9.392  30.625   5.246  0.0824 -0.2541 -0.0345
 2749POPC   C3A33379   9.131  30.770   5.648 -0.1350 -0.0358  0.2998
 2749POPC   C4A33380   9.300  30.994   5.997  0.1394  0.1674  0.0192
 2749POPC   C1B33381   9.668  30.993   4.493 -0.2094  0.0847  0.0638
 2749POPC   C2B33382   9.939  31.232   4.721  0.2981 -0.0850 -0.0183
 2749POPC   C3B33383  10.211  31.327   5.062  0.2011  0.0904  0.2713
 2749POPC   C4B33384  10.492  31.318   5.450 -0.0776  0.0430 -0.2464
 2750POPC   NC333385   0.475  11.618   3.053 -0.0215 -0.0211  0.3214
 2750POPC   PO433386   0.431  11.419   3.374 -0.3735  0.4788  0.0911
 2750POPC   GL133387   0.230  11.489   3.730  0.1969  0.2219 -0.2188
 2750POPC   GL233388   0.358  11.296   3.912 -0.0875 -0.4444  0.3241
 2750POPC   C1A33389  -0.009  11.640   4.094  0.0551  0.1347  0.1500
 2750POPC   D2A33390  -0.261  11.791   4.487 -0.2360 -0.1424  0.3136
 2750POPC   C3A33391  -0.089  11.981   4.862  0.1119 -0.1160  0.1389
 2750POPC   C4A33392  -0.025  11.966   5.310 -0.4106 -0.2165 -0.2251
 2750POPC   C1B33393   0.259  10.838   4.063  0.2746 -0.1013  0.2498
 2750POPC   C2B33394  -0.015  10.524   4.287  0.3455  0.2825  0.1587
 2750POPC   C3B33395  -0.179  10.302   4.644 -0.0586 -0.0269 -0.0950
 2750POPC   C4B33396  -0.459  10.453   5.052  0.0277 -0.3428  0.4258
 2751POPC   NC333397  14.797  19.398   3.496  0.0285  0.0444 -0.2899
 2751POPC   PO433398  14.457  19.548   3.476  0.0617 -0.0194 -0.3826
 2751POPC   GL133399  14.502  19.578   3.916 -0.0270  0.0422  0.0725
 2751POPC   GL233400  14.682  19.834   3.916  0.0610  0.0996 -0.0967
 2751POPC   C1A33401  14.476  19.747   4.361  0.3940  0.1920  0.1461
 2751POPC   D2A33402  14.548  19.959   4.763 -0.1206  0.0705  0.2116
 2751POPC   C3A33403  14.335  20.213   5.123  0.0689  0.2848  0.1586
 2751POPC   C4A33404  14.139  20.366   5.505 -0.1106 -0.2756 -0.3208
 2751POPC   C1B33405  14.392  20.143   4.096  0.1006 -0.1826 -0.0632
 2751POPC   C2B33406  14.203  20.307   4.493  0.3414 -0.1553 -0.2071
 2751POPC   C3B33407  13.943  20.444   4.894 -0.1510  0.0583 -0.0983
 2751POPC   C4B33408  13.642  20.468   5.258  0.0034  0.2658 -0.0295
 2752POPC   NC333409   3.676   7.279   3.296 -0.2731  0.1266 -0.2327
 2752POPC   PO433410   3.613   6.899   3.239  0.0810 -0.1761  0.1960
 2752POPC   GL133411   3.548   6.872   3.618  0.5267  0.0149 -0.1059
 2752POPC   GL233412   3.337   6.874   3.838 -0.1345 -0.0774  0.1338
 2752POPC   C1A33413   3.909   6.760   3.880 -0.0383  0.3856 -0.2045
 2752POPC   D2A33414   4.233   6.858   4.244 -0.2782  0.2678 -0.0044
 2752POPC   C3A33415   4.355   6.889   4.693  0.0452 -0.1305  0.0131
 2752POPC   C4A33416   4.461   6.739   5.103 -0.2507 -0.0209  0.0056
 2752POPC   C1B33417   3.209   6.620   4.277  0.0193  0.0566 -0.2115
 2752POPC   C2B33418   3.062   6.283   4.559  0.0417  0.0007  0.0152
 2752POPC   C3B33419   2.788   6.229   4.927 -0.0219 -0.1133 -0.1396
 2752POPC   C4B33420   2.933   6.192   5.339  0.1048 -0.0608  0.1825
 2753POPC   NC333421   8.174  23.274   3.371  0.0835  0.3364  0.0388
 2753POPC   PO433422   8.446  23.212   3.657 -0.0215  0.3811  0.2741
 2753POPC   GL133423   8.372  23.204   4.106 -0.4857  0.3069  0.2564
 2753POPC   GL233424   8.712  23.154   4.125  0.0681  0.1049  0.0699
 2753POPC   C1A33425   8.486  23.336   4.549  0.0685  0.0209  0.2861
 2753POPC   D2A33426   8.433  23.255   5.009 -0.0108  0.1636 -0.3592
 2753POPC   C3A33427   8.612  22.903   5.220 -0.3413 -0.1321  0.1306
 2753POPC   C4A33428   8.375  22.521   5.352  0.1213 -0.1747  0.0898
 2753POPC   C1B33429   8.830  22.793   4.363  0.0431  0.1379 -0.0260
 2753POPC   C2B33430   8.860  22.571   4.765  0.1726  0.2600  0.3663
 2753POPC   C3B33431   8.997  22.421   5.204 -0.1305 -0.2694 -0.1570
 2753POPC   C4B33432   8.762  22.215   5.544  0.1340  0.1400 -0.2117
 2754POPC   NC333433   5.741  21.499   3.531 -0.1875  0.0293  0.2008
 2754POPC   PO433434   5.774  21.495   3.912 -0.1138  0.1452  0.3009
 2754POPC   GL133435   5.752  21.492   4.265 -0.1017 -0.0125  0.2400
 2754POPC   GL233436   5.842  21.212   4.406 -0.3763  0.2226 -0.1641
 2754POPC   C1A33437   5.985  21.754   4.579 -0.0036  0.2214  0.1631
 2754POPC   D2A33438   5.885  22.140   4.819 -0.1582 -0.4525 -0.0270
 2754POPC   C3A33439   6.257  22.378   5.001  0.2212 -0.3547 -0.0076
 2754POPC   C4A33440   6.634  22.508   5.229 -0.1515 -0.1047  0.2677
 2754POPC   C1B33441   5.991  21.126   4.873 -0.2360 -0.2519 -0.0874
 2754POPC   C2B33442   6.211  21.107   5.296  0.0126  0.0172 -0.1631
 2754POPC   C3B33443   6.358  20.967   5.763 -0.0830  0.1043 -0.0104
 2754POPC   C4B33444   6.248  20.553   5.959 -0.0171 -0.1425 -0.0246
 2755POPC   NC333445   6.783  19.575   4.224  0.0462 -0.0719  0.0161
 2755POPC   PO433446   6.634  19.699   3.889  0.1590 -0.0627 -0.1744
 2755POPC   GL133447   6.329  19.486   4.099  0.2287  0.2803 -0.3206
 2755POPC   GL233448   6.072  19.347   4.109 -0.3950  0.1912 -0.1619
 2755POPC   C1A33449   6.303  19.411   4.573  0.0076  0.1677  0.1183
 2755POPC   D2A33450   6.378  19.053   4.895  0.0330 -0.4548  0.0581
 2755POPC   C3A33451   6.118  18.938   5.295  0.0731  0.4497 -0.4169
 2755POPC   C4A33452   6.322  18.835   5.697 -0.2782 -0.1294  0.1035
 2755POPC   C1B33453   5.851  19.265   4.536 -0.1056  0.4711 -0.2297
 2755POPC   C2B33454   5.920  19.184   4.953 -0.0434  0.1057  0.0034
 2755POPC   C3B33455   5.775  19.238   5.356 -0.1068  0.2874  0.0346
 2755POPC   C4B33456   5.453  19.244   5.761 -0.2541 -0.0630  0.0662
 2756POPC   NC333457  15.639  20.365   3.284 -0.0035 -0.0172  0.0655
 2756POPC   PO433458  15.594  20.462   3.658  0.3426 -0.1225  0.5792
 2756POPC   GL133459  15.438  20.417   3.936 -0.1572  0.0407  0.1298
 2756POPC   GL233460  15.543  20.316   4.190  0.0778  0.0377 -0.4461
 2756POPC   C1A33461  15.161  20.620   4.232 -0.2021 -0.2814  0.1212
 2756POPC   D2A33462  15.309  20.617   4.710 -0.0147  0.1976  0.0879
 2756POPC   C3A33463  15.263  20.499   5.146 -0.0033  0.0115  0.0441
 2756POPC   C4A33464  15.271  20.319   5.573  0.0853 -0.0088  0.1881
 2756POPC   C1B33465  15.706  20.306   4.627  0.0236 -0.1894 -0.0148
 2756POPC   C2B33466  15.670  20.159   5.051 -0.1012 -0.3590 -0.0111
 2756POPC   C3B33467  15.664  19.974   5.480 -0.1276 -0.0700  0.0518
 2756POPC   C4B33468  15.525  20.107   5.922 -0.0609 -0.0344  0.1732
 2757POPC   NC333469   5.887  11.334   3.350 -0.0507  0.0042 -0.0754
 2757POPC   PO433470   5.818  11.186   3.679  0.1272 -0.0363 -0.4888
 2757POPC   GL133471   5.692  11.183   4.032  0.1744 -0.2861 -0.2337
 2757POPC   GL233472   5.388  11.114   3.962 -0.2677  0.1261  0.2253
 2757POPC   C1A33473   5.733  11.367   4.467  0.0536  0.1404  0.2800
 2757POPC   D2A33474   5.879  11.290   4.920 -0.0339  0.0049  0.0728
 2757POPC   C3A33475   5.958  11.544   5.214  0.0550  0.0818  0.2319
 2757POPC   C4A33476   6.057  11.509   5.607  0.0058 -0.1506 -0.4405
 2757POPC   C1B33477   5.323  11.085   4.402  0.0321 -0.0818 -0.1270
 2757POPC   C2B33478   5.393  11.122   4.836  0.0565  0.0850  0.0760
 2757POPC   C3B33479   5.509  11.230   5.262 -0.2344  0.0799  0.1660
 2757POPC   C4B33480   5.547  11.535   5.662 -0.2133 -0.2461 -0.2110
 2758POPC   NC333481  15.020  14.185   3.593  0.0772  0.0352 -0.0421
 2758POPC   PO433482  14.752  13.906   3.553 -0.1312  0.1582 -0.0397
 2758POPC   GL133483  15.018  13.917   3.953 -0.1000  0.0850 -0.1335
 2758POPC   GL233484  15.249  13.749   3.981  0.1759  0.3187 -0.1127
 2758POPC   C1A33485  14.851  14.008   4.361 -0.0306  0.1376  0.0686
 2758POPC   D2A33486  14.866  14.427   4.529 -0.0018  0.0425 -0.0907
 2758POPC   C3A33487  14.775  14.116   4.864  0.2539 -0.0620  0.2281
 2758POPC   C4A33488  14.779  13.994   5.269  0.3214  0.0635  0.3452
 2758POPC   C1B33489  15.169  13.594   4.444  0.0660 -0.1180 -0.0655
 2758POPC   C2B33490  14.889  13.664   4.792  0.1733 -0.0096  0.0191
 2758POPC   C3B33491  14.655  13.493   5.126  0.1398 -0.0610 -0.0397
 2758POPC   C4B33492  14.640  13.126   5.481 -0.0699 -0.0631 -0.0278
 2759POPC   NC333493  13.367  29.502   3.011  0.0179 -0.2940 -0.1731
 2759POPC   PO433494  13.123  29.756   3.232 -0.0611  0.2011 -0.0477
 2759POPC   GL133495  13.204  29.746   3.562 -0.3809 -0.2896 -0.0230
 2759POPC   GL233496  13.032  29.454   3.597  0.0149 -0.0879  0.3164
 2759POPC   C1A33497  13.315  29.586   3.997  0.2243 -0.0869  0.0948
 2759POPC   D2A33498  13.591  29.541   4.393 -0.0293  0.0784  0.0233
 2759POPC   C3A33499  13.887  29.225   4.449 -0.0679  0.0597  0.0059
 2759POPC   C4A33500  14.027  28.796   4.563  0.2120 -0.1039  0.2790
 2759POPC   C1B33501  13.502  29.263   3.631 -0.0363  0.1525  0.1216
 2759POPC   C2B33502  13.622  29.078   4.063 -0.1146 -0.0908  0.2809
 2759POPC   C3B33503  13.615  28.662   4.320 -0.1815  0.0858  0.0772
 2759POPC   C4B33504  13.704  28.262   4.114  0.2071  0.0859  0.0031
 2760POPC   NC333505  11.477  20.128   2.942  0.2262 -0.3529 -0.0938
 2760POPC   PO433506  11.240  19.836   3.016 -0.0163 -0.1784  0.2325
 2760POPC   GL133507  11.401  19.875   3.434 -0.0344  0.2160  0.0875
 2760POPC   GL233508  11.590  20.115   3.525 -0.1876  0.1203 -0.0574
 2760POPC   C1A33509  11.288  20.007   3.900  0.1569 -0.2150  0.1301
 2760POPC   D2A33510  10.924  20.127   4.134 -0.0364 -0.1176 -0.0516
 2760POPC   C3A33511  11.058  20.157   4.570  0.3846  0.0762  0.3026
 2760POPC   C4A33512  11.031  20.234   5.029  0.1534  0.1257 -0.0496
 2760POPC   C1B33513  11.427  20.448   3.798 -0.1415 -0.1992 -0.0300
 2760POPC   C2B33514  11.334  20.546   4.255  0.0654  0.0499  0.0110
 2760POPC   C3B33515  11.345  20.764   4.675  0.1574  0.2963  0.0416
 2760POPC   C4B33516  11.406  20.530   5.115  0.0127 -0.1090 -0.1250
 2761POPC   NC333517  10.718   5.306   3.464 -0.0540 -0.1015 -0.2665
 2761POPC   PO433518  10.939   5.504   3.742  0.3805  0.0233  0.1734
 2761POPC   GL133519  10.847   5.203   3.930 -0.0275  0.4476 -0.0725
 2761POPC   GL233520  10.695   5.244   4.173 -0.1965  0.0238 -0.2964
 2761POPC   C1A33521  10.828   4.769   3.985  0.3240  0.1801 -0.0491
 2761POPC   D2A33522  10.486   4.607   4.303  0.1582 -0.0093  0.1814
 2761POPC   C3A33523  10.545   4.630   4.738 -0.1736 -0.1625 -0.0791
 2761POPC   C4A33524  10.470   4.857   5.129 -0.1892 -0.2983  0.0885
 2761POPC   C1B33525  10.946   5.034   4.491  0.1766  0.1641 -0.2603
 2761POPC   C2B33526  10.949   5.015   4.964  0.1224  0.3622 -0.1426
 2761POPC   C3B33527  10.926   4.696   5.309 -0.0879  0.0477 -0.1862
 2761POPC   C4B33528  11.063   4.412   5.673 -0.1015  0.1107  0.1003
 2762POPC   NC333529  13.561   5.499   4.160 -0.2650 -0.1470  0.3687
 2762POPC   PO433530  13.747   5.232   4.023  0.0956  0.3581  0.0397
 2762POPC   GL133531  13.700   4.990   4.313 -0.2061 -0.1028  0.0058
 2762POPC   GL233532  13.601   5.103   4.531  0.0709  0.1768  0.0160
 2762POPC   C1A33533  13.891   4.737   4.660  0.1202  0.1125  0.0072
 2762POPC   D2A33534  14.247   4.460   4.709  0.0100  0.1355 -0.0950
 2762POPC   C3A33535  14.160   4.231   5.091  0.1760  0.1389  0.0429
 2762POPC   C4A33536  13.920   4.087   5.495  0.0654  0.4393 -0.1572
 2762POPC   C1B33537  13.622   4.988   5.006 -0.4891  0.0138  0.2675
 2762POPC   C2B33538  13.565   4.910   5.473 -0.3516  0.1549 -0.3192
 2762POPC   C3B33539  13.701   4.647   5.887  0.1152  0.0646 -0.0263
 2762POPC   C4B33540  13.859   4.589   6.302  0.0184  0.0901  0.0691
 2763POPC   NC333541   0.336  28.191   3.550 -0.0597  0.0652  0.3119
 2763POPC   PO433542   0.533  27.884   3.659 -0.1621 -0.1583 -0.1295
 2763POPC   GL133543   0.541  28.072   4.038 -0.1280  0.0919  0.2287
 2763POPC   GL233544   0.277  28.279   4.018  0.2953 -0.2214  0.1987
 2763POPC   C1A33545   0.486  27.901   4.421  0.0064  0.1042 -0.1610
 2763POPC   D2A33546   0.295  27.928   4.793  0.1413  0.0002  0.0539
 2763POPC   C3A33547  -0.066  28.032   5.043 -0.0746  0.1440  0.0328
 2763POPC   C4A33548  -0.463  28.220   5.108  0.0695  0.0724  0.0870
 2763POPC   C1B33549   0.256  28.358   4.438  0.0812 -0.0608  0.0252
 2763POPC   C2B33550   0.155  28.494   4.841 -0.1591 -0.1291 -0.1401
 2763POPC   C3B33551   0.010  28.570   5.277 -0.4278 -0.0945  0.2749
 2763POPC   C4B33552  -0.208  28.404   5.717  0.2509  0.0020 -0.1052
 2764POPC   NC333553  10.243   1.063   3.640  0.0004  0.1646 -0.0008
 2764POPC   PO433554  10.372   0.823   3.923 -0.0762 -0.3196 -0.1112
 2764POPC   GL133555  10.074   0.800   4.112 -0.1719  0.4293 -0.6822
 2764POPC   GL233556  10.205   1.027   4.328  0.2125  0.1038  0.1364
 2764POPC   C1A33557   9.947   0.567   4.464  0.2305  0.1202 -0.0191
 2764POPC   D2A33558   9.906   0.562   4.941  0.0064  0.3184 -0.0710
 2764POPC   C3A33559   9.577   0.385   5.245  0.4482  0.0495  0.0310
 2764POPC   C4A33560   9.129   0.529   5.388  0.0701 -0.0917  0.2511
 2764POPC   C1B33561  10.162   0.924   4.728  0.2075 -0.0021  0.0122
 2764POPC   C2B33562  10.032   0.993   5.083 -0.3425 -0.4010 -0.1817
 2764POPC   C3B33563   9.852   1.133   5.508 -0.1879 -0.0222  0.0429
 2764POPC   C4B33564   9.926   1.216   5.926  0.1229  0.0332 -0.0511
 2765POPC   NC333565   4.345  25.218   3.771  0.1575  0.1112 -0.1322
 2765POPC   PO433566   4.639  24.919   3.685 -0.1268 -0.0277 -0.0688
 2765POPC   GL133567   4.638  24.830   4.115 -0.2740 -0.0820  0.0129
 2765POPC   GL233568   4.548  24.484   4.087  0.1642 -0.0551 -0.0838
 2765POPC   C1A33569   4.691  24.803   4.587  0.2198 -0.0815  0.1815
 2765POPC   D2A33570   4.799  24.699   5.035  0.0387  0.2231  0.2423
 2765POPC   C3A33571   4.748  25.107   5.284 -0.1275  0.2353 -0.2279
 2765POPC   C4A33572   4.667  25.407   5.627 -0.0681  0.0353  0.2297
 2765POPC   C1B33573   4.332  24.421   4.466  0.0394  0.0067  0.0612
 2765POPC   C2B33574   4.246  24.652   4.908 -0.0969 -0.0673 -0.1873
 2765POPC   C3B33575   4.312  24.777   5.326 -0.0337  0.1545  0.0262
 2765POPC   C4B33576   4.380  24.987   5.710  0.1576  0.2253 -0.0435
 2766POPC   NC333577   6.463   2.811   3.571 -0.2015 -0.1807  0.0098
 2766POPC   PO433578   6.741   2.854   3.827 -0.0052 -0.3589 -0.0087
 2766POPC   GL133579   6.892   2.947   4.229 -0.4067 -0.0037  0.2195
 2766POPC   GL233580   7.041   2.667   4.308  0.1154  0.0438 -0.1469
 2766POPC   C1A33581   6.721   2.794   4.631 -0.0974  0.0332  0.0886
 2766POPC   D2A33582   6.946   2.494   4.933 -0.2993  0.0574  0.0894
 2766POPC   C3A33583   6.916   2.355   5.311  0.0137  0.1242  0.1565
 2766POPC   C4A33584   7.002   1.893   5.383  0.1003  0.0530 -0.0614
 2766POPC   C1B33585   7.009   2.249   4.537  0.2351  0.2564  0.1223
 2766POPC   C2B33586   7.188   2.039   4.903 -0.0519  0.0793  0.1478
 2766POPC   C3B33587   7.413   2.171   5.293 -0.1962 -0.1460  0.1741
 2766POPC   C4B33588   7.685   2.551   5.467  0.2669  0.0512  0.2518
 2767POPC   NC333589   6.785  21.748   3.935 -0.1422  0.0621 -0.1439
 2767POPC   PO433590   6.541  21.398   3.814 -0.0429 -0.1757  0.1623
 2767POPC   GL133591   6.570  21.414   4.139  0.2038 -0.0821 -0.1378
 2767POPC   GL233592   6.607  21.130   4.253  0.2416  0.0093 -0.3855
 2767POPC   C1A33593   6.908  21.558   4.406  0.4181  0.0244  0.1189
 2767POPC   D2A33594   7.398  21.516   4.411 -0.0977  0.2386 -0.1721
 2767POPC   C3A33595   7.608  21.609   4.835 -0.0166 -0.2105  0.0412
 2767POPC   C4A33596   7.515  21.572   5.285  0.1053 -0.0589  0.0879
 2767POPC   C1B33597   6.426  21.301   4.641  0.1617 -0.3331 -0.1279
 2767POPC   C2B33598   6.512  21.448   5.089  0.1499  0.0982  0.1531
 2767POPC   C3B33599   6.523  21.403   5.582  0.1336 -0.1293  0.1452
 2767POPC   C4B33600   6.926  21.531   5.854  0.0197  0.2479 -0.1282
 2768POPC   NC333601  11.585  25.684   3.564 -0.1735 -0.0488 -0.1591
 2768POPC   PO433602  11.416  25.401   3.747  0.2016 -0.0231  0.0287
 2768POPC   GL133603  11.639  25.332   4.085  0.0791 -0.0213  0.0162
 2768POPC   GL233604  11.853  25.540   4.039  0.2309  0.1397  0.0012
 2768POPC   C1A33605  11.595  25.439   4.557  0.0728  0.1556  0.0285
 2768POPC   D2A33606  11.851  25.416   4.917 -0.1288  0.0241  0.0103
 2768POPC   C3A33607  12.252  25.199   5.007 -0.0217  0.0975  0.0129
 2768POPC   C4A33608  12.429  24.858   5.345 -0.0740  0.1958 -0.2415
 2768POPC   C1B33609  12.099  25.277   4.416  0.1231 -0.3959  0.0764
 2768POPC   C2B33610  12.479  25.062   4.562  0.2085  0.2367  0.1089
 2768POPC   C3B33611  12.553  24.743   4.889  0.1880  0.0381 -0.1197
 2768POPC   C4B33612  12.729  24.429   5.175  0.0578  0.4999  0.1624
 2769POPC   NC333613   1.763  29.527   3.927  0.0408 -0.2735  0.0051
 2769POPC   PO433614   1.792  29.212   3.704  0.0815  0.1146 -0.1109
 2769POPC   GL133615   2.054  29.178   4.017 -0.4750 -0.0690 -0.2362
 2769POPC   GL233616   2.068  29.346   4.221  0.1821 -0.1036 -0.2646
 2769POPC   C1A33617   2.137  28.842   4.375 -0.1162 -0.1496 -0.1857
 2769POPC   D2A33618   2.323  28.773   4.753 -0.1573  0.0120  0.1033
 2769POPC   C3A33619   2.196  29.038   5.093  0.3650 -0.2008 -0.1043
 2769POPC   C4A33620   2.282  29.296   5.463  0.1433 -0.3069 -0.1424
 2769POPC   C1B33621   1.951  29.217   4.673  0.0326  0.2214  0.3452
 2769POPC   C2B33622   1.664  29.045   5.042 -0.0076 -0.1645  0.3255
 2769POPC   C3B33623   1.738  29.338   5.385 -0.0651  0.0893 -0.0574
 2769POPC   C4B33624   1.832  29.318   5.839 -0.1021  0.0637  0.2272
 2770POPC   NC333625   6.496  29.457   3.247 -0.1007 -0.0775  0.1102
 2770POPC   PO433626   6.465  29.471   3.639  0.3799  0.1018  0.1693
 2770POPC   GL133627   6.689  29.376   3.876  0.0232  0.0878 -0.1663
 2770POPC   GL233628   6.887  29.203   3.661 -0.0788 -0.4017  0.2482
 2770POPC   C1A33629   6.713  29.632   4.267  0.1272 -0.2384  0.2283
 2770POPC   D2A33630   6.961  29.956   4.521  0.0339  0.0844 -0.2291
 2770POPC   C3A33631   7.141  30.236   4.829  0.1604  0.1225  0.0904
 2770POPC   C4A33632   7.093  30.487   5.263  0.0213  0.0879  0.0971
 2770POPC   C1B33633   6.974  29.209   4.173 -0.0442 -0.2877 -0.0565
 2770POPC   C2B33634   7.036  29.412   4.595 -0.1331  0.0120 -0.2148
 2770POPC   C3B33635   6.828  29.651   4.924  0.1725 -0.2678 -0.0023
 2770POPC   C4B33636   6.744  29.589   5.383  0.0632 -0.0043  0.3692
 2771POPC   NC333637   6.959  17.120   3.453  0.2850 -0.0283  0.0507
 2771POPC   PO433638   7.129  17.358   3.719 -0.1172 -0.1247  0.0346
 2771POPC   GL133639   7.199  17.475   4.034 -0.0709  0.3973  0.0940
 2771POPC   GL233640   6.917  17.555   4.190 -0.0715 -0.5799  0.1682
 2771POPC   C1A33641   7.578  17.631   4.280  0.2493 -0.0005  0.0476
 2771POPC   D2A33642   7.684  17.906   4.638 -0.1741 -0.0098  0.1201
 2771POPC   C3A33643   7.886  17.987   5.060 -0.1700  0.1874 -0.1261
 2771POPC   C4A33644   8.014  18.201   5.430 -0.1105  0.0923 -0.0615
 2771POPC   C1B33645   7.164  17.567   4.574  0.2487 -0.1964  0.1743
 2771POPC   C2B33646   7.385  17.635   4.976 -0.2706 -0.1737  0.2277
 2771POPC   C3B33647   7.462  17.726   5.365 -0.2298 -0.0212  0.1900
 2771POPC   C4B33648   7.547  17.577   5.778  0.1785  0.0826  0.2766
 2772POPC   NC333649   7.306  11.870   3.266  0.0032  0.3943 -0.1608
 2772POPC   PO433650   7.351  11.822   3.627  0.1485  0.2210 -0.2048
 2772POPC   GL133651   7.435  11.724   3.851 -0.0563 -0.3574  0.0493
 2772POPC   GL233652   7.641  11.504   3.873 -0.2655  0.0490 -0.1552
 2772POPC   C1A33653   7.334  11.753   4.305 -0.0465 -0.1469  0.2017
 2772POPC   D2A33654   7.045  11.464   4.527  0.0567  0.0438  0.0885
 2772POPC   C3A33655   6.982  11.359   4.953  0.2132  0.0165 -0.0904
 2772POPC   C4A33656   7.109  11.229   5.340 -0.0679 -0.0155  0.0909
 2772POPC   C1B33657   7.855  11.375   4.282  0.2364  0.1071 -0.0760
 2772POPC   C2B33658   7.961  11.075   4.607  0.1738 -0.0898  0.1160
 2772POPC   C3B33659   8.090  10.930   4.995 -0.0467  0.1421  0.1207
 2772POPC   C4B33660   8.377  10.696   5.322 -0.0536 -0.0462 -0.0910
 2773POPC   NC333661   2.333  26.545   3.441 -0.1756  0.0294 -0.1966
 2773POPC   PO433662   2.515  26.886   3.365  0.2632 -0.2957  0.2853
 2773POPC   GL133663   2.653  26.893   3.726  0.1100  0.4140  0.0499
 2773POPC   GL233664   2.828  27.151   3.773  0.0454 -0.2650  0.3167
 2773POPC   C1A33665   3.012  26.732   3.993 -0.0259 -0.1591  0.0722
 2773POPC   D2A33666   3.333  26.789   4.310 -0.1296 -0.1762  0.1027
 2773POPC   C3A33667   3.337  26.583   4.712 -0.0605  0.3303 -0.1378
 2773POPC   C4A33668   3.023  26.740   4.993 -0.2678 -0.0054 -0.0480
 2773POPC   C1B33669   2.452  27.213   4.096 -0.4139 -0.0568 -0.3731
 2773POPC   C2B33670   2.345  27.191   4.507  0.0920  0.0859 -0.0288
 2773POPC   C3B33671   2.211  27.141   4.917 -0.2442  0.1928  0.0895
 2773POPC   C4B33672   1.870  27.019   5.290 -0.2267  0.2841 -0.0368
 2774POPC   NC333673  14.703  16.508   3.885 -0.2442  0.1019  0.3613
 2774POPC   PO433674  14.846  16.881   3.736  0.0755  0.1302 -0.1352
 2774POPC   GL133675  14.848  16.863   4.132 -0.2355 -0.1598 -0.0937
 2774POPC   GL233676  15.110  16.917   4.244 -0.2258  0.0645 -0.2392
 2774POPC   C1A33677  14.771  17.142   4.471  0.0222 -0.1473  0.0544
 2774POPC   D2A33678  14.968  17.221   4.899  0.0374  0.0661  0.2295
 2774POPC   C3A33679  15.232  16.882   5.051 -0.2634 -0.2321 -0.0443
 2774POPC   C4A33680  15.271  16.684   5.472  0.0319 -0.1337 -0.1982
 2774POPC   C1B33681  15.450  16.786   4.573 -0.0468 -0.2330 -0.0330
 2774POPC   C2B33682  15.575  16.539   4.912  0.0219 -0.1059  0.1681
 2774POPC   C3B33683  15.552  16.105   5.028 -0.2214 -0.1841 -0.3642
 2774POPC   C4B33684  15.461  15.767   5.388 -0.1825 -0.0060 -0.1235
 2775POPC   NC333685  12.341   8.854   3.701  0.2459 -0.0195  0.0778
 2775POPC   PO433686  12.366   9.228   3.602  0.0767  0.1380  0.4045
 2775POPC   GL133687  12.225   9.146   4.058 -0.2307  0.1951  0.2457
 2775POPC   GL233688  12.313   9.444   4.071  0.2875  0.2933  0.5746
 2775POPC   C1A33689  12.012   9.313   4.451 -0.0048 -0.2022 -0.3340
 2775POPC   D2A33690  11.684   9.262   4.747 -0.1492  0.4117 -0.0287
 2775POPC   C3A33691  11.783   8.949   5.092  0.3173 -0.0225 -0.0525
 2775POPC   C4A33692  11.770   8.634   5.435 -0.1104 -0.1908  0.5075
 2775POPC   C1B33693  12.261   9.740   4.443 -0.0684 -0.1876  0.1318
 2775POPC   C2B33694  12.165   9.602   4.826 -0.1570  0.1269 -0.0071
 2775POPC   C3B33695  12.216   9.159   5.017 -0.2296 -0.0846  0.0220
 2775POPC   C4B33696  12.197   8.863   5.385 -0.0096  0.1940 -0.1072
 2776POPC   NC333697  12.579  25.460   3.056  0.1257 -0.1303  0.2170
 2776POPC   PO433698  12.613  25.673   3.353 -0.3561 -0.2139  0.1790
 2776POPC   GL133699  12.510  25.980   3.646 -0.0526 -0.5706 -0.0050
 2776POPC   GL233700  12.657  25.885   3.903 -0.1373  0.2188 -0.0430
 2776POPC   C1A33701  12.437  26.315   3.985 -0.2403  0.1288 -0.1438
 2776POPC   D2A33702  12.418  26.804   3.940  0.4939  0.1502 -0.0271
 2776POPC   C3A33703  12.343  26.914   4.438 -0.2056 -0.1357  0.0562
 2776POPC   C4A33704  12.621  26.974   4.847  0.0440  0.0011 -0.1305
 2776POPC   C1B33705  12.357  25.681   4.213  0.1710 -0.1256 -0.0945
 2776POPC   C2B33706  12.369  25.604   4.710 -0.0655 -0.1264 -0.0536
 2776POPC   C3B33707  12.375  25.642   5.159  0.1231  0.0446 -0.2017
 2776POPC   C4B33708  12.374  25.719   5.596  0.1711  0.1006 -0.0556
 2777POPC   NC333709  13.481  11.577   3.790  0.2895  0.2762 -0.3343
 2777POPC   PO433710  13.310  11.384   4.091 -0.1322 -0.0972 -0.1593
 2777POPC   GL133711  13.634  11.325   4.392 -0.1556  0.3246  0.2205
 2777POPC   GL233712  13.715  11.550   4.555  0.0682  0.2574 -0.1852
 2777POPC   C1A33713  13.863  11.049   4.759  0.1622 -0.1099  0.4065
 2777POPC   D2A33714  13.971  11.112   5.188 -0.1611 -0.0847  0.0408
 2777POPC   C3A33715  13.799  11.350   5.536  0.0374  0.0329 -0.4181
 2777POPC   C4A33716  13.573  11.471   5.854  0.2449 -0.0163  0.0863
 2777POPC   C1B33717  13.598  11.384   4.985  0.1071  0.2067  0.3407
 2777POPC   C2B33718  13.337  11.283   5.357 -0.0135  0.0547  0.0301
 2777POPC   C3B33719  13.263  10.955   5.691 -0.2605  0.0479  0.2737
 2777POPC   C4B33720  13.082  10.704   6.054  0.2289 -0.2586 -0.0283
 2778POPC   NC333721   1.415  14.554   3.693  0.1079  0.2969 -0.1427
 2778POPC   PO433722   1.077  14.529   3.844 -0.0361  0.2139 -0.2450
 2778POPC   GL133723   0.980  14.334   4.227 -0.2265 -0.1527  0.0966
 2778POPC   GL233724   1.209  14.490   4.332  0.0783  0.0157 -0.2089
 2778POPC   C1A33725   0.554  14.272   4.391  0.1840 -0.1034  0.0514
 2778POPC   D2A33726   0.444  13.964   4.779  0.2552  0.0305  0.0876
 2778POPC   C3A33727   0.333  13.981   5.245  0.2592  0.1841 -0.2912
 2778POPC   C4A33728   0.106  14.147   5.646  0.1978  0.1193 -0.0100
 2778POPC   C1B33729   1.239  14.551   4.785 -0.0648  0.0471  0.4404
 2778POPC   C2B33730   1.028  14.750   5.151  0.2054  0.1607  0.1757
 2778POPC   C3B33731   0.813  14.604   5.537  0.1727  0.2638 -0.3487
 2778POPC   C4B33732   0.540  14.261   5.763  0.0776 -0.2033  0.3599
 2779POPC   NC333733   3.288  31.346   3.604 -0.1895 -0.1517 -0.0457
 2779POPC   PO433734   3.121  31.060   3.838 -0.0424 -0.3144 -0.0522
 2779POPC   GL133735   2.962  31.395   4.087 -0.4623  0.0661  0.1402
 2779POPC   GL233736   3.237  31.530   4.130  0.2660 -0.0270 -0.1685
 2779POPC   C1A33737   2.935  31.578   4.502 -0.1002  0.1346 -0.2736
 2779POPC   D2A33738   3.102  31.922   4.736  0.4146 -0.0949  0.1195
 2779POPC   C3A33739   3.203  31.947   5.225 -0.1075  0.2093 -0.0752
 2779POPC   C4A33740   3.402  31.909   5.644  0.0958  0.2190  0.0362
 2779POPC   C1B33741   3.424  31.597   4.592 -0.0881  0.2490 -0.0054
 2779POPC   C2B33742   3.172  31.385   4.915 -0.0312 -0.1882  0.0028
 2779POPC   C3B33743   2.942  31.038   4.997 -0.3367 -0.0515  0.0905
 2779POPC   C4B33744   2.763  30.865   5.390  0.2171 -0.1653  0.1384
 2780POPC   NC333745   7.146  13.991   3.906 -0.1248 -0.1077 -0.1656
 2780POPC   PO433746   7.045  14.344   3.721 -0.5772 -0.0703  0.0074
 2780POPC   GL133747   7.065  14.528   4.103 -0.0401  0.2027 -0.4578
 2780POPC   GL233748   7.242  14.336   4.188  0.2309  0.2778  0.0034
 2780POPC   C1A33749   6.652  14.667   4.271 -0.1890  0.1995  0.0976
 2780POPC   D2A33750   6.192  14.569   4.288  0.1363 -0.0136  0.1263
 2780POPC   C3A33751   5.948  14.317   4.607 -0.2305  0.0043  0.3638
 2780POPC   C4A33752   5.772  14.121   4.991 -0.1711 -0.1808  0.2253
 2780POPC   C1B33753   7.193  14.006   4.483 -0.0256 -0.2180  0.1269
 2780POPC   C2B33754   7.104  13.678   4.880  0.2129 -0.0468  0.3228
 2780POPC   C3B33755   7.065  13.538   5.370  0.2065  0.1927  0.0315
 2780POPC   C4B33756   7.260  13.520   5.745 -0.0685  0.1551  0.0870
 2781POPC   NC333757   8.254  21.671   2.953 -0.0095  0.4289 -0.1074
 2781POPC   PO433758   8.157  22.008   3.161 -0.0782  0.3953  0.0470
 2781POPC   GL133759   8.045  22.000   3.567  0.1414  0.5271 -0.1272
 2781POPC   GL233760   8.018  21.799   3.736 -0.0689  0.0507  0.1942
 2781POPC   C1A33761   8.035  22.289   3.942  0.0962  0.1499  0.2205
 2781POPC   D2A33762   7.976  22.379   4.393  0.0937 -0.0893  0.0849
 2781POPC   C3A33763   7.875  22.480   4.881  0.0261  0.3955 -0.1753
 2781POPC   C4A33764   7.831  22.473   5.285 -0.0304  0.1105  0.1204
 2781POPC   C1B33765   7.771  21.836   4.166  0.0398 -0.1013 -0.0063
 2781POPC   C2B33766   7.594  22.034   4.519  0.2718 -0.0549 -0.1449
 2781POPC   C3B33767   7.284  22.401   4.760 -0.1988 -0.0267 -0.0707
 2781POPC   C4B33768   7.075  22.303   5.101 -0.0434  0.1784 -0.1634
 2782POPC   NC333769  15.854  16.445   3.635 -0.4376  0.3948 -0.4631
 2782POPC   PO433770  16.114  16.328   3.885 -0.2580  0.2200 -0.0204
 2782POPC   GL133771  16.077  15.981   4.173 -0.3072  0.0345 -0.3400
 2782POPC   GL233772  15.848  15.888   4.123  0.1789 -0.1194 -0.2094
 2782POPC   C1A33773  16.361  15.793   4.485 -0.1023  0.0086 -0.2400
 2782POPC   D2A33774  16.595  15.593   4.840  0.2333  0.0066 -0.1457
 2782POPC   C3A33775  16.323  15.566   5.251  0.2456 -0.0151  0.1500
 2782POPC   C4A33776  16.111  15.442   5.621 -0.0872  0.0733 -0.0156
 2782POPC   C1B33777  15.825  15.911   4.592  0.0849 -0.1143  0.0367
 2782POPC   C2B33778  15.988  15.902   5.013  0.0649  0.1328  0.1667
 2782POPC   C3B33779  15.912  15.939   5.488 -0.2608  0.0636 -0.1167
 2782POPC   C4B33780  15.524  16.222   5.580 -0.0047  0.1346 -0.0254
 2783POPC   NC333781  15.264  28.535   2.996 -0.0722  0.0418  0.0028
 2783POPC   PO433782  15.276  28.962   2.957 -0.0336 -0.0141  0.2496
 2783POPC   GL133783  15.388  29.073   3.311 -0.0439  0.1252  0.1874
 2783POPC   GL233784  15.173  29.237   3.333 -0.0179 -0.2986  0.0232
 2783POPC   C1A33785  15.171  28.871   3.693  0.0763 -0.3895  0.0501
 2783POPC   D2A33786  14.948  28.617   4.018  0.0231  0.2051  0.1235
 2783POPC   C3A33787  14.706  28.704   4.378  0.3853 -0.2921 -0.1611
 2783POPC   C4A33788  14.663  28.657   4.854  0.0067 -0.0109  0.1193
 2783POPC   C1B33789  14.811  29.136   3.489 -0.3176  0.0931 -0.0160
 2783POPC   C2B33790  14.441  29.096   3.304 -0.1021  0.1075  0.2650
 2783POPC   C3B33791  14.033  29.096   3.157  0.2246 -0.0680  0.1387
 2783POPC   C4B33792  13.613  29.076   3.189  0.0177  0.1956 -0.0854
 2784POPC   NC333793   1.628  30.252   3.366  0.2148  0.1325 -0.0753
 2784POPC   PO433794   1.585  30.410   3.734  0.1681 -0.0249  0.1484
 2784POPC   GL133795   1.375  30.154   4.007 -0.2953 -0.2350  0.1343
 2784POPC   GL233796   1.591  29.991   4.081 -0.0808  0.1487 -0.0506
 2784POPC   C1A33797   0.966  30.207   4.217 -0.0900  0.1728 -0.0229
 2784POPC   D2A33798   0.647  30.013   4.536 -0.1575 -0.1412  0.0773
 2784POPC   C3A33799   0.466  29.802   4.902  0.1524 -0.1360  0.3283
 2784POPC   C4A33800   0.694  29.717   5.241  0.0482  0.1634  0.1769
 2784POPC   C1B33801   1.394  30.231   4.481 -0.0037 -0.1777 -0.0317
 2784POPC   C2B33802   1.527  30.172   4.949 -0.2466  0.0064  0.1937
 2784POPC   C3B33803   1.483  30.431   5.297  0.0867 -0.0139 -0.1021
 2784POPC   C4B33804   1.310  30.424   5.759  0.1467 -0.2074  0.2303
 2785POPC   NC333805  12.687  31.193   3.477  0.1057  0.2296  0.1062
 2785POPC   PO433806  12.670  31.002   3.849  0.0617 -0.1764 -0.0673
 2785POPC   GL133807  12.425  30.908   4.132  0.2350 -0.2214  0.2695
 2785POPC   GL233808  12.404  30.637   4.166 -0.2173  0.3466 -0.1168
 2785POPC   C1A33809  12.583  30.970   4.535 -0.0831 -0.2581  0.1661
 2785POPC   D2A33810  12.902  31.138   4.857  0.1328 -0.1901  0.0780
 2785POPC   C3A33811  12.745  31.000   5.294  0.0393  0.1192  0.0650
 2785POPC   C4A33812  12.788  30.923   5.739 -0.0783 -0.0870  0.0649
 2785POPC   C1B33813  12.457  30.500   4.668 -0.0167  0.0355 -0.0115
 2785POPC   C2B33814  12.743  30.514   5.111 -0.0737  0.1763 -0.1225
 2785POPC   C3B33815  12.701  30.443   5.597 -0.0537 -0.2382  0.0041
 2785POPC   C4B33816  12.828  30.237   5.976  0.0245 -0.1448  0.0835
 2786POPC   NC333817  12.823  24.459   3.654  0.0305 -0.0252 -0.0389
 2786POPC   PO433818  12.986  24.103   3.583  0.0933  0.2189  0.1858
 2786POPC   GL133819  13.143  24.115   3.922 -0.4610 -0.0358 -0.2524
 2786POPC   GL233820  13.115  24.345   4.068 -0.2012 -0.0803  0.1388
 2786POPC   C1A33821  12.997  23.815   4.265 -0.2345  0.1208  0.2194
 2786POPC   D2A33822  13.181  23.670   4.667 -0.3030  0.4337  0.1588
 2786POPC   C3A33823  12.982  23.476   5.122  0.1590 -0.1792  0.1120
 2786POPC   C4A33824  12.604  23.475   5.457  0.2274 -0.2432 -0.2041
 2786POPC   C1B33825  13.146  24.735   4.306 -0.1728 -0.0899  0.0958
 2786POPC   C2B33826  12.950  24.888   4.704 -0.1274 -0.1364 -0.0634
 2786POPC   C3B33827  12.775  25.162   5.016  0.2163  0.3386  0.1175
 2786POPC   C4B33828  12.633  25.356   5.414 -0.1356  0.1297 -0.1114
 2787POPC   NC333829   4.956   4.688   3.905 -0.0628  0.1918 -0.1039
 2787POPC   PO433830   4.591   4.706   3.760 -0.1244  0.0004 -0.0552
 2787POPC   GL133831   4.487   4.754   4.102 -0.0393 -0.0512  0.0411
 2787POPC   GL233832   4.269   4.631   4.138  0.2559 -0.0287  0.5235
 2787POPC   C1A33833   4.612   4.839   4.576  0.0851 -0.0377 -0.2394
 2787POPC   D2A33834   4.607   4.963   5.034  0.0630 -0.1932  0.0187
 2787POPC   C3A33835   4.824   4.798   5.439 -0.2219 -0.0894  0.0385
 2787POPC   C4A33836   4.730   4.477   5.740 -0.0391 -0.1338  0.2586
 2787POPC   C1B33837   4.123   4.889   4.481  0.1113 -0.2442  0.1157
 2787POPC   C2B33838   4.230   5.148   4.781  0.1760 -0.1957 -0.2169
 2787POPC   C3B33839   4.224   5.311   5.216 -0.0911 -0.0977  0.2725
 2787POPC   C4B33840   4.379   5.621   5.549 -0.4322 -0.1390 -0.1013
 2788POPC   NC333841   0.439  19.073   3.990  0.2037 -0.1548 -0.0197
 2788POPC   PO433842   0.314  18.730   4.174  0.1112  0.0482 -0.1420
 2788POPC   GL133843   0.146  18.781   4.572 -0.0775 -0.4511  0.1551
 2788POPC   GL233844   0.380  18.746   4.739 -0.1288  0.2381 -0.0269
 2788POPC   C1A33845  -0.224  19.022   4.723  0.1262  0.0967  0.1731
 2788POPC   D2A33846  -0.456  19.185   5.092 -0.0299 -0.0847 -0.3009
 2788POPC   C3A33847  -0.859  19.349   5.245 -0.1938  0.1236 -0.0714
 2788POPC   C4A33848  -1.249  19.262   5.158  0.2015  0.2382  0.3189
 2788POPC   C1B33849   0.484  18.587   5.102  0.2500 -0.1334 -0.1576
 2788POPC   C2B33850   0.464  18.488   5.538 -0.0006  0.0969 -0.0212
 2788POPC   C3B33851   0.510  18.271   5.926 -0.4860 -0.1664  0.0378
 2788POPC   C4B33852   0.382  18.068   6.321 -0.4591  0.1515 -0.0532
 2789POPC   NC333853   0.868  11.465   3.571 -0.1921  0.0132  0.2245
 2789POPC   PO433854   1.234  11.296   3.688  0.1531  0.0585  0.0405
 2789POPC   GL133855   1.119  11.209   4.027  0.0111 -0.0205  0.1216
 2789POPC   GL233856   0.796  11.227   4.110 -0.1778 -0.2316 -0.1784
 2789POPC   C1A33857   1.121  11.230   4.483  0.0827 -0.1602 -0.3564
 2789POPC   D2A33858   0.901  11.091   4.813  0.0563 -0.2151  0.0230
 2789POPC   C3A33859   1.263  11.033   5.044  0.0244  0.0011 -0.1525
 2789POPC   C4A33860   1.352  10.820   5.451 -0.1454 -0.0279 -0.1321
 2789POPC   C1B33861   0.601  11.319   4.511 -0.1733 -0.0195  0.1429
 2789POPC   C2B33862   0.645  11.677   4.796  0.2453  0.0821  0.3374
 2789POPC   C3B33863   0.939  11.935   5.113 -0.1083  0.1252  0.0724
 2789POPC   C4B33864   1.228  12.126   5.426 -0.0631  0.1077 -0.1182
 2790POPC   NC333865   4.179  16.837   3.481 -0.2299 -0.3941 -0.0556
 2790POPC   PO433866   3.797  16.756   3.538  0.1905  0.0917 -0.1769
 2790POPC   GL133867   3.936  16.484   3.808  0.1061  0.0581  0.0048
 2790POPC   GL233868   4.055  16.662   3.940  0.1265 -0.1662  0.0498
 2790POPC   C1A33869   3.602  16.347   4.149 -0.1144 -0.0072 -0.1790
 2790POPC   D2A33870   3.531  16.430   4.591  0.3347  0.2662 -0.0149
 2790POPC   C3A33871   3.115  16.570   4.820  0.0612 -0.0594  0.0049
 2790POPC   C4A33872   2.687  16.467   4.697  0.1310  0.3098  0.1184
 2790POPC   C1B33873   3.970  16.626   4.430  0.0011  0.2699  0.1774
 2790POPC   C2B33874   3.880  16.528   4.872 -0.2293 -0.2107 -0.4250
 2790POPC   C3B33875   3.990  16.366   5.270  0.0469 -0.0400  0.0909
 2790POPC   C4B33876   4.192  16.472   5.655 -0.2304  0.1104  0.0560
 2791POPC   NC333877   1.261   4.181   3.755 -0.0077 -0.0677 -0.1612
 2791POPC   PO433878   1.486   4.473   3.567 -0.0155 -0.1051 -0.1714
 2791POPC   GL133879   1.587   4.705   3.769  0.5980 -0.0887 -0.2351
 2791POPC   GL233880   1.612   5.004   3.632 -0.3285  0.0893 -0.0981
 2791POPC   C1A33881   1.880   4.573   4.060  0.1586  0.5273 -0.2509
 2791POPC   D2A33882   1.820   4.439   4.516  0.0729 -0.2076  0.0644
 2791POPC   C3A33883   1.819   4.419   5.016  0.0618 -0.3400 -0.1010
 2791POPC   C4A33884   1.695   4.691   5.366 -0.3061  0.0169 -0.1173
 2791POPC   C1B33885   1.557   5.116   4.108  0.1994  0.0912 -0.0645
 2791POPC   C2B33886   1.513   5.083   4.519 -0.1694  0.0694 -0.1787
 2791POPC   C3B33887   1.589   5.356   4.884  0.0610  0.0758  0.0695
 2791POPC   C4B33888   1.619   5.758   5.018 -0.1305  0.1530 -0.2755
 2792POPC   NC333889  14.360  13.894   3.264  0.0496 -0.0118  0.0426
 2792POPC   PO433890  14.081  13.807   3.509 -0.3794 -0.1968 -0.0839
 2792POPC   GL133891  14.310  14.074   3.697 -0.0945  0.1005 -0.1356
 2792POPC   GL233892  14.462  14.010   3.960  0.1772  0.0883 -0.1553
 2792POPC   C1A33893  14.195  14.470   3.923  0.0682 -0.0970 -0.0535
 2792POPC   D2A33894  14.192  14.918   4.056 -0.0854  0.0390  0.0584
 2792POPC   C3A33895  14.145  15.277   4.290  0.1319  0.1629 -0.1758
 2792POPC   C4A33896  13.847  15.529   4.618 -0.0679 -0.0373 -0.3480
 2792POPC   C1B33897  14.353  14.000   4.401 -0.0393 -0.1608 -0.0332
 2792POPC   C2B33898  14.375  13.834   4.859 -0.0584  0.1258 -0.0996
 2792POPC   C3B33899  14.290  13.825   5.382 -0.0358 -0.0523 -0.0824
 2792POPC   C4B33900  13.873  13.681   5.518  0.1925  0.0006 -0.1241
 2793POPC   NC333901   5.021   3.998   3.388 -0.3403 -0.0021 -0.0493
 2793POPC   PO433902   5.153   3.923   3.752  0.1323  0.1141  0.0019
 2793POPC   GL133903   5.002   4.152   4.087 -0.2594 -0.0941  0.1415
 2793POPC   GL233904   5.065   3.879   4.257 -0.2354 -0.1554 -0.0576
 2793POPC   C1A33905   4.925   4.482   4.396 -0.1694 -0.2711 -0.1960
 2793POPC   D2A33906   5.002   4.625   4.796  0.0133 -0.2573  0.0915
 2793POPC   C3A33907   4.710   4.444   5.106 -0.0571  0.1880  0.0981
 2793POPC   C4A33908   4.406   4.351   5.440  0.0525 -0.1625  0.1254
 2793POPC   C1B33909   5.257   4.178   4.565  0.0390  0.1959  0.2832
 2793POPC   C2B33910   5.427   4.377   4.942 -0.0741 -0.1604  0.3986
 2793POPC   C3B33911   5.597   4.291   5.319  0.2327  0.1460 -0.1673
 2793POPC   C4B33912   5.744   4.381   5.744  0.0499 -0.1054  0.1504
 2794POPC   NC333913   5.521   3.940   4.025 -0.2826  0.1587  0.2213
 2794POPC   PO433914   5.944   3.953   4.083  0.1615  0.1765 -0.1881
 2794POPC   GL133915   5.985   3.900   4.462 -0.1048 -0.0186 -0.0254
 2794POPC   GL233916   5.724   3.863   4.563 -0.1436  0.0459 -0.0030
 2794POPC   C1A33917   6.144   3.634   4.825  0.1168  0.1419 -0.0300
 2794POPC   D2A33918   6.312   3.575   5.230 -0.1863 -0.0592  0.0804
 2794POPC   C3A33919   6.317   3.869   5.608  0.3825  0.0294 -0.2843
 2794POPC   C4A33920   6.313   4.074   6.027 -0.1333 -0.0209 -0.0245
 2794POPC   C1B33921   5.726   3.876   4.937  0.0219  0.1829 -0.0010
 2794POPC   C2B33922   5.377   3.720   5.183  0.0268  0.2811 -0.0686
 2794POPC   C3B33923   5.048   3.661   5.546 -0.1329  0.1177  0.3389
 2794POPC   C4B33924   4.658   3.433   5.609  0.1703 -0.2876 -0.2219
 2795POPC   NC333925   8.458   4.962   3.918 -0.1493 -0.1394  0.0593
 2795POPC   PO433926   8.675   4.780   3.620  0.0756 -0.2856  0.0617
 2795POPC   GL133927   8.663   4.521   3.871 -0.2121 -0.1600 -0.1262
 2795POPC   GL233928   8.904   4.354   3.779 -0.0055 -0.2362 -0.1804
 2795POPC   C1A33929   8.634   4.495   4.361  0.1038  0.3339  0.0050
 2795POPC   D2A33930   8.379   4.275   4.684 -0.0503 -0.0060  0.0992
 2795POPC   C3A33931   8.741   4.012   4.775 -0.0038 -0.0551 -0.2855
 2795POPC   C4A33932   9.041   3.703   4.988  0.0883  0.2472  0.0998
 2795POPC   C1B33933   9.257   4.476   4.122 -0.1618 -0.2689  0.2183
 2795POPC   C2B33934   9.252   4.600   4.551 -0.3768  0.3388 -0.1089
 2795POPC   C3B33935   9.593   4.812   4.763 -0.1455  0.1299 -0.1675
 2795POPC   C4B33936   9.848   4.853   5.129 -0.3162 -0.1066 -0.3021
 2796POPC   NC333937   2.548   9.849   3.912 -0.0066  0.1025 -0.0372
 2796POPC   PO433938   2.500  10.103   3.646 -0.2201 -0.0185  0.2180
 2796POPC   GL133939   2.446  10.267   3.977 -0.1324  0.3197  0.1133
 2796POPC   GL233940   2.174  10.201   4.027  0.1639 -0.3206  0.1216
 2796POPC   C1A33941   2.423  10.628   4.263  0.1078  0.2439  0.0500
 2796POPC   D2A33942   2.750  11.009   4.323 -0.2391 -0.0441 -0.1923
 2796POPC   C3A33943   2.892  11.255   4.719 -0.0653 -0.0659  0.1372
 2796POPC   C4A33944   2.985  11.580   5.035  0.3688  0.0693  0.3736
 2796POPC   C1B33945   2.226  10.050   4.480  0.1706 -0.3637  0.0422
 2796POPC   C2B33946   2.358   9.859   4.871 -0.0353  0.3050 -0.1470
 2796POPC   C3B33947   2.323   9.691   5.294  0.0883  0.0520 -0.1575
 2796POPC   C4B33948   2.577   9.508   5.644  0.3988 -0.2298  0.1158
 2797POPC   NC333949  11.324  25.087   3.398  0.3325 -0.0823  0.1230
 2797POPC   PO433950  11.362  24.753   3.575 -0.0898 -0.0618 -0.3284
 2797POPC   GL133951  11.464  24.691   3.999  0.2113 -0.5038 -0.3075
 2797POPC   GL233952  11.720  24.520   3.972  0.3209  0.3053  0.1068
 2797POPC   C1A33953  11.537  24.989   4.360 -0.1357 -0.4306 -0.0011
 2797POPC   D2A33954  11.766  24.946   4.762 -0.0975  0.1005  0.1037
 2797POPC   C3A33955  11.677  25.062   5.185 -0.1165  0.1361 -0.0392
 2797POPC   C4A33956  11.929  24.956   5.551  0.1453 -0.0440  0.1048
 2797POPC   C1B33957  11.568  24.486   4.417 -0.1611  0.1053 -0.3276
 2797POPC   C2B33958  11.248  24.260   4.685 -0.0225 -0.2214  0.0230
 2797POPC   C3B33959  11.063  23.885   4.964 -0.0192  0.2403  0.3010
 2797POPC   C4B33960  10.647  24.065   5.098 -0.1326  0.2855  0.0620
 2798POPC   NC333961   0.762   3.547   3.921  0.3480 -0.1450  0.1533
 2798POPC   PO433962   0.756   3.155   3.799  0.1731 -0.3531  0.0913
 2798POPC   GL133963   0.759   2.766   3.925 -0.2932  0.5047 -0.0481
 2798POPC   GL233964   0.943   2.854   4.219  0.0913  0.1600 -0.2389
 2798POPC   C1A33965   0.783   2.313   4.084 -0.1034  0.0712  0.1873
 2798POPC   D2A33966   0.914   2.111   4.437  0.2990 -0.1306  0.0154
 2798POPC   C3A33967   1.252   1.867   4.655  0.1265  0.0127  0.1888
 2798POPC   C4A33968   1.647   1.948   4.516  0.2210  0.0244  0.0098
 2798POPC   C1B33969   0.924   2.612   4.599  0.1945  0.0120  0.2068
 2798POPC   C2B33970   1.010   2.775   5.010 -0.1181  0.2722 -0.2295
 2798POPC   C3B33971   1.093   2.793   5.462  0.1184 -0.0269 -0.1335
 2798POPC   C4B33972   0.940   2.718   5.883 -0.2113 -0.0075 -0.1843
 2799POPC   NC333973  14.210  10.166   3.972  0.1492  0.1592 -0.1265
 2799POPC   PO433974  14.066   9.852   4.150 -0.3015  0.4340 -0.1619
 2799POPC   GL133975  13.965  10.098   4.442  0.1596 -0.1689 -0.1668
 2799POPC   GL233976  13.760  10.229   4.389  0.1587 -0.1044  0.4412
 2799POPC   C1A33977  13.874  10.032   4.894 -0.1212  0.1144  0.0713
 2799POPC   D2A33978  13.666   9.910   5.237 -0.0336  0.1263  0.2620
 2799POPC   C3A33979  13.849   9.760   5.658  0.1467 -0.0021 -0.0075
 2799POPC   C4A33980  14.149   9.473   5.681 -0.0990  0.0972  0.0026
 2799POPC   C1B33981  13.750  10.516   4.749  0.3526  0.0406  0.1327
 2799POPC   C2B33982  13.896  10.505   5.125 -0.2512  0.0429 -0.0757
 2799POPC   C3B33983  13.867  10.353   5.587 -0.1425 -0.0723 -0.1744
 2799POPC   C4B33984  14.226  10.571   5.904 -0.1764 -0.0259 -0.2404
 2800POPC   NC333985   2.060  17.262   3.744  0.0908 -0.0531  0.0248
 2800POPC   PO433986   2.462  17.176   3.602  0.1180 -0.0897  0.0738
 2800POPC   GL133987   2.561  17.174   4.026  0.2965  0.1358  0.1971
 2800POPC   GL233988   2.284  17.060   4.124 -0.1676 -0.2850 -0.0878
 2800POPC   C1A33989   2.664  16.972   4.445 -0.0185  0.3824 -0.1176
 2800POPC   D2A33990   2.930  17.198   4.751 -0.3778 -0.3831  0.1367
 2800POPC   C3A33991   3.209  17.286   5.092 -0.1074  0.2478  0.0353
 2800POPC   C4A33992   3.514  17.233   5.417 -0.1338 -0.2876  0.1642
 2800POPC   C1B33993   2.181  17.199   4.554  0.1749 -0.0603 -0.0482
 2800POPC   C2B33994   2.432  17.133   4.881 -0.2507 -0.0590  0.1468
 2800POPC   C3B33995   2.808  16.906   5.126  0.1169 -0.2200  0.0313
 2800POPC   C4B33996   2.823  16.486   5.223  0.5985 -0.0415 -0.0970
 2801POPC   NC333997   8.077  14.854   3.737  0.1867  0.0089 -0.0747
 2801POPC   PO433998   8.438  14.720   3.672  0.1035 -0.0275  0.1707
 2801POPC   GL133999   8.378  14.603   4.128 -0.3845 -0.1333 -0.0279
 2801POPC   GL234000   8.238  14.827   4.214 -0.4188  0.1644  0.5500
 2801POPC   C1A34001   8.631  14.497   4.481 -0.0805 -0.3192  0.0431
 2801POPC   D2A34002   8.705  14.552   4.922 -0.0459  0.1507  0.0061
 2801POPC   C3A34003   8.301  14.342   4.977  0.1248 -0.0960 -0.1972
 2801POPC   C4A34004   8.025  13.957   5.083  0.4205 -0.1361 -0.0831
 2801POPC   C1B34005   8.445  14.937   4.634  0.3473 -0.0275 -0.5275
 2801POPC   C2B34006   8.434  15.026   5.081  0.3784 -0.0401 -0.0316
 2801POPC   C3B34007   8.328  14.891   5.499 -0.2039  0.1801 -0.0874
 2801POPC   C4B34008   8.003  14.764   5.770  0.1584  0.0360 -0.0564
 2802POPC   NC334009   5.782  28.667   3.868 -0.1634  0.2674 -0.0137
 2802POPC   PO434010   6.092  28.869   3.924  0.0719  0.1801 -0.0241
 2802POPC   GL134011   6.143  29.205   3.956 -0.2060  0.1897 -0.0970
 2802POPC   GL234012   6.317  29.260   4.149  0.3473  0.0596 -0.0128
 2802POPC   C1A34013   5.881  29.311   4.362 -0.3482  0.0801 -0.3734
 2802POPC   D2A34014   5.811  29.779   4.467  0.0788 -0.0509  0.1283
 2802POPC   C3A34015   6.048  29.998   4.842 -0.0394  0.0968 -0.5020
 2802POPC   C4A34016   6.189  30.135   5.274  0.2706  0.1492 -0.0351
 2802POPC   C1B34017   6.572  29.201   4.520  0.1691  0.1752 -0.3616
 2802POPC   C2B34018   6.494  29.156   4.985  0.0915 -0.0005 -0.0481
 2802POPC   C3B34019   6.324  29.244   5.417  0.1945 -0.1869  0.0716
 2802POPC   C4B34020   6.523  29.281   5.854  0.1702  0.2102 -0.1646
 2803POPC   NC334021   3.517  10.016   4.301  0.0574 -0.1072  0.2736
 2803POPC   PO434022   3.800   9.762   4.168 -0.4246 -0.0823 -0.0383
 2803POPC   GL134023   3.677   9.556   4.510 -0.0925  0.1482 -0.0016
 2803POPC   GL234024   3.517   9.381   4.427  0.0875 -0.3203 -0.2518
 2803POPC   C1A34025   3.737   9.534   4.954  0.1000  0.0902 -0.1672
 2803POPC   D2A34026   3.924   9.736   5.343  0.0062 -0.0111 -0.4755
 2803POPC   C3A34027   4.287   9.863   5.507 -0.0859 -0.0595  0.0063
 2803POPC   C4A34028   4.589  10.233   5.473  0.0854  0.1214 -0.0737
 2803POPC   C1B34029   3.261   9.032   4.641  0.0447  0.2701 -0.0262
 2803POPC   C2B34030   3.172   8.898   5.073  0.0684  0.0664 -0.2795
 2803POPC   C3B34031   3.044   8.846   5.477 -0.1067 -0.0320 -0.2549
 2803POPC   C4B34032   2.841   9.051   5.837 -0.0253 -0.2663 -0.1003
 2804POPC   NC334033  14.040   6.113   3.610 -0.3049  0.5482 -0.3734
 2804POPC   PO434034  14.285   5.789   3.758  0.2522  0.0183  0.0071
 2804POPC   GL134035  14.078   5.680   4.046  0.2776  0.1110 -0.1125
 2804POPC   GL234036  13.897   5.948   4.167 -0.0688  0.0065  0.0914
 2804POPC   C1A34037  14.148   5.612   4.458  0.2013  0.3156  0.1736
 2804POPC   D2A34038  14.406   5.708   4.797  0.0026 -0.0806 -0.1384
 2804POPC   C3A34039  14.158   5.763   5.144  0.1150  0.0200 -0.2170
 2804POPC   C4A34040  14.180   6.028   5.474 -0.0351 -0.0804  0.1425
 2804POPC   C1B34041  13.981   6.021   4.655 -0.0333 -0.1833  0.4783
 2804POPC   C2B34042  13.871   6.148   5.071  0.0383  0.0225  0.1349
 2804POPC   C3B34043  13.680   5.941   5.498 -0.2283  0.0969 -0.1987
 2804POPC   C4B34044  13.494   5.826   5.921 -0.1729 -0.1257  0.2976
 2805POPC   NC334045  11.159  19.347   3.049 -0.2760 -0.1154 -0.1441
 2805POPC   PO434046  11.189  19.367   3.451  0.1732  0.0902 -0.1404
 2805POPC   GL134047  11.418  19.417   3.784  0.1159  0.1059 -0.0492
 2805POPC   GL234048  11.349  19.246   4.009  0.1733 -0.1150 -0.1940
 2805POPC   C1A34049  11.713  19.778   3.934  0.0371  0.0889  0.0894
 2805POPC   D2A34050  12.143  19.842   4.113  0.2305  0.0157  0.0750
 2805POPC   C3A34051  12.471  19.649   4.413  0.0739 -0.1971  0.2824
 2805POPC   C4A34052  12.703  19.658   4.806 -0.3270  0.2831  0.2190
 2805POPC   C1B34053  11.334  19.633   4.284  0.1430  0.2275 -0.2163
 2805POPC   C2B34054  11.488  19.882   4.629  0.0511 -0.2687 -0.2400
 2805POPC   C3B34055  11.612  20.113   4.927 -0.2114 -0.1185 -0.1451
 2805POPC   C4B34056  11.963  20.118   5.233  0.0448 -0.0963  0.0310
 2806POPC   NC334057   6.219  24.907   3.823  0.1475 -0.2288  0.1537
 2806POPC   PO434058   6.326  24.527   3.846  0.1249 -0.2319  0.1445
 2806POPC   GL134059   5.969  24.646   4.141  0.4397 -0.2179 -0.0087
 2806POPC   GL234060   6.126  24.552   4.324 -0.2346  0.4299 -0.2598
 2806POPC   C1A34061   5.581  24.625   4.429  0.1458  0.4202  0.2304
 2806POPC   D2A34062   5.496  24.660   4.888 -0.1527 -0.1350 -0.3328
 2806POPC   C3A34063   5.740  24.814   5.251  0.2336 -0.2908 -0.0069
 2806POPC   C4A34064   5.656  25.114   5.603 -0.1782  0.5280  0.0617
 2806POPC   C1B34065   6.010  24.438   4.763 -0.0893  0.0062  0.0155
 2806POPC   C2B34066   6.202  24.659   5.142  0.1412  0.2373 -0.0379
 2806POPC   C3B34067   6.297  24.805   5.546  0.3572  0.3888 -0.0784
 2806POPC   C4B34068   6.301  25.145   5.849  0.1931 -0.0860 -0.1605
 2807POPC   NC334069  15.277  18.726   3.413  0.0930 -0.2140  0.1170
 2807POPC   PO434070  14.978  18.879   3.641  0.2032  0.2081  0.0240
 2807POPC   GL134071  14.603  19.062   3.818  0.0848 -0.3401 -0.0779
 2807POPC   GL234072  14.334  19.156   3.776 -0.2210 -0.1814  0.2853
 2807POPC   C1A34073  14.529  19.211   4.254  0.1956  0.1148 -0.0373
 2807POPC   D2A34074  14.414  19.297   4.709  0.1257 -0.3998  0.1343
 2807POPC   C3A34075  14.216  19.660   4.956  0.0492 -0.0074 -0.1043
 2807POPC   C4A34076  13.931  19.973   5.159  0.0154  0.3135  0.1146
 2807POPC   C1B34077  14.068  18.882   4.098 -0.1555 -0.1244 -0.1867
 2807POPC   C2B34078  14.050  18.968   4.549  0.4256  0.2548  0.0826
 2807POPC   C3B34079  14.019  19.195   4.951  0.1652 -0.2229 -0.1078
 2807POPC   C4B34080  13.918  19.194   5.363 -0.0645 -0.1759 -0.0530
 2808POPC   NC334081   8.760  26.173   3.802 -0.1007  0.0869 -0.2131
 2808POPC   PO434082   8.579  25.821   3.717  0.0672 -0.1342 -0.1359
 2808POPC   GL134083   8.749  25.773   4.121 -0.3905  0.2128  0.2876
 2808POPC   GL234084   8.680  26.064   4.289 -0.1215  0.0198 -0.1970
 2808POPC   C1A34085   8.905  25.709   4.574  0.0291  0.0524  0.1271
 2808POPC   D2A34086   9.013  25.414   4.904  0.1312  0.0819  0.0698
 2808POPC   C3A34087   9.055  25.708   5.234 -0.0969 -0.0172 -0.0520
 2808POPC   C4A34088   8.856  26.063   5.465 -0.4224  0.1160  0.2087
 2808POPC   C1B34089   8.799  26.153   4.709 -0.0439 -0.1207 -0.1451
 2808POPC   C2B34090   8.587  26.219   5.090 -0.3475  0.1458 -0.1996
 2808POPC   C3B34091   8.295  26.088   5.473  0.0172 -0.0772  0.0864
 2808POPC   C4B34092   8.000  25.715   5.501 -0.1823 -0.0927  0.0814
 2809POPC   NC334093   7.427   7.426   3.769 -0.0305 -0.0409  0.0356
 2809POPC   PO434094   7.734   7.316   3.586  0.3037  0.1230  0.0436
 2809POPC   GL134095   7.963   7.293   3.936  0.5415 -0.3091 -0.1826
 2809POPC   GL234096   7.781   7.181   4.097 -0.0622  0.1526  0.0188
 2809POPC   C1A34097   7.994   7.587   4.330 -0.0959 -0.3210 -0.2550
 2809POPC   D2A34098   8.119   7.476   4.742  0.0014  0.2656 -0.0835
 2809POPC   C3A34099   8.149   7.614   5.194  0.0567 -0.1728  0.0227
 2809POPC   C4A34100   7.894   7.487   5.488  0.0665 -0.1006  0.0733
 2809POPC   C1B34101   7.689   7.100   4.557 -0.1615 -0.0586  0.0187
 2809POPC   C2B34102   7.563   6.865   4.935 -0.2493  0.1137  0.0026
 2809POPC   C3B34103   7.618   6.782   5.351 -0.2129 -0.2917 -0.1073
 2809POPC   C4B34104   7.820   7.034   5.653  0.1485 -0.2851  0.1465
 2810POPC   NC334105  10.357  27.433   3.617 -0.1026 -0.0515  0.0579
 2810POPC   PO434106  10.356  27.814   3.785  0.1778  0.1814 -0.2468
 2810POPC   GL134107  10.274  27.923   4.122 -0.3844  0.1923 -0.2603
 2810POPC   GL234108  10.541  27.974   4.249  0.0144 -0.0210 -0.3635
 2810POPC   C1A34109  10.328  27.647   4.500 -0.0630 -0.2248  0.1734
 2810POPC   D2A34110  10.252  27.621   4.934 -0.1032  0.1178 -0.2435
 2810POPC   C3A34111  10.530  27.464   5.333 -0.0497  0.0098  0.0603
 2810POPC   C4A34112  10.371  27.316   5.766  0.0609 -0.0329 -0.2785
 2810POPC   C1B34113  10.579  28.020   4.721  0.2716  0.5418 -0.1683
 2810POPC   C2B34114  10.457  28.059   5.159  0.2627  0.0536  0.1588
 2810POPC   C3B34115  10.243  27.870   5.541  0.0186  0.3626 -0.0504
 2810POPC   C4B34116  10.112  27.719   5.947 -0.2236 -0.1263  0.0264
 2811POPC   NC334117  15.204  22.349   3.813  0.0774 -0.0385  0.1949
 2811POPC   PO434118  14.984  22.649   3.615 -0.0532 -0.4340  0.0194
 2811POPC   GL134119  14.843  22.884   3.900  0.3810 -0.2765 -0.3206
 2811POPC   GL234120  14.642  22.858   4.139  0.2383 -0.0139 -0.0792
 2811POPC   C1A34121  15.086  22.993   4.326 -0.1779 -0.0250 -0.0650
 2811POPC   D2A34122  15.292  22.883   4.772  0.1810 -0.2405 -0.2113
 2811POPC   C3A34123  15.365  22.979   5.210  0.1309  0.2190 -0.3223
 2811POPC   C4A34124  15.488  23.313   5.531  0.0435  0.3385  0.0169
 2811POPC   C1B34125  14.809  22.728   4.605  0.0626  0.1391 -0.0004
 2811POPC   C2B34126  14.871  22.794   5.082 -0.1869 -0.2523  0.0682
 2811POPC   C3B34127  14.839  23.043   5.502  0.4264 -0.1426  0.0351
 2811POPC   C4B34128  14.771  22.858   5.969  0.0153  0.0707 -0.3224
 2812POPC   NC334129   2.024  15.344   3.503 -0.0870 -0.1315  0.1951
 2812POPC   PO434130   1.751  15.618   3.639  0.2223 -0.0074  0.0314
 2812POPC   GL134131   1.574  15.672   4.003 -0.0718  0.0606  0.2056
 2812POPC   GL234132   1.575  15.423   4.146  0.0349  0.1851  0.2698
 2812POPC   C1A34133   1.679  16.000   4.314 -0.0001  0.0579  0.0312
 2812POPC   D2A34134   1.369  16.345   4.325 -0.0526  0.1333  0.1113
 2812POPC   C3A34135   1.130  16.416   4.713  0.0030  0.1322 -0.0782
 2812POPC   C4A34136   1.047  16.499   5.177 -0.0047 -0.0693  0.2970
 2812POPC   C1B34137   1.786  15.226   4.514  0.0183 -0.1353  0.1101
 2812POPC   C2B34138   1.861  15.111   4.976  0.4298 -0.0336  0.0347
 2812POPC   C3B34139   2.177  15.217   5.337 -0.1861  0.2582  0.1329
 2812POPC   C4B34140   2.337  15.262   5.789 -0.0811 -0.1314  0.0433
 2813POPC   NC334141  13.313   6.378   4.026 -0.0274 -0.0388 -0.2032
 2813POPC   PO434142  13.387   5.944   4.011 -0.3075  0.2088  0.0401
 2813POPC   GL134143  13.528   5.921   4.436  0.1364  0.2642 -0.0477
 2813POPC   GL234144  13.584   6.209   4.465 -0.2479 -0.0274  0.1148
 2813POPC   C1A34145  13.674   5.664   4.771 -0.1015  0.2229  0.4132
 2813POPC   D2A34146  13.614   5.498   5.186  0.1045 -0.0652 -0.0552
 2813POPC   C3A34147  13.657   5.439   5.635  0.1068 -0.0518  0.1531
 2813POPC   C4A34148  13.458   5.160   5.954  0.5653 -0.0636 -0.1352
 2813POPC   C1B34149  13.393   6.188   4.909 -0.0670  0.0801 -0.1988
 2813POPC   C2B34150  13.138   6.139   5.311 -0.3257 -0.0781  0.1334
 2813POPC   C3B34151  13.087   6.029   5.754  0.1191 -0.2398  0.2480
 2813POPC   C4B34152  13.041   5.890   6.193  0.2028 -0.0020 -0.0017
 2814POPC   NC334153   4.898   7.188   3.763  0.2283 -0.2330 -0.1461
 2814POPC   PO434154   5.211   7.393   3.613  0.0580 -0.0147 -0.3273
 2814POPC   GL134155   5.191   7.402   4.029 -0.0097  0.2444 -0.0929
 2814POPC   GL234156   5.400   7.259   4.168  0.1907 -0.3431  0.0791
 2814POPC   C1A34157   4.967   7.308   4.434 -0.1138 -0.0902 -0.2315
 2814POPC   D2A34158   4.913   7.511   4.866 -0.2947  0.2026 -0.0893
 2814POPC   C3A34159   4.921   7.154   5.133  0.0959 -0.1580  0.3456
 2814POPC   C4A34160   4.663   7.025   5.515 -0.0108 -0.2273  0.5873
 2814POPC   C1B34161   5.399   7.331   4.660 -0.1370  0.1492 -0.0281
 2814POPC   C2B34162   5.348   7.679   4.992  0.2343  0.2789 -0.0851
 2814POPC   C3B34163   5.509   7.957   5.386  0.3171  0.2056 -0.0096
 2814POPC   C4B34164   5.595   8.273   5.710  0.2351 -0.3749  0.2838
 2815POPC   NC334165   0.219  18.301   4.461  0.1019 -0.1312 -0.0007
 2815POPC   PO434166   0.591  18.353   4.385 -0.1646 -0.1289  0.0215
 2815POPC   GL134167   0.612  18.223   4.766 -0.0482 -0.0491  0.2540
 2815POPC   GL234168   0.906  18.147   4.733 -0.2881  0.0231 -0.0321
 2815POPC   C1A34169   0.616  18.057   5.224 -0.0437  0.0959  0.4571
 2815POPC   D2A34170   0.525  17.838   5.660 -0.2666  0.1896  0.2205
 2815POPC   C3A34171   0.612  17.627   6.132 -0.2636 -0.2865  0.1566
 2815POPC   C4A34172   0.566  17.605   6.568 -0.2428  0.0171 -0.3564
 2815POPC   C1B34173   1.109  17.945   5.098  0.2270  0.2047  0.1011
 2815POPC   C2B34174   1.038  17.865   5.586  0.2202 -0.1787  0.1662
 2815POPC   C3B34175   1.087  17.662   5.982 -0.0628 -0.0336  0.0406
 2815POPC   C4B34176   1.493  17.479   6.080  0.1440  0.0137  0.1085
 2816POPC   NC334177  10.137   4.729   3.966  0.0409 -0.2202  0.0257
 2816POPC   PO434178  10.009   4.945   3.664 -0.3299 -0.1035 -0.0985
 2816POPC   GL134179   9.674   4.964   3.779  0.1411  0.4050  0.0589
 2816POPC   GL234180   9.641   4.694   3.814 -0.2076 -0.1689 -0.1405
 2816POPC   C1A34181   9.486   4.981   4.199  0.0261 -0.0852  0.5852
 2816POPC   D2A34182   9.186   5.147   4.525 -0.1801 -0.1018 -0.2647
 2816POPC   C3A34183   9.209   5.600   4.714 -0.1451  0.1385  0.0177
 2816POPC   C4A34184   9.315   5.751   5.131 -0.1062  0.0246 -0.1835
 2816POPC   C1B34185   9.741   4.598   4.270 -0.3258 -0.0356  0.1487
 2816POPC   C2B34186  10.026   4.800   4.585  0.2295  0.1365  0.4083
 2816POPC   C3B34187  10.404   5.129   4.549  0.0412 -0.0430  0.1250
 2816POPC   C4B34188  10.688   5.394   4.813 -0.1353  0.1363  0.1065
 2817POPC   NC334189   5.809   9.867   3.900 -0.0890 -0.1300  0.2515
 2817POPC   PO434190   5.896  10.209   4.065 -0.5575  0.1878  0.5982
 2817POPC   GL134191   5.949  10.428   4.346  0.2726  0.4078  0.2347
 2817POPC   GL234192   6.249  10.581   4.320  0.1882  0.2641  0.0492
 2817POPC   C1A34193   5.898  10.588   4.799 -0.0940  0.3787  0.2106
 2817POPC   D2A34194   5.745  10.846   5.128  0.0125  0.0559  0.0297
 2817POPC   C3A34195   5.980  11.065   5.430 -0.0359 -0.0447 -0.0573
 2817POPC   C4A34196   6.326  11.067   5.708 -0.1530  0.2125 -0.2365
 2817POPC   C1B34197   6.391  10.422   4.804  0.0691 -0.1404 -0.0190
 2817POPC   C2B34198   6.280  10.555   5.260 -0.1528  0.4791 -0.1610
 2817POPC   C3B34199   6.417  10.474   5.703  0.0484 -0.1387  0.1133
 2817POPC   C4B34200   6.278  10.045   5.874 -0.0734  0.0560 -0.1579
 2818POPC   NC334201  10.775   7.444   3.718  0.0337  0.2805 -0.0945
 2818POPC   PO434202  10.447   7.518   3.456 -0.2039 -0.1105 -0.1107
 2818POPC   GL134203  10.366   7.573   3.890  0.0736 -0.0352 -0.0194
 2818POPC   GL234204  10.468   7.908   3.862 -0.1857  0.0356 -0.3512
 2818POPC   C1A34205  10.651   7.451   4.226 -0.1180  0.1487 -0.2303
 2818POPC   D2A34206  10.831   7.632   4.650 -0.2709  0.0423 -0.0679
 2818POPC   C3A34207  10.800   7.405   5.049  0.0008 -0.3000 -0.2057
 2818POPC   C4A34208  10.798   7.157   5.494 -0.2916 -0.3342  0.2779
 2818POPC   C1B34209  10.415   7.874   4.349 -0.1347 -0.0209  0.0010
 2818POPC   C2B34210  10.482   7.927   4.840 -0.1704 -0.3844  0.2205
 2818POPC   C3B34211  10.498   8.026   5.323  0.1457 -0.0814 -0.3156
 2818POPC   C4B34212  10.776   8.188   5.702 -0.1346  0.1130  0.1512
 2819POPC   NC334213  15.025  15.157   3.592  0.2895  0.0144 -0.0279
 2819POPC   PO434214  15.192  15.482   3.654  0.1316 -0.1112  0.2766
 2819POPC   GL134215  15.163  15.263   3.987 -0.0041  0.1064 -0.1921
 2819POPC   GL234216  15.462  15.083   4.005 -0.1558  0.0831 -0.0361
 2819POPC   C1A34217  15.139  15.237   4.442 -0.3423  0.0059 -0.1118
 2819POPC   D2A34218  14.989  14.978   4.791 -0.0524 -0.3726  0.0862
 2819POPC   C3A34219  14.696  15.167   5.096 -0.2430  0.0010 -0.1292
 2819POPC   C4A34220  14.357  15.382   5.355 -0.1149  0.3274  0.0653
 2819POPC   C1B34221  15.686  15.108   4.410  0.0722  0.2721 -0.1528
 2819POPC   C2B34222  15.853  14.942   4.826 -0.2277 -0.2231  0.3886
 2819POPC   C3B34223  16.034  14.991   5.209  0.0620 -0.1800 -0.0604
 2819POPC   C4B34224  15.835  14.997   5.593  0.0763 -0.0593 -0.1378
 2820POPC   NC334225  11.898  14.299   3.546  0.1154 -0.1150 -0.1169
 2820POPC   PO434226  12.098  14.629   3.428  0.1546  0.0835 -0.1042
 2820POPC   GL134227  12.072  14.651   3.807 -0.1276  0.2592 -0.0158
 2820POPC   GL234228  12.215  14.866   3.902  0.0580 -0.2070  0.3072
 2820POPC   C1A34229  11.927  14.361   4.112  0.2703  0.1746  0.0696
 2820POPC   D2A34230  11.684  13.961   4.213 -0.3173  0.1128  0.0932
 2820POPC   C3A34231  11.750  13.906   4.649  0.2292  0.1956 -0.1185
 2820POPC   C4A34232  11.640  14.183   4.969 -0.2546 -0.0725 -0.2606
 2820POPC   C1B34233  12.103  14.798   4.309  0.0170 -0.0470 -0.1523
 2820POPC   C2B34234  12.374  14.727   4.704 -0.2134  0.1783 -0.0678
 2820POPC   C3B34235  12.582  14.939   5.060  0.0883  0.0018 -0.1839
 2820POPC   C4B34236  12.837  15.268   5.236  0.0693 -0.1089  0.3698
 2821POPC   NC334237   1.409  20.587   3.975  0.1796  0.2511  0.1141
 2821POPC   PO434238   1.699  20.355   4.087  0.1778  0.2673  0.1567
 2821POPC   GL134239   1.504  20.183   4.380 -0.0490  0.3175 -0.1218
 2821POPC   GL234240   1.567  19.934   4.419 -0.0824  0.2055 -0.0516
 2821POPC   C1A34241   1.297  20.284   4.748 -0.1535 -0.1027  0.0515
 2821POPC   D2A34242   1.173  20.415   5.202  0.0413 -0.0886  0.1979
 2821POPC   C3A34243   1.358  20.700   5.551  0.1127  0.1907 -0.1877
 2821POPC   C4A34244   1.374  20.753   6.023  0.0425  0.0140  0.1906
 2821POPC   C1B34245   1.654  19.748   4.865  0.0337 -0.2828  0.2948
 2821POPC   C2B34246   1.659  19.659   5.279 -0.0482  0.1329 -0.1615
 2821POPC   C3B34247   1.755  19.689   5.707  0.2700 -0.2506  0.1122
 2821POPC   C4B34248   1.886  19.954   6.111  0.2800  0.3501 -0.2537
 2822POPC   NC334249   6.283  13.462   3.783  0.1680 -0.2541 -0.0441
 2822POPC   PO434250   6.220  13.805   3.637 -0.0556  0.2083  0.2646
 2822POPC   GL134251   6.288  13.817   4.105  0.3388  0.0579 -0.1684
 2822POPC   GL234252   6.366  13.669   4.252  0.2854 -0.1697  0.1965
 2822POPC   C1A34253   6.340  14.155   4.453 -0.1708 -0.2577  0.4519
 2822POPC   D2A34254   6.411  14.488   4.759  0.1550 -0.2375 -0.1057
 2822POPC   C3A34255   6.544  14.540   5.149 -0.1347 -0.3459 -0.0560
 2822POPC   C4A34256   6.671  14.312   5.525 -0.1566  0.3135  0.1057
 2822POPC   C1B34257   6.350  13.372   4.594  0.0165  0.4024 -0.0138
 2822POPC   C2B34258   6.698  13.265   4.913  0.3288  0.0512 -0.1246
 2822POPC   C3B34259   6.645  13.205   5.361  0.0893 -0.0789 -0.4291
 2822POPC   C4B34260   6.746  13.380   5.809  0.3115  0.2331  0.1620
 2823POPC   NC334261  10.963  18.047   3.350 -0.1714 -0.1606  0.1278
 2823POPC   PO434262  10.906  17.768   3.582  0.1327 -0.1500  0.6381
 2823POPC   GL134263  10.692  17.785   3.922 -0.0052 -0.1619 -0.1919
 2823POPC   GL234264  10.658  17.552   4.111 -0.0834 -0.4028 -0.0569
 2823POPC   C1A34265  10.333  17.891   4.282 -0.2640 -0.3879 -0.3203
 2823POPC   D2A34266  10.404  17.970   4.764 -0.5624 -0.0629 -0.3329
 2823POPC   C3A34267  10.683  18.237   5.089  0.3344  0.4274 -0.2522
 2823POPC   C4A34268  10.660  18.432   5.534 -0.0134 -0.1356 -0.1575
 2823POPC   C1B34269  10.747  17.544   4.559  0.0469  0.0073 -0.0696
 2823POPC   C2B34270  10.436  17.459   4.922 -0.0882 -0.0128  0.0121
 2823POPC   C3B34271  10.509  17.512   5.381 -0.1509  0.0232  0.3297
 2823POPC   C4B34272  10.472  17.934   5.559 -0.3393  0.1762 -0.0765
 2824POPC   NC334273   7.304  13.038   4.212  0.2102  0.1470  0.1445
 2824POPC   PO434274   7.111  13.105   3.881  0.2440 -0.0202 -0.4292
 2824POPC   GL134275   6.806  13.036   4.153 -0.0494 -0.4369  0.1140
 2824POPC   GL234276   6.652  13.259   4.156  0.0887 -0.2718 -0.1280
 2824POPC   C1A34277   6.667  12.893   4.561  0.2320  0.0321  0.1507
 2824POPC   D2A34278   6.688  12.795   5.008  0.0760  0.3124 -0.0266
 2824POPC   C3A34279   6.339  12.844   5.279 -0.0094  0.1221 -0.0254
 2824POPC   C4A34280   6.062  12.766   5.632 -0.3519 -0.0378 -0.2126
 2824POPC   C1B34281   6.966  13.314   4.482  0.0582  0.2079  0.0415
 2824POPC   C2B34282   7.300  13.162   4.767  0.2298  0.2016  0.0992
 2824POPC   C3B34283   7.159  13.123   5.174  0.2611  0.1675  0.2187
 2824POPC   C4B34284   7.003  12.981   5.589  0.3485 -0.2088  0.1498
 2825POPC   NC334285  12.700   2.581   3.881  0.0184  0.1667 -0.1879
 2825POPC   PO434286  12.623   2.192   3.942 -0.0260 -0.1142 -0.1329
 2825POPC   GL134287  12.362   2.139   4.198 -0.0898 -0.0623 -0.0696
 2825POPC   GL234288  12.572   2.071   4.408 -0.0963  0.1406  0.1397
 2825POPC   C1A34289  12.104   1.786   4.357 -0.0463 -0.1472  0.3614
 2825POPC   D2A34290  11.723   1.740   4.688  0.3381 -0.0446  0.1692
 2825POPC   C3A34291  11.604   2.042   5.013 -0.1184  0.2695 -0.1543
 2825POPC   C4A34292  11.878   2.312   5.284 -0.3522 -0.3014 -0.0063
 2825POPC   C1B34293  12.653   1.969   4.805  0.1052  0.1249  0.1989
 2825POPC   C2B34294  12.964   2.064   5.141  0.0566  0.0914 -0.2061
 2825POPC   C3B34295  13.267   1.913   5.416 -0.0284 -0.0473  0.0401
 2825POPC   C4B34296  13.733   2.070   5.581  0.1124 -0.1946 -0.0151
 2826POPC   NC334297   4.445  14.003   3.260 -0.1491 -0.0731 -0.2315
 2826POPC   PO434298   4.405  14.003   3.678  0.2957 -0.0160  0.0347
 2826POPC   GL134299   4.481  14.148   4.082 -0.0498  0.2448 -0.2148
 2826POPC   GL234300   4.446  13.955   4.274 -0.2786 -0.1415 -0.0759
 2826POPC   C1A34301   4.352  14.405   4.451  0.1876  0.0917 -0.4316
 2826POPC   D2A34302   3.955  14.467   4.702 -0.1528 -0.2730 -0.3450
 2826POPC   C3A34303   3.931  14.626   5.110 -0.0742  0.2167 -0.3196
 2826POPC   C4A34304   3.757  14.429   5.503 -0.1796 -0.0718 -0.2438
 2826POPC   C1B34305   4.685  13.599   4.496  0.3688 -0.2135  0.3159
 2826POPC   C2B34306   4.714  13.727   4.898 -0.0224  0.0441 -0.1607
 2826POPC   C3B34307   4.912  13.942   5.315 -0.2383 -0.1916  0.6765
 2826POPC   C4B34308   5.163  14.242   5.684  0.2693 -0.1568 -0.5058
 2827POPC   NC334309  13.765   0.120   3.309 -0.4977 -0.2663  0.1183
 2827POPC   PO434310  13.622   0.264   3.631  0.1244  0.0346  0.1248
 2827POPC   GL134311  13.509   0.088   3.889  0.2998  0.1299  0.0448
 2827POPC   GL234312  13.638   0.180   4.169 -0.1098  0.1204  0.0049
 2827POPC   C1A34313  13.176  -0.098   4.174 -0.2070  0.3155  0.1428
 2827POPC   D2A34314  12.881  -0.336   4.474 -0.0990 -0.1474  0.3856
 2827POPC   C3A34315  12.686  -0.118   4.790  0.0590  0.0748 -0.2885
 2827POPC   C4A34316  12.447   0.239   4.987 -0.1432  0.2376  0.1558
 2827POPC   C1B34317  13.540   0.144   4.587 -0.2886 -0.0393 -0.0014
 2827POPC   C2B34318  13.503   0.124   5.076 -0.0693  0.1989 -0.2055
 2827POPC   C3B34319  13.311  -0.100   5.409 -0.0493 -0.3536 -0.2603
 2827POPC   C4B34320  13.082  -0.368   5.781  0.1525  0.1759 -0.0021
 2828POPC   NC334321   6.328  15.229   3.272  0.3332  0.0632 -0.1314
 2828POPC   PO434322   6.097  15.058   3.529 -0.2027  0.0733 -0.2373
 2828POPC   GL134323   6.117  15.214   3.990  0.2477 -0.0106  0.2791
 2828POPC   GL234324   5.896  15.341   4.022 -0.3104 -0.2886 -0.1522
 2828POPC   C1A34325   6.240  15.118   4.409 -0.0461 -0.2628  0.1421
 2828POPC   D2A34326   6.482  15.032   4.851  0.0168 -0.3214 -0.0338
 2828POPC   C3A34327   6.202  15.084   5.298 -0.2098 -0.0697  0.0106
 2828POPC   C4A34328   5.833  14.883   5.530 -0.0370  0.5566 -0.0597
 2828POPC   C1B34329   5.802  15.438   4.457 -0.0481 -0.3859 -0.2473
 2828POPC   C2B34330   6.081  15.418   4.861 -0.1492 -0.0465 -0.0605
 2828POPC   C3B34331   6.386  15.548   5.200  0.2326 -0.0373  0.0007
 2828POPC   C4B34332   6.501  15.406   5.605 -0.0163  0.2457  0.1493
 2829POPC   NC334333   6.378  10.182   4.048  0.0495  0.0021 -0.1845
 2829POPC   PO434334   6.300   9.763   4.020  0.0972 -0.1772 -0.1830
 2829POPC   GL134335   6.053   9.627   4.309 -0.5262 -0.2444 -0.0471
 2829POPC   GL234336   6.035   9.877   4.512  0.2454  0.1882 -0.0367
 2829POPC   C1A34337   6.250   9.439   4.698  0.0758  0.0128 -0.0716
 2829POPC   D2A34338   6.196   9.447   5.195  0.2489 -0.0740 -0.0869
 2829POPC   C3A34339   6.363   9.133   5.507  0.1213  0.0510  0.1566
 2829POPC   C4A34340   6.440   8.671   5.615 -0.0327 -0.1029 -0.2395
 2829POPC   C1B34341   5.934   9.859   4.975  0.0271  0.1390  0.1373
 2829POPC   C2B34342   5.755   9.779   5.423  0.0146  0.1768 -0.1974
 2829POPC   C3B34343   5.773   9.938   5.823 -0.0403  0.1102 -0.1618
 2829POPC   C4B34344   6.010   9.849   6.212  0.1788  0.0947 -0.3331
 2830POPC   NC334345  12.061   9.717   3.699  0.1698  0.0370  0.2599
 2830POPC   PO434346  12.183  10.107   3.611 -0.0694  0.0727 -0.1455
 2830POPC   GL134347  12.173  10.136   3.983 -0.1196 -0.0830 -0.0624
 2830POPC   GL234348  12.306  10.409   4.116 -0.1898  0.0703  0.0806
 2830POPC   C1A34349  11.862  10.149   4.268  0.2125 -0.1010  0.0316
 2830POPC   D2A34350  11.500  10.380   4.478  0.1021  0.3410 -0.0188
 2830POPC   C3A34351  11.838  10.529   4.769  0.0531  0.0725 -0.0087
 2830POPC   C4A34352  12.132  10.427   5.161 -0.0962  0.2110  0.1732
 2830POPC   C1B34353  12.322  10.268   4.571 -0.3213  0.2111  0.0618
 2830POPC   C2B34354  12.030  10.049   4.855  0.0919 -0.4432 -0.1461
 2830POPC   C3B34355  11.976   9.876   5.234  0.0768 -0.0857 -0.1398
 2830POPC   C4B34356  12.062   9.755   5.698  0.5902 -0.0145  0.1875
 2831POPC   NC334357   5.908   4.594   3.983  0.2072  0.0151 -0.1696
 2831POPC   PO434358   6.023   4.963   3.937  0.0107  0.3078 -0.3199
 2831POPC   GL134359   6.021   5.111   4.315  0.0760  0.0671  0.0098
 2831POPC   GL234360   5.839   4.912   4.442  0.0084 -0.4448 -0.3103
 2831POPC   C1A34361   6.008   5.235   4.784 -0.0017 -0.0702  0.2904
 2831POPC   D2A34362   5.940   5.244   5.237  0.0093  0.3171  0.0367
 2831POPC   C3A34363   5.855   5.425   5.653  0.1496 -0.1673 -0.1492
 2831POPC   C4A34364   5.891   5.852   5.818  0.2375 -0.2775  0.0165
 2831POPC   C1B34365   5.588   4.963   4.868  0.0473 -0.4434 -0.0678
 2831POPC   C2B34366   5.378   4.772   5.196 -0.1986  0.1714 -0.0739
 2831POPC   C3B34367   5.278   4.628   5.621  0.0990 -0.2302  0.2081
 2831POPC   C4B34368   5.581   4.712   6.021  0.0881  0.1799 -0.1541
 2832POPC   NC334369   0.758  16.525   3.874 -0.2471 -0.3241 -0.4285
 2832POPC   PO434370   1.140  16.555   3.905 -0.0035 -0.0498 -0.0243
 2832POPC   GL134371   1.089  16.690   4.251  0.4297  0.0052  0.2877
 2832POPC   GL234372   1.303  16.923   4.297  0.0836  0.2449 -0.3251
 2832POPC   C1A34373   0.794  16.720   4.628  0.0630 -0.0940 -0.0050
 2832POPC   D2A34374   0.533  16.727   4.946  0.0094  0.1300 -0.1657
 2832POPC   C3A34375   0.556  16.550   5.347  0.1129 -0.0155 -0.0960
 2832POPC   C4A34376   0.534  16.350   5.748  0.0413 -0.0517 -0.1047
 2832POPC   C1B34377   1.208  16.910   4.740 -0.1197  0.2026 -0.7017
 2832POPC   C2B34378   1.457  17.054   5.113  0.3061 -0.0129  0.1261
 2832POPC   C3B34379   1.727  17.222   5.477 -0.1101  0.0075  0.2607
 2832POPC   C4B34380   1.804  17.098   5.885 -0.4682 -0.1277 -0.0614
 2833POPC   NC334381   6.035   6.260   3.484 -0.2548 -0.0862 -0.1614
 2833POPC   PO434382   5.763   6.503   3.489 -0.0933 -0.3497 -0.0014
 2833POPC   GL134383   5.567   6.567   3.871 -0.0928 -0.0181 -0.0617
 2833POPC   GL234384   5.682   6.725   4.085  0.0341 -0.0873 -0.0185
 2833POPC   C1A34385   5.352   6.391   4.237  0.0068  0.1363  0.0446
 2833POPC   D2A34386   5.128   6.388   4.651  0.0864  0.2347  0.2840
 2833POPC   C3A34387   4.986   5.986   4.818 -0.1426  0.4111 -0.1879
 2833POPC   C4A34388   5.062   5.706   5.195 -0.1909 -0.1080  0.1085
 2833POPC   C1B34389   5.825   6.980   4.446  0.0444 -0.1475 -0.0435
 2833POPC   C2B34390   5.724   6.995   4.905 -0.5103  0.4489  0.0741
 2833POPC   C3B34391   5.500   7.263   5.193  0.2220  0.0879 -0.1662
 2833POPC   C4B34392   5.197   7.513   5.452 -0.0800 -0.2490 -0.4142
 2834POPC   NC334393  13.211  24.956   3.022  0.0435 -0.2285 -0.2267
 2834POPC   PO434394  13.483  24.863   3.316 -0.3160 -0.1801  0.1505
 2834POPC   GL134395  13.483  24.947   3.694 -0.1955 -0.0132  0.0561
 2834POPC   GL234396  13.496  25.257   3.628 -0.2384 -0.2079  0.1416
 2834POPC   C1A34397  13.131  25.131   3.993  0.4033  0.2261  0.0830
 2834POPC   D2A34398  13.215  25.286   4.420 -0.0373  0.2470  0.3339
 2834POPC   C3A34399  13.258  25.258   4.906  0.0321  0.1090  0.0243
 2834POPC   C4A34400  13.186  25.235   5.377  0.1312 -0.0155 -0.0630
 2834POPC   C1B34401  13.597  25.193   4.100  0.3195 -0.1455  0.1831
 2834POPC   C2B34402  13.731  25.359   4.488  0.0530  0.1769  0.0135
 2834POPC   C3B34403  13.853  25.319   4.918 -0.1754  0.0113 -0.0073
 2834POPC   C4B34404  14.036  25.520   5.278  0.0930  0.1105  0.1528
 2835POPC   NC334405  10.860  22.189   3.144 -0.1275 -0.2482  0.0415
 2835POPC   PO434406  10.707  22.472   3.343 -0.1701 -0.1236  0.0357
 2835POPC   GL134407  10.723  22.171   3.596  0.0296  0.0443 -0.0585
 2835POPC   GL234408  10.676  22.341   3.851  0.0713 -0.0266  0.1570
 2835POPC   C1A34409  10.346  21.950   3.738 -0.2253  0.0131 -0.0562
 2835POPC   D2A34410  10.066  21.874   4.058 -0.5242  0.0029  0.2712
 2835POPC   C3A34411  10.135  21.932   4.488 -0.1305 -0.2905 -0.0332
 2835POPC   C4A34412  10.502  22.089   4.717 -0.0568 -0.1492  0.1098
 2835POPC   C1B34413  11.052  22.171   3.969  0.0602  0.2790 -0.0295
 2835POPC   C2B34414  11.549  22.078   3.966 -0.0205 -0.0940 -0.0331
 2835POPC   C3B34415  11.851  22.421   4.173  0.1097  0.0925  0.2595
 2835POPC   C4B34416  12.064  22.756   4.394  0.0013 -0.2199  0.1682
 2836POPC   NC334417   6.228  16.031   3.413 -0.1316 -0.1950  0.3373
 2836POPC   PO434418   6.595  15.864   3.452  0.1417 -0.1066 -0.2117
 2836POPC   GL134419   6.593  16.093   3.824 -0.1229 -0.1831  0.1550
 2836POPC   GL234420   6.410  15.867   3.940 -0.1083 -0.1441  0.0706
 2836POPC   C1A34421   6.316  16.250   4.225  0.1335  0.4252 -0.1907
 2836POPC   D2A34422   6.024  16.399   4.561 -0.4209 -0.1055  0.0639
 2836POPC   C3A34423   5.807  16.219   4.856 -0.0690  0.2787 -0.2134
 2836POPC   C4A34424   5.601  15.770   4.760 -0.1210  0.3723 -0.0144
 2836POPC   C1B34425   6.688  15.915   4.325 -0.0598 -0.0157 -0.1176
 2836POPC   C2B34426   6.624  16.215   4.683 -0.2089 -0.0450 -0.1745
 2836POPC   C3B34427   6.354  16.387   5.044 -0.1828  0.1769  0.2848
 2836POPC   C4B34428   6.212  16.625   5.429 -0.1406  0.0024  0.2506
 2837POPC   NC334429   3.115  11.510   3.301 -0.0464  0.1549 -0.2125
 2837POPC   PO434430   2.980  11.315   3.610  0.2939 -0.1698 -0.0049
 2837POPC   GL134431   2.930  11.361   3.991 -0.3221  0.1172 -0.1870
 2837POPC   GL234432   3.111  11.147   4.066 -0.0879 -0.1049  0.1880
 2837POPC   C1A34433   3.121  11.555   4.393  0.1611  0.0194 -0.0406
 2837POPC   D2A34434   3.326  11.849   4.736 -0.1325 -0.1566 -0.0962
 2837POPC   C3A34435   3.176  11.967   5.193  0.1389  0.2712  0.3385
 2837POPC   C4A34436   2.780  11.837   5.423  0.3390 -0.0362  0.1716
 2837POPC   C1B34437   3.428  10.975   4.356 -0.2642  0.0206 -0.0862
 2837POPC   C2B34438   3.605  10.788   4.736 -0.0570  0.1024  0.1603
 2837POPC   C3B34439   3.591  10.895   5.151  0.2484 -0.0879  0.1795
 2837POPC   C4B34440   3.748  10.723   5.580  0.2547 -0.2007 -0.2753
 2838POPC   NC334441   7.623  21.473   3.783  0.1062  0.1089  0.0244
 2838POPC   PO434442   7.561  21.117   3.633  0.0949  0.3759 -0.2337
 2838POPC   GL134443   7.582  21.094   4.053 -0.1359  0.1795  0.0436
 2838POPC   GL234444   7.340  20.868   3.977  0.2942 -0.3653 -0.0551
 2838POPC   C1A34445   7.744  21.134   4.506 -0.0847  0.2147 -0.0469
 2838POPC   D2A34446   8.009  21.158   4.881  0.3228  0.1796  0.2999
 2838POPC   C3A34447   7.992  21.511   5.127  0.1912  0.0491 -0.2941
 2838POPC   C4A34448   8.087  21.659   5.531 -0.0253  0.3352 -0.2198
 2838POPC   C1B34449   7.178  21.061   4.297  0.0276 -0.0330 -0.0322
 2838POPC   C2B34450   7.322  21.014   4.790  0.1528 -0.3566  0.1571
 2838POPC   C3B34451   7.612  21.101   5.144 -0.2198  0.0369 -0.2470
 2838POPC   C4B34452   7.873  21.095   5.510  0.1322 -0.0080 -0.0921
 2839POPC   NC334453   0.383  30.177   3.297 -0.0221  0.3281  0.0337
 2839POPC   PO434454   0.632  29.917   3.457  0.1652 -0.0447  0.0855
 2839POPC   GL134455   0.365  29.980   3.732  0.3182  0.3263  0.1275
 2839POPC   GL234456   0.501  29.921   3.933 -0.0437 -0.0995 -0.1585
 2839POPC   C1A34457  -0.093  29.911   3.839 -0.0575 -0.0985  0.0847
 2839POPC   D2A34458  -0.391  29.703   4.106 -0.2794 -0.3497 -0.3931
 2839POPC   C3A34459  -0.824  29.718   4.352  0.0205 -0.1935  0.4011
 2839POPC   C4A34460  -1.259  29.598   4.337  0.0715  0.1589 -0.0927
 2839POPC   C1B34461   0.232  29.850   4.324  0.2256 -0.0456  0.0435
 2839POPC   C2B34462  -0.127  29.664   4.557  0.0537  0.2574 -0.2665
 2839POPC   C3B34463  -0.454  29.600   4.896 -0.0049  0.0839  0.1621
 2839POPC   C4B34464  -0.574  29.370   5.270 -0.0263 -0.0019 -0.0146
 2840POPC   NC334465  14.578  22.319   3.424 -0.0303  0.2335 -0.5853
 2840POPC   PO434466  14.488  22.569   3.713  0.2198 -0.2635 -0.2195
 2840POPC   GL134467  14.660  22.358   3.936 -0.0408 -0.1871 -0.1068
 2840POPC   GL234468  14.638  22.079   3.934  0.0807 -0.2094 -0.2303
 2840POPC   C1A34469  14.980  22.480   4.211 -0.2201 -0.1739  0.0308
 2840POPC   D2A34470  15.308  22.268   4.433  0.0270 -0.3605  0.0083
 2840POPC   C3A34471  15.138  22.340   4.783 -0.2357 -0.3539  0.2329
 2840POPC   C4A34472  15.270  22.533   5.186  0.1117  0.2945  0.1572
 2840POPC   C1B34473  14.747  22.148   4.370 -0.0228  0.2623 -0.0977
 2840POPC   C2B34474  14.647  22.207   4.823  0.0645 -0.0771 -0.0534
 2840POPC   C3B34475  14.811  22.318   5.239  0.2501 -0.1183  0.2973
 2840POPC   C4B34476  14.985  22.556   5.578  0.0589  0.0596 -0.2662
 2841POPC   NC334477   4.285  17.732   3.280  0.3509  0.3064  0.4914
 2841POPC   PO434478   4.225  17.359   3.473 -0.0666 -0.2087  0.1956
 2841POPC   GL134479   4.311  17.374   3.871 -0.2125  0.3533  0.1976
 2841POPC   GL234480   4.343  17.096   3.918 -0.2106  0.2947 -0.0689
 2841POPC   C1A34481   3.980  17.466   4.213  0.2045 -0.1466  0.2485
 2841POPC   D2A34482   3.488  17.514   4.208 -0.2338  0.0738 -0.0453
 2841POPC   C3A34483   3.161  17.799   4.269  0.0903  0.2059  0.0598
 2841POPC   C4A34484   2.863  18.091   4.117  0.1107  0.0220  0.1475
 2841POPC   C1B34485   4.316  16.962   4.336  0.0280 -0.0060 -0.0087
 2841POPC   C2B34486   4.278  16.935   4.818  0.1292 -0.1951  0.2264
 2841POPC   C3B34487   4.388  16.866   5.301  0.0169 -0.0758 -0.0206
 2841POPC   C4B34488   4.405  16.899   5.757 -0.0165  0.1879 -0.0528
 2842POPC   NC334489   3.733  21.767   4.061 -0.1340 -0.0106  0.0804
 2842POPC   PO434490   3.584  21.608   3.728 -0.0856 -0.0910 -0.0524
 2842POPC   GL134491   3.284  21.852   3.890  0.0651 -0.1328 -0.1871
 2842POPC   GL234492   3.183  21.634   3.977  0.1039 -0.2514  0.0120
 2842POPC   C1A34493   3.286  22.230   4.119 -0.0718 -0.0469  0.1369
 2842POPC   D2A34494   3.109  22.616   4.357  0.4777  0.1485  0.1617
 2842POPC   C3A34495   3.062  22.920   4.724 -0.0563  0.0402 -0.0576
 2842POPC   C4A34496   2.862  22.986   5.167  0.0982  0.0934  0.0957
 2842POPC   C1B34497   2.922  21.844   4.351 -0.1468 -0.1373  0.2508
 2842POPC   C2B34498   3.010  22.238   4.618  0.0155  0.1036 -0.2044
 2842POPC   C3B34499   3.003  22.482   5.020  0.1005  0.2418 -0.1892
 2842POPC   C4B34500   3.157  22.629   5.439  0.0995 -0.0912 -0.2281
 2843POPC   NC334501   5.636  11.850   3.506 -0.1011 -0.0309 -0.3657
 2843POPC   PO434502   5.529  12.241   3.494 -0.1323  0.4698 -0.1463
 2843POPC   GL134503   5.178  12.285   3.739 -0.0900 -0.2978 -0.4828
 2843POPC   GL234504   4.957  12.430   3.924  0.1462 -0.0592 -0.0694
 2843POPC   C1A34505   5.137  12.077   4.139  0.0011  0.0530 -0.1893
 2843POPC   D2A34506   5.021  12.026   4.615 -0.0490  0.2506 -0.1474
 2843POPC   C3A34507   4.834  11.876   4.975 -0.2963  0.3689 -0.3417
 2843POPC   C4A34508   4.950  11.558   5.333  0.1322 -0.2750  0.1224
 2843POPC   C1B34509   5.275  12.594   4.221  0.0390 -0.2439  0.2565
 2843POPC   C2B34510   5.500  12.247   4.462  0.0270  0.1309  0.1917
 2843POPC   C3B34511   5.897  12.353   4.622 -0.3998  0.1309 -0.3085
 2843POPC   C4B34512   6.090  12.412   5.064  0.0309  0.2096 -0.5232
 2844POPC   NC334513  14.756   1.771   3.827 -0.1649  0.1759 -0.0307
 2844POPC   PO434514  14.407   1.953   3.778 -0.0246 -0.2133 -0.2316
 2844POPC   GL134515  14.413   1.768   4.101  0.1543 -0.2093  0.3872
 2844POPC   GL234516  14.279   1.566   4.206 -0.2172 -0.1467  0.0884
 2844POPC   C1A34517  14.754   1.809   4.417  0.0513 -0.1275  0.3348
 2844POPC   D2A34518  14.949   1.724   4.840  0.0492 -0.3207 -0.0045
 2844POPC   C3A34519  15.111   1.769   5.244  0.0642 -0.0923  0.2633
 2844POPC   C4A34520  15.313   1.706   5.686  0.4307  0.1852 -0.0601
 2844POPC   C1B34521  14.404   1.435   4.633  0.0716  0.4026  0.0154
 2844POPC   C2B34522  14.264   1.220   4.994 -0.3288 -0.2947 -0.0491
 2844POPC   C3B34523  14.067   1.090   5.364  0.2036 -0.2232 -0.1217
 2844POPC   C4B34524  13.911   1.412   5.713  0.0026  0.1482 -0.0318
 2845POPC   NC334525   7.050  28.464   3.241  0.1595 -0.0081  0.0572
 2845POPC   PO434526   7.230  28.665   3.526 -0.0077 -0.2546  0.3857
 2845POPC   GL134527   7.121  28.712   3.901 -0.2239 -0.2229  0.0491
 2845POPC   GL234528   7.240  28.515   4.084  0.2645 -0.1148  0.2949
 2845POPC   C1A34529   6.797  28.728   4.244  0.3962  0.0663  0.3627
 2845POPC   D2A34530   6.345  28.804   4.338  0.0005  0.0046 -0.1215
 2845POPC   C3A34531   6.142  29.023   4.657 -0.2290 -0.0132 -0.0677
 2845POPC   C4A34532   5.956  29.189   5.016  0.0539  0.0829  0.2394
 2845POPC   C1B34533   7.279  28.461   4.527 -0.1764 -0.1675  0.0627
 2845POPC   C2B34534   7.250  28.627   4.925 -0.2483  0.4655 -0.1001
 2845POPC   C3B34535   7.011  28.550   5.301  0.1591  0.0989 -0.1779
 2845POPC   C4B34536   6.737  28.493   5.650 -0.0896  0.1960 -0.2724
 2846POPC   NC334537  15.687   2.762   3.682  0.1016 -0.1987 -0.4463
 2846POPC   PO434538  16.096   2.670   3.672 -0.0561 -0.1589  0.0399
 2846POPC   GL134539  15.993   2.466   3.981 -0.1753 -0.1919  0.0984
 2846POPC   GL234540  15.702   2.454   4.084  0.2273 -0.0934 -0.2672
 2846POPC   C1A34541  15.886   2.766   4.384  0.0165 -0.0493  0.0224
 2846POPC   D2A34542  15.554   3.099   4.538  0.0460 -0.0552  0.1178
 2846POPC   C3A34543  15.454   3.222   4.967 -0.1468 -0.0932 -0.1459
 2846POPC   C4A34544  15.276   3.577   5.286  0.0087 -0.0370  0.0126
 2846POPC   C1B34545  15.762   2.193   4.453  0.0214  0.1320  0.1340
 2846POPC   C2B34546  15.895   2.204   4.903 -0.0893 -0.1134  0.1319
 2846POPC   C3B34547  16.243   2.139   5.223  0.5791  0.0905 -0.0253
 2846POPC   C4B34548  16.229   2.324   5.628  0.0573  0.2635 -0.1337
 2847POPC   NC334549  13.132  10.559   3.439  0.0206 -0.2168  0.0718
 2847POPC   PO434550  13.485  10.671   3.608  0.2252  0.0128 -0.0525
 2847POPC   GL134551  13.358  10.638   4.022 -0.0507 -0.0922  0.0112
 2847POPC   GL234552  13.433  10.861   4.152 -0.0986 -0.0538  0.3331
 2847POPC   C1A34553  13.239  10.463   4.445  0.0583  0.1979 -0.4211
 2847POPC   D2A34554  13.399  10.099   4.678 -0.1208 -0.0429  0.0984
 2847POPC   C3A34555  13.183   9.990   5.079  0.1830  0.1595  0.3559
 2847POPC   C4A34556  12.935   9.691   5.313  0.1393  0.0939 -0.1489
 2847POPC   C1B34557  13.450  10.894   4.571  0.0788 -0.1868 -0.0928
 2847POPC   C2B34558  13.499  10.861   5.085 -0.2791 -0.2301  0.1537
 2847POPC   C3B34559  13.722  10.819   5.518 -0.1782 -0.0735 -0.1084
 2847POPC   C4B34560  13.891  11.002   5.974  0.0389  0.0163 -0.0236
 2848POPC   NC334561  14.559   4.337   4.374  0.0972  0.1005 -0.1230
 2848POPC   PO434562  14.566   3.962   4.284 -0.0125  0.3044 -0.0641
 2848POPC   GL134563  14.770   3.852   4.670  0.3249  0.5235  0.1003
 2848POPC   GL234564  14.639   4.003   4.851 -0.0172  0.0638 -0.0603
 2848POPC   C1A34565  14.852   3.547   5.045  0.0296 -0.0325 -0.1351
 2848POPC   D2A34566  14.846   3.448   5.483 -0.1484  0.0154  0.0626
 2848POPC   C3A34567  15.205   3.577   5.767 -0.0001  0.0706 -0.1446
 2848POPC   C4A34568  15.616   3.514   6.046  0.3624 -0.0994 -0.0364
 2848POPC   C1B34569  14.719   3.968   5.335 -0.1274  0.1053 -0.0266
 2848POPC   C2B34570  14.771   3.865   5.749 -0.2063 -0.1410 -0.0977
 2848POPC   C3B34571  14.774   3.947   6.208  0.0587  0.0156  0.1042
 2848POPC   C4B34572  14.937   3.737   6.581 -0.1610  0.0285  0.2189
 2849POPC   NC334573  10.808  29.167   3.894  0.2827 -0.2025  0.1581
 2849POPC   PO434574  10.511  29.215   4.148  0.0518 -0.0370  0.3341
 2849POPC   GL134575  10.408  29.350   4.518 -0.1120  0.0509 -0.4096
 2849POPC   GL234576  10.127  29.347   4.475 -0.0020  0.2379 -0.1357
 2849POPC   C1A34577  10.298  29.680   4.781  0.3487 -0.0786  0.0886
 2849POPC   D2A34578  10.032  29.908   5.065 -0.0415 -0.2901 -0.0930
 2849POPC   C3A34579   9.815  30.222   5.349 -0.2350 -0.1373  0.2072
 2849POPC   C4A34580   9.553  30.513   5.660 -0.0929  0.2220 -0.0161
 2849POPC   C1B34581   9.996  29.350   4.948  0.0093 -0.0589 -0.0627
 2849POPC   C2B34582   9.848  29.460   5.393  0.0747  0.0930 -0.0623
 2849POPC   C3B34583  10.085  29.239   5.757 -0.1038 -0.1439 -0.0164
 2849POPC   C4B34584  10.050  29.096   6.218  0.2165 -0.2536 -0.3391
 2850POPC   NC334585   7.787   5.465   3.877  0.3348  0.0407 -0.1540
 2850POPC   PO434586   7.933   5.126   3.720 -0.1553 -0.2791  0.0193
 2850POPC   GL134587   8.046   5.053   4.047 -0.1030 -0.1515 -0.0757
 2850POPC   GL234588   7.836   5.092   4.206 -0.2141 -0.3777 -0.1884
 2850POPC   C1A34589   8.183   4.606   4.254  0.0686 -0.0893 -0.0015
 2850POPC   D2A34590   8.128   4.124   4.343  0.2273 -0.1136  0.2032
 2850POPC   C3A34591   8.118   3.927   4.773 -0.0153  0.2333  0.2679
 2850POPC   C4A34592   8.250   3.883   5.210 -0.0916 -0.0232  0.1595
 2850POPC   C1B34593   7.647   5.380   4.518  0.1748  0.0328 -0.3097
 2850POPC   C2B34594   7.680   5.472   4.979  0.0007  0.1577 -0.0046
 2850POPC   C3B34595   7.563   5.605   5.388  0.1453  0.2199  0.1671
 2850POPC   C4B34596   7.362   5.421   5.759 -0.2111 -0.1780 -0.0892
 2851POPC   NC334597  14.643  14.751   3.790 -0.2954  0.0306 -0.1822
 2851POPC   PO434598  14.571  15.157   3.770  0.0673 -0.0045  0.0816
 2851POPC   GL134599  14.471  15.319   4.046 -0.3822 -0.0353  0.1131
 2851POPC   GL234600  14.715  15.554   4.050  0.1745  0.2052  0.3484
 2851POPC   C1A34601  14.311  15.695   4.327 -0.1489 -0.1168 -0.0733
 2851POPC   D2A34602  14.212  15.925   4.766  0.3374  0.0638  0.0689
 2851POPC   C3A34603  14.062  15.789   5.192 -0.1074 -0.1823  0.1791
 2851POPC   C4A34604  13.806  15.628   5.518 -0.1672 -0.1561 -0.0436
 2851POPC   C1B34605  14.678  15.351   4.430  0.1111 -0.1008  0.0785
 2851POPC   C2B34606  14.376  15.483   4.798 -0.0430  0.3009  0.1142
 2851POPC   C3B34607  13.950  15.341   5.042  0.1097  0.0681 -0.2918
 2851POPC   C4B34608  13.453  15.273   5.144  0.0148  0.3573 -0.1900
 2852POPC   NC334609   6.738  26.947   3.939 -0.1535 -0.0078 -0.0277
 2852POPC   PO434610   6.899  26.580   4.020  0.4335 -0.1374 -0.1550
 2852POPC   GL134611   6.716  26.676   4.363 -0.1336  0.1253  0.0896
 2852POPC   GL234612   6.881  26.840   4.520  0.1264  0.0378  0.1920
 2852POPC   C1A34613   6.462  26.553   4.716 -0.1182 -0.0639  0.1798
 2852POPC   D2A34614   6.324  26.667   5.138  0.0547  0.1000 -0.1529
 2852POPC   C3A34615   5.996  26.691   5.506 -0.0246 -0.3054 -0.0544
 2852POPC   C4A34616   5.879  26.804   5.942  0.2887  0.0564 -0.0552
 2852POPC   C1B34617   6.989  26.558   4.842 -0.4202 -0.1595  0.2537
 2852POPC   C2B34618   6.782  26.470   5.200 -0.1290  0.1059  0.0635
 2852POPC   C3B34619   6.628  26.572   5.588  0.2059  0.1280 -0.0620
 2852POPC   C4B34620   6.338  26.864   5.901  0.1746 -0.1967  0.2042
 2853POPC   NC334621   8.368  26.849   3.446 -0.2624  0.0109 -0.0100
 2853POPC   PO434622   8.478  26.625   3.769 -0.1381 -0.0393  0.1907
 2853POPC   GL134623   8.427  26.684   4.136  0.1078 -0.1805 -0.0603
 2853POPC   GL234624   8.414  26.472   4.291  0.0099 -0.1204 -0.1887
 2853POPC   C1A34625   8.639  26.915   4.446 -0.2879  0.0600 -0.1124
 2853POPC   D2A34626   8.611  27.036   4.863 -0.1114 -0.3169  0.0741
 2853POPC   C3A34627   8.247  27.265   4.990  0.0841  0.2794  0.0360
 2853POPC   C4A34628   7.835  27.440   5.186  0.0644  0.2450 -0.0160
 2853POPC   C1B34629   8.321  26.329   4.703  0.1170  0.3033 -0.2064
 2853POPC   C2B34630   8.192  26.504   5.092 -0.2361 -0.1779  0.1495
 2853POPC   C3B34631   8.012  26.611   5.513 -0.0316  0.3352  0.0023
 2853POPC   C4B34632   7.686  26.670   5.827 -0.1574  0.2573  0.0543
 2854POPC   NC334633  14.691   8.748   3.745 -0.0820 -0.2608 -0.3077
 2854POPC   PO434634  14.287   8.790   3.755 -0.6114  0.3783 -0.2898
 2854POPC   GL134635  14.406   8.849   4.164  0.0362  0.0989  0.1058
 2854POPC   GL234636  14.233   8.999   4.289  0.0316 -0.4404 -0.3186
 2854POPC   C1A34637  14.419   8.496   4.447 -0.3475  0.2027  0.0936
 2854POPC   D2A34638  14.382   8.294   4.909 -0.0083  0.0962 -0.2870
 2854POPC   C3A34639  14.270   8.105   5.341  0.0384 -0.0118 -0.1361
 2854POPC   C4A34640  14.199   7.785   5.648  0.0789 -0.0713 -0.0773
 2854POPC   C1B34641  14.346   8.950   4.734 -0.3858 -0.0372  0.1125
 2854POPC   C2B34642  14.504   8.823   5.155  0.1689  0.1497 -0.2807
 2854POPC   C3B34643  14.492   8.575   5.529 -0.1718  0.2207 -0.3351
 2854POPC   C4B34644  14.433   8.655   5.977 -0.4250 -0.4986  0.1639
 2855POPC   NC334645   8.195   5.423   3.398 -0.1862  0.1472 -0.1282
 2855POPC   PO434646   8.350   5.418   3.768 -0.2628 -0.2514 -0.1524
 2855POPC   GL134647   8.415   5.531   4.138 -0.0416 -0.0672 -0.0916
 2855POPC   GL234648   8.377   5.269   4.349 -0.2038 -0.3226  0.0072
 2855POPC   C1A34649   8.537   5.848   4.502  0.3022  0.1029 -0.0268
 2855POPC   D2A34650   8.551   5.745   4.900 -0.0606  0.1310  0.1070
 2855POPC   C3A34651   8.286   5.702   5.304 -0.0462  0.3065 -0.2443
 2855POPC   C4A34652   7.969   5.672   5.651  0.0973 -0.0680  0.0303
 2855POPC   C1B34653   8.189   4.989   4.610  0.0765  0.0785 -0.1310
 2855POPC   C2B34654   7.984   4.625   4.736 -0.2690  0.1648  0.0026
 2855POPC   C3B34655   8.055   4.346   5.101 -0.1616 -0.2204 -0.4494
 2855POPC   C4B34656   8.539   4.249   5.136 -0.2752  0.0204 -0.2470
 2856POPC   NC334657   5.174  25.637   4.240 -0.1610  0.2140  0.0201
 2856POPC   PO434658   5.038  26.005   4.142  0.2431  0.0047  0.0110
 2856POPC   GL134659   4.835  26.016   4.451 -0.1893 -0.0398 -0.0982
 2856POPC   GL234660   4.586  26.173   4.577 -0.0101 -0.0681  0.0634
 2856POPC   C1A34661   4.991  25.719   4.788 -0.1897  0.0860 -0.1694
 2856POPC   D2A34662   4.924  25.595   5.229 -0.1490 -0.1726  0.1667
 2856POPC   C3A34663   4.847  25.897   5.629 -0.4231  0.0090 -0.0174
 2856POPC   C4A34664   4.682  26.123   5.992 -0.3619  0.1394 -0.2486
 2856POPC   C1B34665   4.869  26.455   4.781  0.3364  0.0156  0.0209
 2856POPC   C2B34666   4.826  26.714   5.134  0.0247  0.1762 -0.2706
 2856POPC   C3B34667   4.791  26.877   5.569 -0.0147  0.2413  0.0507
 2856POPC   C4B34668   4.666  27.288   5.808 -0.1614  0.1409  0.0961
 2857POPC   NC334669   2.302   3.639   3.515 -0.1112  0.2445  0.2193
 2857POPC   PO434670   2.509   3.315   3.576 -0.1452  0.2801 -0.0969
 2857POPC   GL134671   2.409   3.097   3.906  0.0407 -0.1903 -0.2309
 2857POPC   GL234672   2.423   2.865   3.872 -0.1621 -0.0645  0.0820
 2857POPC   C1A34673   2.452   3.260   4.338  0.2459 -0.1486  0.2182
 2857POPC   D2A34674   2.109   3.586   4.489  0.0893 -0.0659  0.1090
 2857POPC   C3A34675   2.058   3.488   4.937  0.1303  0.2322  0.0582
 2857POPC   C4A34676   2.244   3.358   5.317  0.0611 -0.1072 -0.1792
 2857POPC   C1B34677   2.105   2.855   4.246  0.2136  0.1779 -0.0886
 2857POPC   C2B34678   1.998   3.047   4.641 -0.0849 -0.0577  0.0144
 2857POPC   C3B34679   1.820   3.082   5.035 -0.0907 -0.1529  0.1329
 2857POPC   C4B34680   1.911   3.005   5.523  0.1772 -0.0343 -0.0727
 2858POPC   NC334681  12.592   6.831   3.958  0.0482 -0.0576 -0.0263
 2858POPC   PO434682  12.804   6.481   4.000 -0.0337  0.0800 -0.1018
 2858POPC   GL134683  12.904   6.373   4.330 -0.1524 -0.1632  0.4711
 2858POPC   GL234684  13.076   6.086   4.344  0.0406 -0.2286 -0.0274
 2858POPC   C1A34685  12.915   6.450   4.798  0.2251 -0.1648 -0.4571
 2858POPC   D2A34686  12.835   6.599   5.214  0.2743 -0.3036 -0.0575
 2858POPC   C3A34687  13.031   6.918   5.506 -0.3159  0.1833  0.0643
 2858POPC   C4A34688  12.909   7.097   5.945 -0.3172 -0.2336 -0.1706
 2858POPC   C1B34689  12.783   5.927   4.673 -0.2118  0.0588 -0.0422
 2858POPC   C2B34690  12.609   6.096   5.046  0.1363  0.1118 -0.2916
 2858POPC   C3B34691  12.386   6.144   5.500 -0.2171  0.0675 -0.0061
 2858POPC   C4B34692  12.240   6.439   5.857  0.0194  0.0825  0.2702
 2859POPC   NC334693   4.725   0.042   3.284 -0.0702  0.0323 -0.0543
 2859POPC   PO434694   5.076   0.089   3.429  0.3225  0.0318 -0.1346
 2859POPC   GL134695   5.089  -0.162   3.711  0.4004  0.2990 -0.0111
 2859POPC   GL234696   4.806  -0.292   3.690 -0.0578 -0.0203  0.2185
 2859POPC   C1A34697   5.171  -0.209   4.193 -0.0014 -0.3427  0.0728
 2859POPC   D2A34698   5.527  -0.257   4.482 -0.0079 -0.0023 -0.0437
 2859POPC   C3A34699   5.487  -0.505   4.866  0.2760 -0.0670  0.0018
 2859POPC   C4A34700   5.411  -0.803   5.212 -0.0227 -0.0115  0.0265
 2859POPC   C1B34701   5.156  -0.600   3.681  0.0273 -0.0951 -0.2049
 2859POPC   C2B34702   5.581  -0.850   3.729 -0.0891 -0.1704  0.0396
 2859POPC   C3B34703   5.646  -1.318   3.754  0.2885  0.0734 -0.2494
 2859POPC   C4B34704   5.611  -1.667   4.046  0.0009 -0.3767  0.1957
 2860POPC   NC334705   6.609  18.530   3.529 -0.0036 -0.0731  0.2273
 2860POPC   PO434706   6.657  18.152   3.393  0.1677 -0.2419  0.0159
 2860POPC   GL134707   6.883  18.025   3.802 -0.0178  0.0693 -0.3999
 2860POPC   GL234708   7.087  17.849   3.763 -0.1072 -0.3148  0.0069
 2860POPC   C1A34709   6.678  18.056   4.241  0.0707 -0.0256  0.1339
 2860POPC   D2A34710   6.549  18.372   4.616 -0.2118  0.0161  0.1310
 2860POPC   C3A34711   6.555  18.271   5.080 -0.1976 -0.1557 -0.3920
 2860POPC   C4A34712   6.481  17.830   5.323  0.0263 -0.1095  0.1554
 2860POPC   C1B34713   7.157  18.000   4.201 -0.1672 -0.0807  0.0969
 2860POPC   C2B34714   7.131  18.028   4.691  0.2624 -0.2209 -0.0424
 2860POPC   C3B34715   6.979  17.862   5.092  0.0192 -0.2313 -0.0515
 2860POPC   C4B34716   6.919  17.515   5.448 -0.0992 -0.0569  0.0169
 2861POPC   NC334717   3.592   8.371   3.455  0.1112  0.1908  0.1603
 2861POPC   PO434718   3.787   8.456   3.772 -0.0441 -0.0342 -0.0541
 2861POPC   GL134719   3.895   8.339   4.139  0.2092  0.1519  0.1900
 2861POPC   GL234720   3.712   8.193   4.242 -0.0286 -0.1098  0.1204
 2861POPC   C1A34721   4.137   8.237   4.520  0.1629 -0.1738  0.1338
 2861POPC   D2A34722   4.194   8.253   4.948  0.0683 -0.2693 -0.1590
 2861POPC   C3A34723   4.213   8.334   5.365 -0.1711 -0.0785 -0.0021
 2861POPC   C4A34724   4.491   8.046   5.603  0.3401 -0.0573 -0.0515
 2861POPC   C1B34725   3.660   8.155   4.690  0.0969  0.1398 -0.2580
 2861POPC   C2B34726   3.496   8.032   5.131 -0.2331 -0.1620  0.1239
 2861POPC   C3B34727   3.349   7.852   5.493 -0.3134  0.0876  0.2200
 2861POPC   C4B34728   3.427   7.535   5.792  0.0665  0.0889 -0.0811
 2862POPC   NC334729  12.141  18.528   3.663 -0.3803 -0.1353 -0.2391
 2862POPC   PO434730  11.747  18.639   3.570  0.2871  0.2597 -0.1022
 2862POPC   GL134731  11.786  18.647   4.012  0.2992  0.2230 -0.0308
 2862POPC   GL234732  11.835  18.880   4.096  0.0464 -0.1446  0.2968
 2862POPC   C1A34733  11.598  18.575   4.464  0.0109  0.0197  0.0749
 2862POPC   D2A34734  11.213  18.405   4.522 -0.1140  0.0361 -0.0245
 2862POPC   C3A34735  11.163  18.277   5.002 -0.2239  0.1963  0.0360
 2862POPC   C4A34736  11.413  18.249   5.415  0.2287 -0.2607 -0.0076
 2862POPC   C1B34737  11.735  19.074   4.505  0.0139 -0.2321 -0.2353
 2862POPC   C2B34738  11.796  19.128   4.947 -0.0929  0.0665 -0.0351
 2862POPC   C3B34739  12.071  19.071   5.335  0.1030 -0.3294 -0.1115
 2862POPC   C4B34740  12.020  19.182   5.761  0.0036 -0.0462 -0.0757
 2863POPC   NC334741  12.533  27.287   3.377  0.1445  0.1511  0.0161
 2863POPC   PO434742  12.175  27.357   3.511  0.0245  0.2419 -0.2339
 2863POPC   GL134743  12.483  27.421   3.818  0.2582  0.2017 -0.0242
 2863POPC   GL234744  12.402  27.648   3.950 -0.0537  0.0221  0.4092
 2863POPC   C1A34745  12.629  27.176   4.167 -0.0344  0.0451 -0.0261
 2863POPC   D2A34746  12.896  27.268   4.564 -0.2240  0.4692  0.0939
 2863POPC   C3A34747  13.027  27.449   4.941  0.1230  0.0192  0.1356
 2863POPC   C4A34748  13.194  27.402   5.348  0.3227 -0.0007 -0.1937
 2863POPC   C1B34749  12.770  27.669   4.182 -0.0599  0.4456 -0.0878
 2863POPC   C2B34750  13.179  27.797   4.349 -0.1916  0.1811 -0.1340
 2863POPC   C3B34751  13.598  27.872   4.401  0.1828 -0.0316 -0.0082
 2863POPC   C4B34752  13.801  28.174   4.609 -0.5055 -0.0508  0.1553
 2864POPC   NC334753   6.778  26.020   4.008  0.3815 -0.1835  0.0110
 2864POPC   PO434754   6.396  25.905   3.880  0.1572  0.0583  0.1820
 2864POPC   GL134755   6.554  25.699   4.272  0.5459  0.1540 -0.0707
 2864POPC   GL234756   6.408  25.914   4.522  0.1884  0.0242 -0.0352
 2864POPC   C1A34757   6.971  25.783   4.491  0.2505  0.0981  0.2814
 2864POPC   D2A34758   7.278  25.737   4.884  0.0354  0.2965  0.5121
 2864POPC   C3A34759   7.700  25.857   4.904 -0.1855  0.1950  0.0413
 2864POPC   C4A34760   8.141  25.940   5.026 -0.0460 -0.0755 -0.1084
 2864POPC   C1B34761   6.296  26.110   4.916 -0.1451  0.2201 -0.1044
 2864POPC   C2B34762   6.381  26.155   5.393 -0.0729 -0.3016  0.1022
 2864POPC   C3B34763   6.258  26.319   5.788  0.2074  0.0667  0.2142
 2864POPC   C4B34764   6.451  26.468   6.206 -0.0784  0.0612 -0.0848
 2865POPC   NC334765   6.006  19.183   3.485  0.3283  0.1388 -0.3173
 2865POPC   PO434766   6.340  19.345   3.649 -0.0710  0.2390  0.3356
 2865POPC   GL134767   6.363  18.830   3.739  0.1027 -0.1089  0.3514
 2865POPC   GL234768   6.111  18.853   3.915 -0.2619 -0.2269  0.2722
 2865POPC   C1A34769   6.431  18.486   3.992  0.2507  0.0349 -0.0258
 2865POPC   D2A34770   6.055  18.382   4.255  0.3025  0.2166  0.2482
 2865POPC   C3A34771   6.233  18.000   4.491  0.0156 -0.2398 -0.1050
 2865POPC   C4A34772   6.637  17.846   4.708 -0.0269  0.0468  0.3288
 2865POPC   C1B34773   6.180  18.918   4.373 -0.0831  0.3345 -0.2915
 2865POPC   C2B34774   6.148  18.650   4.759  0.0785 -0.2152  0.2546
 2865POPC   C3B34775   6.084  18.238   4.881  0.1105  0.0212 -0.3288
 2865POPC   C4B34776   6.077  17.788   5.063 -0.5259  0.2550 -0.1169
 2866POPC   NC334777  12.490  11.513   3.735 -0.5131 -0.0007  0.0040
 2866POPC   PO434778  12.820  11.344   3.845  0.1650  0.0198 -0.1034
 2866POPC   GL134779  12.905  11.303   4.347  0.1929 -0.2851  0.4829
 2866POPC   GL234780  12.916  11.005   4.277 -0.0272 -0.1254 -0.0214
 2866POPC   C1A34781  13.075  11.166   4.761 -0.0293 -0.2463  0.0754
 2866POPC   D2A34782  12.881  11.187   5.186  0.4593 -0.1183  0.5589
 2866POPC   C3A34783  12.947  10.793   5.391  0.2524 -0.1561 -0.0257
 2866POPC   C4A34784  12.657  10.582   5.649  0.1572 -0.0232 -0.2222
 2866POPC   C1B34785  12.580  11.096   4.628  0.0646  0.0306 -0.4823
 2866POPC   C2B34786  12.239  11.316   4.854 -0.1497  0.3221  0.1791
 2866POPC   C3B34787  12.144  11.303   5.301 -0.2628  0.1553 -0.3184
 2866POPC   C4B34788  11.801  11.607   5.530 -0.1404  0.2874 -0.0815
 2867POPC   NC334789  12.427  21.663   3.056  0.2321  0.1115 -0.1743
 2867POPC   PO434790  12.274  21.965   3.318  0.2538 -0.0865  0.2238
 2867POPC   GL134791  12.351  21.649   3.567  0.3324 -0.0369  0.0311
 2867POPC   GL234792  12.635  21.588   3.557 -0.3031 -0.2539  0.1226
 2867POPC   C1A34793  12.060  21.563   3.938  0.1734 -0.2678  0.0004
 2867POPC   D2A34794  12.060  21.358   4.344 -0.2051  0.1374  0.0814
 2867POPC   C3A34795  11.852  21.176   4.763 -0.2485 -0.4513 -0.0304
 2867POPC   C4A34796  11.659  20.976   5.185  0.2198  0.2634  0.0103
 2867POPC   C1B34797  12.638  21.164   3.752 -0.0925 -0.2023  0.0683
 2867POPC   C2B34798  12.291  21.055   4.019 -0.0628 -0.3027  0.0931
 2867POPC   C3B34799  12.233  20.880   4.449 -0.1945 -0.0054 -0.0992
 2867POPC   C4B34800  12.319  20.796   4.896 -0.0204  0.0106 -0.1818
 2868POPC   NC334801   3.831  15.090   3.394 -0.1894 -0.1911 -0.2387
 2868POPC   PO434802   4.029  15.462   3.547 -0.4176 -0.0104 -0.0745
 2868POPC   GL134803   3.938  15.638   3.976 -0.2417 -0.0141 -0.1301
 2868POPC   GL234804   3.654  15.788   3.854 -0.0115  0.0073 -0.4183
 2868POPC   C1A34805   4.098  15.547   4.393  0.0913  0.0293  0.1627
 2868POPC   D2A34806   3.979  15.525   4.826 -0.1600  0.1619  0.4599
 2868POPC   C3A34807   3.728  15.925   4.921  0.1790 -0.0917 -0.0273
 2868POPC   C4A34808   3.478  16.263   5.136  0.0573 -0.2259 -0.0450
 2868POPC   C1B34809   3.623  15.802   4.324 -0.0933  0.0246 -0.1234
 2868POPC   C2B34810   3.446  15.528   4.648 -0.1091 -0.5580  0.0709
 2868POPC   C3B34811   3.357  15.524   5.086 -0.1033  0.0548  0.0364
 2868POPC   C4B34812   3.158  15.403   5.449 -0.1801 -0.0032 -0.0025
 2869POPC   NC334813   9.067   8.598   3.371  0.0900  0.1032 -0.0367
 2869POPC   PO434814   9.444   8.694   3.252 -0.2608 -0.0100 -0.0454
 2869POPC   GL134815   9.501   8.589   3.624 -0.0283  0.0192 -0.2571
 2869POPC   GL234816   9.340   8.490   3.789  0.1081 -0.1324 -0.1000
 2869POPC   C1A34817   9.733   8.766   3.938 -0.1792 -0.0343  0.1181
 2869POPC   D2A34818   9.704   8.901   4.367 -0.0633  0.1643 -0.1436
 2869POPC   C3A34819   9.467   8.887   4.803  0.0443  0.0755  0.1149
 2869POPC   C4A34820   9.277   8.978   5.209  0.1913 -0.0148 -0.1844
 2869POPC   C1B34821   9.554   8.376   4.178  0.0496  0.1341 -0.4468
 2869POPC   C2B34822   9.458   8.311   4.609 -0.2475  0.0120 -0.0299
 2869POPC   C3B34823   9.317   8.466   5.036 -0.1410  0.1309  0.0115
 2869POPC   C4B34824   9.452   8.451   5.487  0.0732  0.0353 -0.1307
 2870POPC   NC334825   0.832  12.645   3.919 -0.0744 -0.2898  0.1699
 2870POPC   PO434826   1.184  12.502   3.773  0.2396  0.1227 -0.0450
 2870POPC   GL134827   1.269  12.599   4.197 -0.1161  0.0227 -0.0121
 2870POPC   GL234828   1.208  12.881   4.256  0.0356  0.0580 -0.1815
 2870POPC   C1A34829   1.528  12.563   4.584 -0.0119  0.1208  0.2868
 2870POPC   D2A34830   1.725  12.429   4.951  0.1542 -0.0728  0.0742
 2870POPC   C3A34831   1.460  12.559   5.320 -0.5109 -0.1714 -0.0599
 2870POPC   C4A34832   1.258  12.844   5.650  0.0109 -0.4362 -0.2472
 2870POPC   C1B34833   0.992  12.842   4.666 -0.2184 -0.1337  0.0631
 2870POPC   C2B34834   1.139  12.858   5.104 -0.3459 -0.0939  0.0206
 2870POPC   C3B34835   1.186  13.266   5.272  0.0385  0.0343  0.0830
 2870POPC   C4B34836   1.006  13.635   5.599  0.4658  0.3506 -0.0180
 2871POPC   NC334837  14.059   4.666   4.199 -0.0784 -0.2130  0.1446
 2871POPC   PO434838  14.414   4.806   4.203  0.1576 -0.0242  0.1192
 2871POPC   GL134839  14.379   4.906   4.564 -0.0932  0.1971 -0.0552
 2871POPC   GL234840  14.135   5.133   4.478  0.0439  0.1617 -0.0909
 2871POPC   C1A34841  14.283   4.816   5.020  0.2735 -0.2883  0.0314
 2871POPC   D2A34842  14.416   4.906   5.467 -0.2242 -0.2512  0.2022
 2871POPC   C3A34843  14.496   5.003   5.855 -0.0357 -0.2423  0.1199
 2871POPC   C4A34844  14.736   5.358   6.082 -0.3419 -0.2400  0.1898
 2871POPC   C1B34845  14.011   5.341   4.893  0.3603 -0.1576  0.0616
 2871POPC   C2B34846  13.998   5.230   5.336  0.0964  0.0569  0.0710
 2871POPC   C3B34847  13.981   5.055   5.741  0.2335  0.2425  0.0032
 2871POPC   C4B34848  14.065   5.008   6.143 -0.0122  0.1095  0.1275
 2872POPC   NC334849   1.844  18.258   3.218  0.1587  0.2558 -0.1458
 2872POPC   PO434850   1.923  18.106   3.572  0.1603 -0.0300  0.2050
 2872POPC   GL134851   2.004  18.218   3.938 -0.2125  0.1005  0.0141
 2872POPC   GL234852   2.044  18.494   3.933  0.3140  0.1680  0.0590
 2872POPC   C1A34853   2.306  17.993   4.238 -0.0753  0.0109 -0.3486
 2872POPC   D2A34854   2.624  18.007   4.547 -0.2289 -0.0268 -0.0574
 2872POPC   C3A34855   2.972  17.719   4.708  0.2139  0.0831 -0.1970
 2872POPC   C4A34856   3.341  17.439   4.647  0.1399 -0.0365  0.0748
 2872POPC   C1B34857   1.827  18.612   4.360  0.0214 -0.1729 -0.3177
 2872POPC   C2B34858   1.893  18.518   4.808  0.0958  0.2269  0.0332
 2872POPC   C3B34859   1.738  18.624   5.251  0.0175 -0.1289 -0.0274
 2872POPC   C4B34860   1.819  18.747   5.672 -0.0030  0.1181  0.0566
 2873POPC   NC334861   8.728  27.883   4.094 -0.0834  0.4008 -0.0029
 2873POPC   PO434862   8.404  28.063   4.095 -0.0075 -0.1977 -0.3908
 2873POPC   GL134863   8.302  27.756   4.371  0.3763 -0.0460  0.1264
 2873POPC   GL234864   8.498  27.845   4.556 -0.0617 -0.1585  0.1314
 2873POPC   C1A34865   7.963  27.829   4.712 -0.0472  0.0242 -0.0935
 2873POPC   D2A34866   7.935  28.095   5.110  0.1446  0.0044 -0.0631
 2873POPC   C3A34867   7.987  28.037   5.557  0.1092 -0.5040 -0.2870
 2873POPC   C4A34868   8.225  28.069   5.956  0.0772 -0.1548  0.0354
 2873POPC   C1B34869   8.341  27.750   4.949 -0.0683  0.2324 -0.0006
 2873POPC   C2B34870   8.268  27.579   5.394  0.3955  0.1582 -0.1356
 2873POPC   C3B34871   8.013  27.590   5.740 -0.1704  0.1039  0.3034
 2873POPC   C4B34872   7.791  27.305   6.006  0.0945 -0.1302  0.3266
 2874POPC   NC334873   1.030  21.347   3.806 -0.0697 -0.0191  0.2137
 2874POPC   PO434874   1.401  21.139   3.760  0.2324  0.0517  0.1277
 2874POPC   GL134875   1.364  21.336   4.121  0.0887  0.0813  0.0758
 2874POPC   GL234876   1.305  21.099   4.281  0.4154  0.0693  0.0707
 2874POPC   C1A34877   1.582  21.582   4.455  0.0850  0.1135  0.0395
 2874POPC   D2A34878   1.780  21.738   4.809  0.0634  0.3396 -0.0746
 2874POPC   C3A34879   1.930  21.626   5.230 -0.1332 -0.2700  0.2576
 2874POPC   C4A34880   1.817  21.526   5.678 -0.1374 -0.3224 -0.2469
 2874POPC   C1B34881   1.428  21.215   4.723 -0.1736 -0.0986  0.0346
 2874POPC   C2B34882   1.566  21.350   5.155  0.1549 -0.2513 -0.2637
 2874POPC   C3B34883   1.646  21.092   5.529 -0.0121  0.1591 -0.1026
 2874POPC   C4B34884   1.889  20.988   5.877  0.1739  0.0258 -0.3035
 2875POPC   NC334885   1.067  27.159   3.450  0.1195  0.0284  0.1773
 2875POPC   PO434886   0.803  27.469   3.566  0.0226  0.3197  0.4459
 2875POPC   GL134887   1.030  27.681   3.764 -0.3179 -0.7127  0.1271
 2875POPC   GL234888   1.135  27.454   4.000 -0.0858 -0.0699  0.2451
 2875POPC   C1A34889   0.932  27.893   4.173 -0.0892  0.2537 -0.1418
 2875POPC   D2A34890   1.068  27.979   4.601 -0.3185  0.0833  0.0578
 2875POPC   C3A34891   0.844  27.890   5.004 -0.0790  0.1064 -0.0213
 2875POPC   C4A34892   0.718  27.882   5.479 -0.1609 -0.1019  0.4038
 2875POPC   C1B34893   0.933  27.489   4.459  0.1032 -0.0345 -0.1601
 2875POPC   C2B34894   0.873  27.411   4.904  0.1137 -0.4503  0.0069
 2875POPC   C3B34895   0.689  27.068   5.128  0.1310 -0.1293 -0.0377
 2875POPC   C4B34896   0.719  26.657   5.296 -0.0566 -0.0148  0.0808
 2876POPC   NC334897   5.056  10.392   3.967  0.0259  0.0710 -0.0216
 2876POPC   PO434898   4.665  10.492   4.004  0.1040  0.1062  0.0359
 2876POPC   GL134899   4.714  10.637   4.307 -0.0562 -0.0489  0.2115
 2876POPC   GL234900   5.005  10.705   4.337  0.1234 -0.3547  0.1046
 2876POPC   C1A34901   4.708  11.122   4.366 -0.0060  0.1175  0.1391
 2876POPC   D2A34902   4.916  11.366   4.695 -0.3868 -0.0780 -0.1341
 2876POPC   C3A34903   4.902  11.141   5.088 -0.0728  0.0989 -0.0419
 2876POPC   C4A34904   5.116  11.097   5.494  0.0477 -0.1093 -0.0919
 2876POPC   C1B34905   4.895  10.772   4.786  0.0181 -0.1350  0.0675
 2876POPC   C2B34906   4.644  10.682   5.108 -0.1863  0.2345  0.1643
 2876POPC   C3B34907   4.621  11.024   5.453  0.0142 -0.1169 -0.0339
 2876POPC   C4B34908   4.688  11.349   5.800 -0.0547  0.0301 -0.0936
 2877POPC   NC334909   2.539  14.001   3.322  0.5918 -0.1578  0.1101
 2877POPC   PO434910   2.843  14.151   3.568 -0.2232 -0.0589 -0.0069
 2877POPC   GL134911   2.790  14.360   3.948  0.2579  0.2836  0.0950
 2877POPC   GL234912   3.069  14.446   3.928 -0.0601  0.2361 -0.0451
 2877POPC   C1A34913   2.868  14.644   4.352  0.3857 -0.0572 -0.0853
 2877POPC   D2A34914   3.116  15.009   4.527 -0.0798 -0.3080  0.2926
 2877POPC   C3A34915   3.158  15.111   4.977  0.0968  0.0957 -0.0511
 2877POPC   C4A34916   3.054  14.893   5.417  0.2248  0.0650 -0.2641
 2877POPC   C1B34917   3.303  14.301   4.266  0.0371 -0.0130  0.0114
 2877POPC   C2B34918   3.562  14.241   4.675  0.0335  0.0624 -0.0178
 2877POPC   C3B34919   3.721  14.090   5.050  0.2203 -0.1918 -0.0679
 2877POPC   C4B34920   3.782  13.745   5.362 -0.0025 -0.1958 -0.0631
 2878POPC   NC334921  11.540   1.135   3.762 -0.0634 -0.2264  0.1260
 2878POPC   PO434922  11.773   0.830   3.793 -0.0283 -0.1014 -0.1601
 2878POPC   GL134923  11.863   0.979   4.124  0.2720  0.0371 -0.0997
 2878POPC   GL234924  11.931   1.283   4.036  0.0516 -0.1854  0.1349
 2878POPC   C1A34925  11.915   0.820   4.538 -0.1169 -0.1338 -0.1643
 2878POPC   D2A34926  11.937   0.501   4.893  0.2010  0.0794 -0.2582
 2878POPC   C3A34927  12.220   0.604   5.277 -0.1380 -0.0445  0.0842
 2878POPC   C4A34928  12.154   0.470   5.744  0.0672  0.0037  0.2741
 2878POPC   C1B34929  11.915   1.339   4.502 -0.0113  0.0584 -0.0694
 2878POPC   C2B34930  11.823   1.375   5.004 -0.1593 -0.1652 -0.0430
 2878POPC   C3B34931  11.771   1.635   5.382 -0.2464 -0.0963 -0.0272
 2878POPC   C4B34932  11.575   1.733   5.776 -0.0697 -0.0133  0.0345
 2879POPC   NC334933   4.168  27.315   4.053  0.0166  0.0453 -0.1770
 2879POPC   PO434934   4.013  27.543   3.777 -0.0678 -0.0544  0.0739
 2879POPC   GL134935   3.838  27.704   4.091  0.1971 -0.0816 -0.3050
 2879POPC   GL234936   3.990  27.956   4.058 -0.1993 -0.1580 -0.1792
 2879POPC   C1A34937   3.805  27.609   4.495 -0.2382 -0.2532 -0.3573
 2879POPC   D2A34938   3.612  27.410   4.779  0.0867 -0.1266  0.0335
 2879POPC   C3A34939   3.790  27.400   5.204  0.1090  0.0936 -0.2131
 2879POPC   C4A34940   3.951  27.381   5.654  0.1322  0.0384 -0.0748
 2879POPC   C1B34941   4.237  28.108   4.416 -0.0381 -0.1552  0.0937
 2879POPC   C2B34942   4.217  28.281   4.803  0.0018  0.0052  0.0926
 2879POPC   C3B34943   4.124  28.602   5.130  0.1033  0.0806 -0.2625
 2879POPC   C4B34944   3.989  28.964   5.390  0.1011 -0.1115  0.0487
 2880POPC   NC334945  14.096  30.616   3.415 -0.2115  0.3775  0.0139
 2880POPC   PO434946  13.779  30.456   3.290  0.1251  0.1331 -0.0518
 2880POPC   GL134947  13.726  30.314   3.610  0.6178 -0.0269 -0.0280
 2880POPC   GL234948  13.491  30.145   3.652 -0.3108  0.0564 -0.4213
 2880POPC   C1A34949  13.762  30.282   4.063 -0.2746 -0.2149  0.1131
 2880POPC   D2A34950  14.114  30.400   4.317  0.0047 -0.2496 -0.0568
 2880POPC   C3A34951  14.122  30.540   4.739 -0.1344  0.2745  0.1033
 2880POPC   C4A34952  13.982  30.772   5.143  0.0646  0.0614 -0.3836
 2880POPC   C1B34953  13.792  29.825   3.814  0.0382  0.3047  0.1720
 2880POPC   C2B34954  13.946  29.450   3.992 -0.0111 -0.1302  0.1381
 2880POPC   C3B34955  14.245  29.083   4.112  0.1761 -0.2493  0.0532
 2880POPC   C4B34956  14.481  28.846   3.798  0.0122 -0.4671 -0.0862
 2881POPC   NC334957  11.205  11.270   3.787 -0.0169  0.1774 -0.2607
 2881POPC   PO434958  10.899  11.539   3.878 -0.1123  0.1229 -0.0273
 2881POPC   GL134959  10.598  11.376   4.079 -0.0789  0.0027  0.5418
 2881POPC   GL234960  10.492  11.476   4.297 -0.0763  0.0324 -0.0119
 2881POPC   C1A34961  10.132  11.341   4.046 -0.0080 -0.2681  0.3505
 2881POPC   D2A34962   9.837  11.166   4.360  0.1910 -0.1292 -0.1107
 2881POPC   C3A34963   9.945  10.970   4.743  0.2767 -0.0053 -0.1653
 2881POPC   C4A34964   9.832  10.901   5.196 -0.0873  0.1641  0.3340
 2881POPC   C1B34965  10.150  11.581   4.594  0.1534  0.1698  0.1209
 2881POPC   C2B34966   9.929  11.539   4.967 -0.2898  0.4723  0.2393
 2881POPC   C3B34967   9.681  11.345   5.330 -0.2321  0.3388  0.0248
 2881POPC   C4B34968   9.661  11.165   5.765  0.1699  0.1618 -0.0132
 2882POPC   NC334969   9.995   0.047   3.554 -0.0783 -0.1084  0.2825
 2882POPC   PO434970   9.716  -0.233   3.619  0.2070 -0.1618 -0.1425
 2882POPC   GL134971   9.533  -0.085   3.935 -0.1772 -0.1576 -0.1073
 2882POPC   GL234972   9.206  -0.048   3.925 -0.0492 -0.1056  0.2024
 2882POPC   C1A34973   9.429  -0.307   4.334  0.2467  0.2113  0.2200
 2882POPC   D2A34974   9.326  -0.399   4.774 -0.1576 -0.1510  0.2722
 2882POPC   C3A34975   9.125  -0.666   5.118 -0.3566  0.2212  0.0409
 2882POPC   C4A34976   8.725  -0.809   5.276  0.0105 -0.1392  0.0217
 2882POPC   C1B34977   9.118   0.116   4.343 -0.1966  0.5333  0.1613
 2882POPC   C2B34978   9.036   0.029   4.813  0.1280 -0.1791 -0.1368
 2882POPC   C3B34979   9.240  -0.134   5.180 -0.0392  0.2412 -0.3100
 2882POPC   C4B34980   9.362  -0.116   5.642 -0.1893  0.4155  0.1152
 2883POPC   NC334981   6.088  22.161   3.855  0.2610  0.1891 -0.1619
 2883POPC   PO434982   5.745  21.974   3.703  0.0033 -0.0535 -0.0688
 2883POPC   GL134983   5.746  21.965   4.105 -0.2758  0.1485  0.1900
 2883POPC   GL234984   5.884  22.135   4.309  0.0011  0.0936  0.2782
 2883POPC   C1A34985   5.516  21.912   4.590  0.0692 -0.0839  0.3842
 2883POPC   D2A34986   5.597  21.840   5.037 -0.2415 -0.1239 -0.0458
 2883POPC   C3A34987   5.890  22.103   5.271  0.0974 -0.1230 -0.1038
 2883POPC   C4A34988   5.837  22.373   5.645 -0.1747 -0.1513  0.0018
 2883POPC   C1B34989   6.262  22.192   4.527  0.0389  0.0704 -0.1395
 2883POPC   C2B34990   6.658  22.185   4.787 -0.1018 -0.0831 -0.0196
 2883POPC   C3B34991   6.787  21.869   5.029 -0.0921 -0.0351 -0.2853
 2883POPC   C4B34992   7.009  21.557   5.360 -0.0305  0.1748  0.2641
 2884POPC   NC334993   7.165   6.527   3.495 -0.0981  0.1315  0.5269
 2884POPC   PO434994   7.239   6.309   3.795  0.1572 -0.0895 -0.0708
 2884POPC   GL134995   7.092   6.048   4.034 -0.2518 -0.1995  0.1279
 2884POPC   GL234996   6.832   6.099   3.972 -0.1702 -0.0034 -0.0492
 2884POPC   C1A34997   7.013   5.819   4.409  0.2827  0.2944 -0.2314
 2884POPC   D2A34998   6.804   6.072   4.816 -0.0469  0.0563 -0.0953
 2884POPC   C3A34999   7.156   6.294   5.065 -0.0766 -0.1625 -0.2978
 2884POPC   C4A35000   7.605   6.383   4.837 -0.1508 -0.1885  0.2470
 2884POPC   C1B35001   6.628   6.281   4.350 -0.2237  0.1106  0.2583
 2884POPC   C2B35002   6.338   6.214   4.702 -0.2483  0.2337  0.0123
 2884POPC   C3B35003   6.278   6.181   5.114  0.0842  0.1651 -0.2513
 2884POPC   C4B35004   6.061   6.239   5.509  0.1205  0.1793  0.1252
 2885POPC   NC335005   4.351  19.947   3.569  0.0031  0.0582  0.1601
 2885POPC   PO435006   4.492  19.591   3.494  0.1884 -0.2918 -0.1530
 2885POPC   GL135007   4.623  19.451   3.782 -0.0681 -0.2360 -0.1787
 2885POPC   GL235008   4.487  19.207   3.828 -0.1083 -0.1551 -0.0262
 2885POPC   C1A35009   4.909  19.143   4.070 -0.0672  0.1607 -0.0053
 2885POPC   D2A35010   5.195  18.764   4.053 -0.2174 -0.1647  0.1709
 2885POPC   C3A35011   5.222  18.428   3.762 -0.2184  0.2400 -0.1588
 2885POPC   C4A35012   5.111  17.966   3.837  0.1722 -0.1257 -0.0670
 2885POPC   C1B35013   4.514  19.339   4.262  0.1797 -0.1231 -0.2117
 2885POPC   C2B35014   4.710  19.286   4.695  0.0501 -0.0361  0.3559
 2885POPC   C3B35015   4.971  19.548   4.981 -0.0574  0.1678 -0.1151
 2885POPC   C4B35016   5.253  19.448   5.331  0.0468 -0.0865 -0.2206
 2886POPC   NC335017   5.557   0.139   3.147 -0.3719 -0.1095  0.1124
 2886POPC   PO435018   5.627   0.436   3.382  0.0782  0.1001  0.1490
 2886POPC   GL135019   5.761   0.268   3.737  0.0917  0.2041 -0.3011
 2886POPC   GL235020   5.541   0.096   3.714 -0.0112  0.0505  0.1771
 2886POPC   C1A35021   5.679   0.237   4.193 -0.0784  0.2061 -0.1697
 2886POPC   D2A35022   5.772   0.253   4.682 -0.0647  0.4591 -0.2420
 2886POPC   C3A35023   5.856  -0.153   4.988 -0.0998 -0.0232 -0.0780
 2886POPC   C4A35024   6.184  -0.361   5.240 -0.1748 -0.1780  0.1213
 2886POPC   C1B35025   5.525  -0.310   3.882 -0.0850  0.0304  0.2191
 2886POPC   C2B35026   5.401  -0.629   4.143 -0.1405  0.1756 -0.2462
 2886POPC   C3B35027   5.156  -0.767   4.499 -0.1589  0.2725 -0.2782
 2886POPC   C4B35028   4.962  -0.904   4.909 -0.3029  0.2901  0.0248
 2887POPC   NC335029   6.256  26.877   4.298 -0.0178 -0.1197  0.0525
 2887POPC   PO435030   6.217  27.034   3.937 -0.1055  0.1994 -0.0986
 2887POPC   GL135031   6.280  27.410   4.141  0.0390 -0.1303  0.0864
 2887POPC   GL235032   6.558  27.351   4.150 -0.0448 -0.1508  0.2007
 2887POPC   C1A35033   6.340  27.657   4.535  0.0326  0.1486 -0.1526
 2887POPC   D2A35034   6.250  27.879   4.963  0.0737 -0.0731 -0.2808
 2887POPC   C3A35035   6.132  27.767   5.391 -0.0091  0.1619 -0.2131
 2887POPC   C4A35036   5.878  27.809   5.795 -0.4000  0.1515 -0.0827
 2887POPC   C1B35037   6.654  27.268   4.617 -0.1403 -0.3310 -0.1765
 2887POPC   C2B35038   6.471  27.444   4.977 -0.1388  0.1024 -0.1044
 2887POPC   C3B35039   6.602  27.670   5.389 -0.3329 -0.1585  0.2845
 2887POPC   C4B35040   6.644  27.991   5.646 -0.0854  0.3393  0.0059
 2888POPC   NC335041  15.028  18.166   4.035 -0.2967 -0.0413 -0.2444
 2888POPC   PO435042  15.054  17.809   4.011  0.0005 -0.3047  0.1000
 2888POPC   GL135043  14.980  17.881   4.413  0.0964 -0.3967  0.0313
 2888POPC   GL235044  14.900  17.631   4.453  0.0702  0.0721 -0.2146
 2888POPC   C1A35045  14.835  18.004   4.848  0.2323 -0.0020  0.3649
 2888POPC   D2A35046  14.759  17.769   5.209 -0.0474  0.1115  0.0691
 2888POPC   C3A35047  14.383  17.788   5.485 -0.0357  0.2905  0.2196
 2888POPC   C4A35048  14.051  17.884   5.754 -0.0316  0.1511  0.1152
 2888POPC   C1B35049  14.615  17.503   4.754  0.0893 -0.0296  0.1960
 2888POPC   C2B35050  14.549  17.334   5.200 -0.0712  0.1340  0.0642
 2888POPC   C3B35051  14.437  17.255   5.686  0.1185  0.0034  0.2368
 2888POPC   C4B35052  14.669  17.060   5.994  0.0212 -0.0488 -0.2488
 2889POPC   NC335053   2.599   7.554   3.841 -0.3809 -0.0536 -0.1552
 2889POPC   PO435054   2.897   7.801   3.695 -0.2003 -0.3569 -0.0037
 2889POPC   GL135055   2.986   8.003   4.110  0.1314 -0.1200 -0.1598
 2889POPC   GL235056   2.830   7.824   4.328  0.1396  0.5849  0.0483
 2889POPC   C1A35057   3.329   7.937   4.403 -0.2059  0.0358 -0.0102
 2889POPC   D2A35058   3.674   7.638   4.343  0.0581  0.0395 -0.1971
 2889POPC   C3A35059   3.625   7.615   4.771  0.1237  0.0419 -0.0312
 2889POPC   C4A35060   3.735   7.481   5.210  0.0993 -0.0516  0.3326
 2889POPC   C1B35061   2.662   7.650   4.687 -0.4016 -0.0344 -0.0686
 2889POPC   C2B35062   2.451   7.509   5.021  0.0291 -0.1947  0.2171
 2889POPC   C3B35063   2.572   7.414   5.465  0.0072  0.0797  0.2321
 2889POPC   C4B35064   2.749   7.144   5.756  0.1630  0.1086  0.1836
 2890POPC   NC335065   3.187  14.972   4.016 -0.2354  0.2880 -0.4134
 2890POPC   PO435066   3.390  14.804   3.772 -0.2962 -0.1078  0.1590
 2890POPC   GL135067   3.663  14.823   4.070  0.1183 -0.3093  0.0960
 2890POPC   GL235068   3.788  14.551   4.127  0.1842 -0.1129 -0.1324
 2890POPC   C1A35069   3.520  14.680   4.497  0.1830 -0.1798 -0.0813
 2890POPC   D2A35070   3.488  14.640   4.968  0.0607 -0.2181  0.1698
 2890POPC   C3A35071   3.330  14.354   5.321 -0.0136 -0.2998  0.0047
 2890POPC   C4A35072   3.292  13.883   5.331  0.2546 -0.0638 -0.0846
 2890POPC   C1B35073   4.054  14.830   4.341 -0.1576  0.0141  0.0706
 2890POPC   C2B35074   4.252  15.078   4.671  0.0044  0.2386 -0.0275
 2890POPC   C3B35075   4.145  15.096   5.134  0.2597 -0.0487 -0.1795
 2890POPC   C4B35076   4.199  15.344   5.535  0.1055  0.0384  0.2859
 2891POPC   NC335077  15.457  13.622   3.414  0.0841  0.4096  0.1025
 2891POPC   PO435078  15.747  13.377   3.345  0.3206  0.0424 -0.1675
 2891POPC   GL135079  15.716  13.227   3.695  0.0036  0.1944 -0.3306
 2891POPC   GL235080  15.574  13.411   3.831  0.0235 -0.0498 -0.0611
 2891POPC   C1A35081  15.706  12.886   4.047 -0.2130 -0.1073  0.0644
 2891POPC   D2A35082  15.903  12.523   4.279  0.1896  0.1317 -0.0763
 2891POPC   C3A35083  15.568  12.337   4.567 -0.3903  0.1182  0.1078
 2891POPC   C4A35084  15.216  12.299   4.935  0.2279  0.0237  0.0331
 2891POPC   C1B35085  15.460  13.284   4.252  0.0962  0.0123  0.1886
 2891POPC   C2B35086  15.260  13.182   4.678 -0.1905 -0.0568  0.0039
 2891POPC   C3B35087  14.976  13.140   5.016  0.1679 -0.3702 -0.0442
 2891POPC   C4B35088  15.111  13.300   5.435 -0.0278  0.2028 -0.1151
 2892POPC   NC335089   3.699  13.041   3.661  0.0124 -0.0854  0.1649
 2892POPC   PO435090   3.747  13.385   3.532  0.3050  0.0333  0.1119
 2892POPC   GL135091   3.967  13.407   3.894  0.2834  0.0283 -0.0586
 2892POPC   GL235092   4.105  13.167   3.950 -0.0065  0.1154  0.3023
 2892POPC   C1A35093   4.035  13.649   4.315 -0.2487  0.2291 -0.5709
 2892POPC   D2A35094   4.200  13.857   4.728  0.1019  0.0670  0.2116
 2892POPC   C3A35095   4.207  13.671   5.151  0.2095 -0.1821 -0.0886
 2892POPC   C4A35096   4.143  13.262   5.285 -0.1886  0.2274  0.0545
 2892POPC   C1B35097   3.736  13.177   4.301  0.1763  0.0108  0.1085
 2892POPC   C2B35098   3.494  13.201   4.697  0.1358  0.0599 -0.1716
 2892POPC   C3B35099   3.654  13.246   5.144 -0.1049 -0.2763  0.0906
 2892POPC   C4B35100   3.689  13.273   5.580 -0.3731 -0.0612 -0.0700
 2893POPC   NC335101  13.684  16.516   3.606 -0.0176 -0.0434  0.0495
 2893POPC   PO435102  13.772  16.155   3.650  0.3380  0.2677  0.2675
 2893POPC   GL135103  13.633  16.100   3.967  0.2067  0.0518  0.1342
 2893POPC   GL235104  13.581  16.335   4.114  0.1805 -0.0131  0.1284
 2893POPC   C1A35105  13.582  15.754   4.277  0.0633  0.1106  0.0172
 2893POPC   D2A35106  13.630  15.274   4.270 -0.0216 -0.0338 -0.0900
 2893POPC   C3A35107  13.782  15.040   4.646  0.0417  0.2634  0.0935
 2893POPC   C4A35108  13.819  14.661   4.882 -0.0296  0.3149 -0.0694
 2893POPC   C1B35109  13.760  16.172   4.492 -0.3224 -0.1185  0.1113
 2893POPC   C2B35110  13.760  16.054   4.926  0.0927 -0.0893  0.1426
 2893POPC   C3B35111  13.465  15.835   5.197 -0.1162  0.1313 -0.0013
 2893POPC   C4B35112  13.188  15.574   5.398  0.0931  0.0207 -0.2523
 2894POPC   NC335113  13.269   7.131   3.325 -0.0707 -0.0791  0.0512
 2894POPC   PO435114  12.972   7.224   3.525  0.2021  0.1113  0.1756
 2894POPC   GL135115  13.069   7.269   3.926 -0.1068  0.0100  0.1077
 2894POPC   GL235116  13.071   6.984   3.997  0.2181  0.0175  0.0540
 2894POPC   C1A35117  13.388   7.200   4.287  0.1716  0.3106 -0.2518
 2894POPC   D2A35118  13.509   7.129   4.706 -0.3079  0.1548 -0.1497
 2894POPC   C3A35119  13.612   7.426   5.027 -0.3323  0.1396 -0.2166
 2894POPC   C4A35120  13.386   7.602   5.430 -0.1033  0.0798 -0.0351
 2894POPC   C1B35121  12.876   6.922   4.431  0.1524  0.0670  0.3316
 2894POPC   C2B35122  12.709   6.986   4.888 -0.0983 -0.1331 -0.1414
 2894POPC   C3B35123  12.600   7.021   5.321  0.0336  0.2620 -0.1012
 2894POPC   C4B35124  12.597   6.790   5.708 -0.2068  0.4050 -0.1166
 2895POPC   NC335125   3.992  26.269   3.853 -0.1297 -0.0949  0.0612
 2895POPC   PO435126   4.353  26.402   3.686  0.1002  0.1975 -0.0458
 2895POPC   GL135127   4.477  26.519   4.019 -0.1485 -0.3687 -0.3885
 2895POPC   GL235128   4.229  26.578   4.160 -0.0862 -0.1593  0.0354
 2895POPC   C1A35129   4.618  26.936   4.143  0.2319  0.2557  0.1064
 2895POPC   D2A35130   5.036  27.077   4.351  0.1274  0.1060  0.2909
 2895POPC   C3A35131   5.178  27.094   4.795 -0.2159 -0.1355 -0.0977
 2895POPC   C4A35132   5.201  27.032   5.232 -0.0163 -0.2113  0.1164
 2895POPC   C1B35133   4.210  26.897   4.489  0.0573  0.1596 -0.0822
 2895POPC   C2B35134   4.057  27.242   4.761 -0.1857 -0.2466  0.1205
 2895POPC   C3B35135   4.265  27.340   5.222  0.3392 -0.1224  0.0896
 2895POPC   C4B35136   4.384  27.621   5.573  0.4974 -0.2157  0.1410
 2896POPC   NC335137   1.017  24.909   3.947 -0.2955  0.4096 -0.0345
 2896POPC   PO435138   1.162  24.934   3.594 -0.0334  0.1850  0.1531
 2896POPC   GL135139   1.460  24.667   3.631  0.0442 -0.1421  0.0998
 2896POPC   GL235140   1.430  24.586   3.882  0.2741 -0.0172 -0.4054
 2896POPC   C1A35141   1.622  24.318   3.502  0.0527  0.0785 -0.0896
 2896POPC   D2A35142   1.766  23.907   3.637 -0.1103 -0.1378 -0.0557
 2896POPC   C3A35143   1.813  23.709   4.077 -0.1574 -0.1200  0.1298
 2896POPC   C4A35144   2.054  23.471   4.387 -0.0785  0.0712 -0.2390
 2896POPC   C1B35145   1.446  24.303   4.246  0.0150  0.0726  0.3070
 2896POPC   C2B35146   1.678  24.188   4.638 -0.3221  0.2409  0.0930
 2896POPC   C3B35147   1.979  24.193   4.970 -0.2446  0.3084  0.0146
 2896POPC   C4B35148   2.191  24.056   5.378 -0.3451 -0.1190 -0.3074
 2897POPC   NC335149   5.671  10.409   3.694 -0.1093  0.1680 -0.0898
 2897POPC   PO435150   5.387  10.683   3.662  0.0138 -0.1930 -0.3694
 2897POPC   GL135151   5.510  10.688   4.093 -0.2813 -0.0291 -0.1603
 2897POPC   GL235152   5.499  10.453   4.215  0.0556  0.1008 -0.1511
 2897POPC   C1A35153   5.804  10.865   4.375 -0.0422 -0.0392  0.3793
 2897POPC   D2A35154   6.165  11.033   4.587 -0.1449 -0.1636  0.3760
 2897POPC   C3A35155   6.244  10.974   5.019 -0.1061  0.1244  0.2342
 2897POPC   C4A35156   6.632  10.989   5.199  0.1617 -0.1754 -0.1619
 2897POPC   C1B35157   5.397  10.605   4.695  0.0085  0.0995 -0.0641
 2897POPC   C2B35158   5.255  10.633   5.111 -0.1241 -0.1752 -0.2301
 2897POPC   C3B35159   5.468  10.545   5.526 -0.1435  0.0279 -0.2148
 2897POPC   C4B35160   5.506  10.357   5.927  0.0763  0.2874 -0.0608
 2898POPC   NC335161  10.125  12.166   3.083  0.0635 -0.0899 -0.2118
 2898POPC   PO435162   9.828  11.996   3.246  0.0617 -0.0225  0.0974
 2898POPC   GL135163   9.600  11.793   3.589  0.1773 -0.0263 -0.0682
 2898POPC   GL235164   9.389  11.949   3.600 -0.3062 -0.1484 -0.3424
 2898POPC   C1A35165   9.634  11.562   4.060 -0.1827  0.0749 -0.1006
 2898POPC   D2A35166   9.597  11.583   4.494  0.2351 -0.0609 -0.0019
 2898POPC   C3A35167   9.442  11.315   4.864 -0.3675  0.1046  0.0275
 2898POPC   C4A35168   9.182  11.304   5.223  0.2073  0.1165  0.1871
 2898POPC   C1B35169   8.939  11.877   3.730 -0.1805  0.0376 -0.0079
 2898POPC   C2B35170   8.682  11.549   3.963 -0.2269  0.0673 -0.2280
 2898POPC   C3B35171   8.633  11.288   4.294 -0.0192  0.0528 -0.3775
 2898POPC   C4B35172   8.467  10.906   4.598  0.1578 -0.1068  0.3306
 2899POPC   NC335173  10.407  30.569   4.113 -0.1362  0.2482 -0.0282
 2899POPC   PO435174  10.562  30.201   4.029 -0.0382 -0.1633  0.2756
 2899POPC   GL135175  10.925  30.062   4.204 -0.2765  0.1851 -0.3056
 2899POPC   GL235176  11.171  29.845   4.161  0.2181 -0.2143  0.2055
 2899POPC   C1A35177  11.157  30.048   4.659  0.0645 -0.1876 -0.4416
 2899POPC   D2A35178  11.212  30.066   5.091  0.1911  0.0919 -0.0661
 2899POPC   C3A35179  10.949  29.763   5.378 -0.2367  0.0903 -0.0153
 2899POPC   C4A35180  10.802  29.702   5.768  0.1082  0.2716 -0.4446
 2899POPC   C1B35181  11.445  29.549   4.437  0.0811 -0.2143  0.3489
 2899POPC   C2B35182  11.639  29.433   4.862  0.2147  0.2045 -0.0674
 2899POPC   C3B35183  11.923  29.494   5.237 -0.1513  0.0194 -0.2070
 2899POPC   C4B35184  12.412  29.487   5.332  0.4175  0.1165 -0.0500
 2900POPC   NC335185  15.786   0.132   3.775  0.0617 -0.2145 -0.3009
 2900POPC   PO435186  15.690  -0.208   3.609 -0.1166  0.1802 -0.0103
 2900POPC   GL135187  15.419  -0.358   3.898 -0.0871 -0.2109  0.1923
 2900POPC   GL235188  15.490  -0.531   4.069 -0.2970  0.1624  0.0435
 2900POPC   C1A35189  15.055  -0.359   4.270  0.1202  0.0536 -0.0040
 2900POPC   D2A35190  14.890  -0.167   4.644 -0.0827 -0.0255 -0.0208
 2900POPC   C3A35191  14.642  -0.463   4.953 -0.0008 -0.1226 -0.1847
 2900POPC   C4A35192  14.524  -0.898   5.056  0.3325 -0.2558  0.0966
 2900POPC   C1B35193  15.575  -0.660   4.499 -0.0460 -0.2796  0.1854
 2900POPC   C2B35194  15.587  -0.694   4.921 -0.0259 -0.2662  0.2234
 2900POPC   C3B35195  15.255  -0.807   5.277  0.0952  0.1043  0.2511
 2900POPC   C4B35196  15.226  -1.073   5.606  0.0877  0.2372 -0.1285
 2901POPC   NC335197   3.636  16.204   3.634  0.0052  0.1140  0.3019
 2901POPC   PO435198   3.965  16.031   3.558 -0.0872 -0.1365 -0.1671
 2901POPC   GL135199   4.139  16.063   3.922 -0.3576  0.5063 -0.1138
 2901POPC   GL235200   4.044  16.185   4.101  0.0960 -0.1286 -0.0442
 2901POPC   C1A35201   4.447  15.893   4.262  0.0266  0.1429  0.0732
 2901POPC   D2A35202   4.495  15.659   4.673  0.4085 -0.0299 -0.1649
 2901POPC   C3A35203   4.508  15.381   5.048 -0.0926 -0.2053 -0.0797
 2901POPC   C4A35204   4.599  15.051   5.397  0.0352 -0.0596  0.0104
 2901POPC   C1B35205   4.015  16.058   4.512  0.0204 -0.0943 -0.0393
 2901POPC   C2B35206   4.221  15.957   4.925  0.2187 -0.0857  0.0603
 2901POPC   C3B35207   4.131  15.719   5.240  0.3302  0.0782  0.0834
 2901POPC   C4B35208   3.790  15.720   5.551 -0.1433  0.1264  0.1213
 2902POPC   NC335209  10.944  27.053   3.730  0.3521  0.0293 -0.1481
 2902POPC   PO435210  10.689  26.957   3.972 -0.2973  0.0838  0.3011
 2902POPC   GL135211  10.856  26.920   4.315 -0.0408 -0.4810 -0.1246
 2902POPC   GL235212  10.954  27.175   4.311  0.2260 -0.2043 -0.0327
 2902POPC   C1A35213  10.747  26.677   4.769 -0.0294 -0.2184 -0.1883
 2902POPC   D2A35214  10.941  26.493   5.086  0.4539  0.0595 -0.1927
 2902POPC   C3A35215  10.704  26.560   5.515 -0.1794  0.1496 -0.2645
 2902POPC   C4A35216  10.354  26.426   5.744 -0.1012 -0.4732  0.0020
 2902POPC   C1B35217  11.354  27.328   4.506 -0.1346  0.0331 -0.1216
 2902POPC   C2B35218  11.416  27.514   4.947  0.0673 -0.0977 -0.2215
 2902POPC   C3B35219  11.331  27.765   5.319  0.4799  0.1050 -0.0247
 2902POPC   C4B35220  11.429  28.218   5.372 -0.2457  0.0729 -0.2330
 2903POPC   NC335221   2.789  15.864   3.677 -0.1358 -0.1518  0.0895
 2903POPC   PO435222   3.217  15.722   3.657 -0.0568 -0.1917 -0.0345
 2903POPC   GL135223   3.210  15.496   4.034 -0.0616 -0.2592 -0.4614
 2903POPC   GL235224   2.951  15.607   4.091  0.1187  0.0972  0.2330
 2903POPC   C1A35225   3.600  15.319   4.239  0.2695 -0.1804  0.1364
 2903POPC   D2A35226   3.746  15.090   4.658 -0.1354  0.1200  0.0719
 2903POPC   C3A35227   3.674  15.069   5.107 -0.0447  0.3540 -0.3637
 2903POPC   C4A35228   3.616  15.151   5.568 -0.0689 -0.0804  0.2292
 2903POPC   C1B35229   2.997  15.575   4.516  0.3785  0.1617  0.0254
 2903POPC   C2B35230   2.853  15.594   4.938  0.2312 -0.0064 -0.2494
 2903POPC   C3B35231   2.618  15.596   5.349  0.2178 -0.2172 -0.0233
 2903POPC   C4B35232   2.385  15.756   5.653  0.2047  0.1914 -0.0151
 2904POPC   NC335233   0.865   1.888   3.702 -0.0114  0.2460  0.0346
 2904POPC   PO435234   0.604   1.636   3.878  0.0032  0.0624 -0.1714
 2904POPC   GL135235   0.505   1.811   4.279 -0.1700  0.1050 -0.3840
 2904POPC   GL235236   0.342   2.037   4.097 -0.0624 -0.3395 -0.0313
 2904POPC   C1A35237   0.436   2.003   4.668 -0.0866  0.1929  0.1106
 2904POPC   D2A35238   0.652   2.355   4.852  0.1991 -0.3606  0.0825
 2904POPC   C3A35239   0.760   2.380   5.292 -0.0664 -0.0177 -0.1598
 2904POPC   C4A35240   0.831   2.199   5.718 -0.0192  0.3706  0.0009
 2904POPC   C1B35241   0.406   2.393   4.394 -0.0593 -0.0127  0.3746
 2904POPC   C2B35242   0.248   2.605   4.798 -0.1483 -0.1763 -0.2168
 2904POPC   C3B35243   0.212   2.702   5.186  0.1328 -0.0444 -0.1980
 2904POPC   C4B35244   0.150   2.767   5.623 -0.0526  0.1854  0.0880
 2905POPC   NC335245  14.860  26.116   4.150  0.3028  0.2322  0.0606
 2905POPC   PO435246  15.033  26.439   3.940  0.2090 -0.2391 -0.1864
 2905POPC   GL135247  14.903  26.549   4.271 -0.3983  0.0349 -0.2606
 2905POPC   GL235248  14.979  26.778   4.329  0.0938  0.0200  0.0661
 2905POPC   C1A35249  14.948  26.417   4.703 -0.0060  0.3429  0.3885
 2905POPC   D2A35250  15.030  26.347   5.118 -0.2403 -0.1706  0.1418
 2905POPC   C3A35251  15.167  26.110   5.520 -0.0016 -0.1128  0.1292
 2905POPC   C4A35252  15.550  26.190   5.750  0.5008 -0.2209  0.2639
 2905POPC   C1B35253  14.863  26.923   4.689 -0.0787  0.0431 -0.0514
 2905POPC   C2B35254  14.639  27.108   5.071 -0.0609  0.1071  0.0486
 2905POPC   C3B35255  14.729  27.135   5.540 -0.0224  0.0193  0.1000
 2905POPC   C4B35256  14.575  26.847   5.859  0.1042  0.1083  0.1970
 2906POPC   NC335257  12.208  17.253   3.529 -0.2345 -0.0087  0.1274
 2906POPC   PO435258  12.591  17.087   3.512  0.4059 -0.2501  0.0702
 2906POPC   GL135259  12.645  17.199   3.864  0.6681  0.2425  0.2191
 2906POPC   GL235260  12.602  17.466   4.016 -0.0795  0.0996  0.2957
 2906POPC   C1A35261  12.462  17.039   4.277 -0.0731  0.7891 -0.0592
 2906POPC   D2A35262  12.134  17.123   4.615  0.2369 -0.2499  0.1327
 2906POPC   C3A35263  12.130  17.144   5.083 -0.0881  0.3908  0.1210
 2906POPC   C4A35264  11.959  17.513   5.356 -0.0308 -0.3806  0.2114
 2906POPC   C1B35265  12.655  17.494   4.438 -0.1446 -0.0351  0.1900
 2906POPC   C2B35266  12.735  17.265   4.818  0.2350  0.1793  0.1891
 2906POPC   C3B35267  12.634  17.087   5.218  0.0693  0.0584 -0.0267
 2906POPC   C4B35268  12.568  16.937   5.634 -0.0394 -0.1648  0.1276
 2907POPC   NC335269  14.595  15.996   3.269 -0.2497  0.2917 -0.3980
 2907POPC   PO435270  14.438  16.028   3.657 -0.2658 -0.0667 -0.1841
 2907POPC   GL135271  14.688  16.074   3.990  0.0717  0.2781 -0.2584
 2907POPC   GL235272  14.574  16.113   4.213  0.3071  0.1012 -0.0797
 2907POPC   C1A35273  14.872  16.411   4.348  0.1564  0.1309 -0.0788
 2907POPC   D2A35274  15.072  16.519   4.721  0.0453  0.0388 -0.0756
 2907POPC   C3A35275  14.836  16.635   5.115 -0.2744 -0.1636  0.0506
 2907POPC   C4A35276  14.728  16.903   5.463 -0.0006 -0.5357  0.2025
 2907POPC   C1B35277  14.908  15.848   4.411  0.2550 -0.0215 -0.2144
 2907POPC   C2B35278  14.911  15.568   4.800  0.1576 -0.1575  0.2924
 2907POPC   C3B35279  15.012  15.618   5.265  0.1230 -0.0365  0.1170
 2907POPC   C4B35280  14.816  15.308   5.548  0.3106 -0.2771 -0.0387
 2908POPC   NC335281  12.677   8.482   3.886 -0.1792  0.0711  0.1105
 2908POPC   PO435282  12.312   8.413   3.938  0.1032 -0.2078  0.4259
 2908POPC   GL135283  12.235   8.307   4.206  0.5496 -0.2055 -0.1108
 2908POPC   GL235284  12.331   8.338   4.511  0.2270  0.4801  0.0704
 2908POPC   C1A35285  12.068   7.892   4.403 -0.2960  0.2110 -0.0171
 2908POPC   D2A35286  11.763   7.617   4.614  0.1694 -0.1948 -0.1337
 2908POPC   C3A35287  11.799   7.579   5.094 -0.1548 -0.2493 -0.0910
 2908POPC   C4A35288  11.824   7.666   5.541 -0.2153 -0.1886  0.0724
 2908POPC   C1B35289  12.216   8.028   4.843 -0.1937  0.2389  0.2346
 2908POPC   C2B35290  12.242   7.899   5.245  0.0287  0.0928 -0.0898
 2908POPC   C3B35291  12.354   7.980   5.642 -0.1797 -0.2523  0.0143
 2908POPC   C4B35292  12.672   7.868   6.015  0.1184  0.0023  0.0783
 2909POPC   NC335293  14.501  19.058   3.290  0.0235  0.1745 -0.1551
 2909POPC   PO435294  14.122  18.953   3.271  0.2091  0.1757 -0.0659
 2909POPC   GL135295  13.732  18.762   3.314  0.0419 -0.4681  0.1269
 2909POPC   GL235296  13.685  18.616   3.583  0.0699  0.0569 -0.0732
 2909POPC   C1A35297  13.324  18.982   3.490  0.1983  0.0314 -0.1465
 2909POPC   D2A35298  12.909  19.009   3.747  0.0955 -0.0634 -0.0007
 2909POPC   C3A35299  12.783  18.907   4.199  0.2413 -0.1783 -0.1890
 2909POPC   C4A35300  12.644  18.955   4.617 -0.3086 -0.1432  0.1651
 2909POPC   C1B35301  13.568  18.567   4.003  0.3342  0.1471 -0.0393
 2909POPC   C2B35302  13.629  18.639   4.476  0.1540  0.1419  0.0920
 2909POPC   C3B35303  13.642  18.860   4.882 -0.2453 -0.0174 -0.0577
 2909POPC   C4B35304  13.457  19.099   5.285  0.3347 -0.2962  0.1536
 2910POPC   NC335305   3.637  17.718   3.786  0.0112  0.0070  0.2475
 2910POPC   PO435306   3.521  18.022   3.556 -0.1355  0.1040  0.0959
 2910POPC   GL135307   3.616  18.291   3.868  0.5857 -0.3357  0.5155
 2910POPC   GL235308   3.809  18.455   3.677  0.3241 -0.0654  0.1204
 2910POPC   C1A35309   3.329  18.277   4.253 -0.3724 -0.2805  0.0892
 2910POPC   D2A35310   3.427  18.076   4.634  0.6200 -0.0497 -0.2048
 2910POPC   C3A35311   3.368  17.848   5.087 -0.1634 -0.0352  0.1985
 2910POPC   C4A35312   3.236  17.657   5.513  0.1384  0.0157  0.2056
 2910POPC   C1B35313   4.232  18.398   3.879  0.3710 -0.0995  0.2739
 2910POPC   C2B35314   4.354  18.353   4.313 -0.1588  0.0571 -0.3342
 2910POPC   C3B35315   4.325  18.532   4.730  0.4183  0.2434 -0.4728
 2910POPC   C4B35316   4.219  18.492   5.164 -0.0720 -0.1744 -0.1761
 2911POPC   NC335317   0.424  24.213   3.767  0.1234  0.0209 -0.1027
 2911POPC   PO435318   0.017  24.145   3.757  0.2367 -0.0179 -0.2423
 2911POPC   GL135319  -0.068  24.104   4.089 -0.0181  0.5471  0.0736
 2911POPC   GL235320   0.083  24.346   4.206  0.1544  0.0075 -0.0343
 2911POPC   C1A35321  -0.131  23.873   4.452  0.2871  0.1156 -0.2399
 2911POPC   D2A35322  -0.132  23.823   4.893  0.0549  0.0926 -0.0659
 2911POPC   C3A35323   0.244  23.833   5.141 -0.0331 -0.0499 -0.0500
 2911POPC   C4A35324   0.451  23.610   5.444 -0.2649  0.0531 -0.1380
 2911POPC   C1B35325   0.196  24.251   4.622 -0.3433  0.1006  0.0915
 2911POPC   C2B35326  -0.005  24.239   5.074 -0.2195  0.0703 -0.3043
 2911POPC   C3B35327  -0.182  23.975   5.415 -0.0172 -0.4794 -0.1364
 2911POPC   C4B35328  -0.171  23.934   5.896 -0.3333  0.0592 -0.1015
 2912POPC   NC335329   4.856  26.624   3.788  0.0019  0.1863  0.2065
 2912POPC   PO435330   5.108  26.385   3.769  0.1575  0.0630  0.0914
 2912POPC   GL135331   5.296  26.611   4.119  0.4432 -0.0153  0.5534
 2912POPC   GL235332   5.325  26.878   3.935  0.1554  0.1795 -0.3748
 2912POPC   C1A35333   5.336  26.635   4.593 -0.2285 -0.2801  0.0247
 2912POPC   D2A35334   5.335  26.527   5.078  0.1489 -0.1768 -0.2932
 2912POPC   C3A35335   5.121  26.315   5.472 -0.1148 -0.0413  0.1526
 2912POPC   C4A35336   5.224  26.296   5.887  0.1384 -0.1581 -0.0256
 2912POPC   C1B35337   5.625  26.954   4.280  0.0122  0.0451 -0.0244
 2912POPC   C2B35338   5.798  26.890   4.672  0.1996 -0.0063  0.0602
 2912POPC   C3B35339   5.716  26.881   5.133  0.2267  0.0048 -0.1168
 2912POPC   C4B35340   5.459  26.796   5.567  0.3703 -0.1415  0.3514
 2913POPC   NC335341   5.324  19.730   3.595 -0.0876  0.4155 -0.1085
 2913POPC   PO435342   4.972  19.816   3.700 -0.0551  0.2051  0.1902
 2913POPC   GL135343   4.922  19.613   4.079 -0.1239 -0.1090  0.1920
 2913POPC   GL235344   5.205  19.658   4.132 -0.3319  0.0218 -0.1633
 2913POPC   C1A35345   4.845  19.744   4.514  0.1362  0.0202 -0.0514
 2913POPC   D2A35346   4.569  19.848   4.909  0.1329  0.0176  0.1701
 2913POPC   C3A35347   4.457  19.478   5.173 -0.0683  0.0640  0.3312
 2913POPC   C4A35348   4.236  19.118   5.403 -0.2540  0.1741  0.0390
 2913POPC   C1B35349   5.304  19.668   4.583 -0.0948 -0.3377  0.1421
 2913POPC   C2B35350   5.466  19.389   4.863  0.2228  0.0291 -0.0234
 2913POPC   C3B35351   5.415  18.979   5.074  0.0324  0.1644 -0.1153
 2913POPC   C4B35352   5.326  18.570   5.328  0.2262  0.1479  0.2830
 2914POPC   NC335353   7.489  20.632   3.567 -0.3244 -0.0025 -0.1508
 2914POPC   PO435354   7.757  20.639   3.805 -0.1570 -0.3806 -0.0644
 2914POPC   GL135355   7.852  20.732   4.198  0.0119  0.1937 -0.1862
 2914POPC   GL235356   7.686  20.486   4.301 -0.1026 -0.0448  0.0809
 2914POPC   C1A35357   8.086  20.735   4.578 -0.2559 -0.2329  0.1313
 2914POPC   D2A35358   8.534  20.782   4.764  0.2339  0.1667 -0.0374
 2914POPC   C3A35359   8.812  20.706   5.147  0.0114 -0.1758 -0.3021
 2914POPC   C4A35360   8.631  20.774   5.607 -0.3656 -0.1480  0.0886
 2914POPC   C1B35361   7.617  20.592   4.757 -0.1046 -0.1394 -0.0856
 2914POPC   C2B35362   7.982  20.694   5.072  0.0069  0.1044  0.0775
 2914POPC   C3B35363   8.277  20.916   5.310 -0.3114 -0.2446  0.4516
 2914POPC   C4B35364   8.313  21.194   5.734  0.0011 -0.0943 -0.1908
 2915POPC   NC335365   2.010   5.304   2.989  0.0154  0.2465 -0.1639
 2915POPC   PO435366   1.781   5.323   3.275  0.2164 -0.0981 -0.2412
 2915POPC   GL135367   1.763   5.528   3.596 -0.0211  0.1260 -0.2288
 2915POPC   GL235368   1.972   5.461   3.789  0.0795 -0.0723  0.0813
 2915POPC   C1A35369   1.567   5.643   4.037 -0.0281 -0.1114 -0.3510
 2915POPC   D2A35370   1.495   5.589   4.485  0.2441  0.2029  0.1576
 2915POPC   C3A35371   1.448   6.035   4.604 -0.0465  0.0559  0.1827
 2915POPC   C4A35372   1.214   6.195   4.945 -0.4423  0.2459 -0.1816
 2915POPC   C1B35373   2.012   5.392   4.252  0.1024  0.0250 -0.1276
 2915POPC   C2B35374   2.074   5.435   4.708  0.3117  0.2663  0.1909
 2915POPC   C3B35375   2.122   5.722   5.050 -0.1349 -0.2078 -0.0601
 2915POPC   C4B35376   2.350   6.052   5.255  0.1737 -0.2819 -0.2503
 2916POPC   NC335377  13.072  12.735   3.609 -0.1723  0.1326 -0.0121
 2916POPC   PO435378  13.089  12.784   3.995 -0.4561  0.1079  0.0471
 2916POPC   GL135379  12.943  12.646   4.406  0.2539  0.1665  0.2549
 2916POPC   GL235380  13.079  12.422   4.454 -0.0198  0.1755  0.2428
 2916POPC   C1A35381  12.813  12.667   4.826 -0.1728  0.2604  0.1683
 2916POPC   D2A35382  12.399  12.743   5.043  0.1266  0.0219 -0.0830
 2916POPC   C3A35383  12.451  12.909   5.487 -0.2130 -0.0335  0.0459
 2916POPC   C4A35384  12.695  13.036   5.867 -0.1650  0.1190  0.1564
 2916POPC   C1B35385  13.443  12.206   4.654 -0.1382 -0.0501  0.1014
 2916POPC   C2B35386  13.642  11.892   4.888  0.1523  0.0263 -0.1839
 2916POPC   C3B35387  13.727  11.754   5.309  0.1664 -0.0583 -0.0625
 2916POPC   C4B35388  14.015  11.811   5.661  0.0837 -0.2135  0.2725
 2917POPC   NC335389   6.793  24.425   3.696  0.1183  0.2894  0.0204
 2917POPC   PO435390   7.029  24.114   3.630 -0.0619 -0.0921 -0.1731
 2917POPC   GL135391   6.986  24.159   4.029 -0.0662  0.1642 -0.3618
 2917POPC   GL235392   7.012  24.428   4.202 -0.0643  0.2000  0.0490
 2917POPC   C1A35393   7.190  24.026   4.464  0.0272  0.3681  0.1254
 2917POPC   D2A35394   7.380  23.773   4.802 -0.0694  0.2059  0.3718
 2917POPC   C3A35395   7.214  23.720   5.219 -0.0033  0.2362 -0.1585
 2917POPC   C4A35396   7.113  23.689   5.676 -0.1893  0.3623 -0.0642
 2917POPC   C1B35397   6.739  24.393   4.537 -0.0710 -0.0448 -0.1543
 2917POPC   C2B35398   6.515  24.694   4.784  0.1763  0.3459 -0.2051
 2917POPC   C3B35399   6.512  25.042   5.048 -0.0176 -0.1341  0.1698
 2917POPC   C4B35400   6.601  25.241   5.462  0.1354  0.3730  0.1222
 2918POPC   NC335401  10.507  25.601   4.104  0.0907 -0.1913  0.0007
 2918POPC   PO435402  10.366  25.354   3.830  0.0212 -0.1582  0.0668
 2918POPC   GL135403  10.457  25.134   4.189  0.0834 -0.0832  0.0628
 2918POPC   GL235404  10.758  25.009   4.173 -0.2311 -0.0071 -0.1956
 2918POPC   C1A35405  10.688  25.411   4.528 -0.0139  0.0577  0.0246
 2918POPC   D2A35406  10.846  25.455   4.927 -0.0116  0.0823 -0.1338
 2918POPC   C3A35407  10.810  25.540   5.362  0.0307  0.1748 -0.1645
 2918POPC   C4A35408  10.547  25.440   5.698  0.0308 -0.0961  0.1171
 2918POPC   C1B35409  10.739  24.922   4.667  0.3742 -0.0865  0.5502
 2918POPC   C2B35410  10.813  24.860   5.131  0.0376  0.1631 -0.0907
 2918POPC   C3B35411  11.111  24.794   5.520  0.0296 -0.1718  0.1155
 2918POPC   C4B35412  11.384  24.432   5.660 -0.0419 -0.0292  0.0956
 2919POPC   NC335413   8.316  15.765   3.334  0.0687 -0.3056 -0.0750
 2919POPC   PO435414   8.200  15.424   3.493 -0.1239 -0.1950 -0.1683
 2919POPC   GL135415   8.154  15.593   3.805  0.1604  0.0746  0.0224
 2919POPC   GL235416   8.430  15.723   3.883  0.1657 -0.1594  0.1591
 2919POPC   C1A35417   7.949  15.510   4.242  0.3264 -0.2170  0.0562
 2919POPC   D2A35418   7.781  15.203   4.583  0.1995  0.0279  0.0228
 2919POPC   C3A35419   7.563  15.439   4.966  0.1606  0.2102  0.1066
 2919POPC   C4A35420   7.475  15.608   5.347  0.2477  0.0975 -0.5778
 2919POPC   C1B35421   8.444  15.529   4.313 -0.1881  0.0958 -0.1116
 2919POPC   C2B35422   8.332  15.382   4.735 -0.0731  0.2067  0.0812
 2919POPC   C3B35423   8.074  15.328   5.126  0.2077 -0.4685 -0.0026
 2919POPC   C4B35424   7.730  15.116   5.368  0.2209  0.1317  0.3512
 2920POPC   NC335425   0.291  15.655   3.791  0.1450 -0.1410 -0.2163
 2920POPC   PO435426  -0.079  15.469   3.683 -0.0948 -0.2878 -0.1439
 2920POPC   GL135427  -0.121  15.465   4.101  0.2477 -0.1548 -0.0085
 2920POPC   GL235428   0.161  15.468   4.291 -0.1071 -0.1671  0.0862
 2920POPC   C1A35429  -0.438  15.613   4.383 -0.0905 -0.0720  0.3349
 2920POPC   D2A35430  -0.421  15.629   4.845 -0.0063 -0.2609 -0.1980
 2920POPC   C3A35431  -0.461  15.165   4.992  0.1055 -0.1176  0.2396
 2920POPC   C4A35432  -0.349  14.782   5.259 -0.0825 -0.0928 -0.0420
 2920POPC   C1B35433   0.134  15.435   4.791  0.1699 -0.1680  0.6830
 2920POPC   C2B35434  -0.063  15.476   5.228  0.1178 -0.1475  0.0970
 2920POPC   C3B35435  -0.512  15.271   5.446 -0.0207 -0.0876 -0.0039
 2920POPC   C4B35436  -0.812  14.931   5.407  0.2631  0.0332  0.0230
 2921POPC   NC335437   0.651   8.174   3.694  0.0455 -0.2377  0.0403
 2921POPC   PO435438   0.764   7.846   3.809 -0.3037 -0.2135 -0.2281
 2921POPC   GL135439   0.606   7.758   4.154 -0.0244  0.1157  0.0566
 2921POPC   GL235440   0.279   7.590   4.138 -0.1692 -0.2210  0.3115
 2921POPC   C1A35441   0.480   7.705   4.590  0.0849 -0.0422  0.1103
 2921POPC   D2A35442   0.471   7.517   4.976  0.0762 -0.0450  0.1093
 2921POPC   C3A35443   0.210   7.546   5.304  0.2245 -0.0593  0.2631
 2921POPC   C4A35444  -0.038   7.619   5.712 -0.1173 -0.0626  0.0026
 2921POPC   C1B35445   0.479   7.256   4.406 -0.0082 -0.2583  0.2220
 2921POPC   C2B35446   0.432   7.014   4.831  0.1191 -0.1337  0.0636
 2921POPC   C3B35447   0.298   7.020   5.218  0.1335  0.0532  0.0349
 2921POPC   C4B35448   0.108   7.125   5.628  0.2504 -0.3586 -0.1646
 2922POPC   NC335449  12.832  26.109   3.095  0.1140  0.0248  0.1759
 2922POPC   PO435450  12.954  26.126   3.447  0.1492  0.4364 -0.1053
 2922POPC   GL135451  12.904  26.342   3.794  0.1442 -0.1796 -0.4168
 2922POPC   GL235452  13.152  26.477   3.822  0.2193 -0.0560  0.2622
 2922POPC   C1A35453  12.835  26.561   4.177 -0.1209  0.1948 -0.1413
 2922POPC   D2A35454  12.969  26.728   4.589 -0.0127 -0.1549 -0.1379
 2922POPC   C3A35455  12.877  26.528   4.962  0.2938  0.0446  0.1383
 2922POPC   C4A35456  12.825  26.525   5.417  0.0498 -0.0626 -0.4957
 2922POPC   C1B35457  13.309  26.336   4.252  0.2893 -0.0365 -0.2274
 2922POPC   C2B35458  13.162  26.107   4.712 -0.1256  0.0422  0.1770
 2922POPC   C3B35459  13.122  26.140   5.181 -0.0502  0.0627  0.2291
 2922POPC   C4B35460  13.269  26.170   5.598 -0.0548 -0.3945 -0.0430
 2923POPC   NC335461  12.991   8.953   4.285 -0.0475 -0.1528 -0.0832
 2923POPC   PO435462  12.688   8.947   4.037  0.0934 -0.0712  0.2081
 2923POPC   GL135463  12.446   8.758   4.281  0.3422 -0.2895  0.1284
 2923POPC   GL235464  12.414   9.017   4.473 -0.0394  0.1132  0.2477
 2923POPC   C1A35465  12.019   8.710   4.416 -0.0922 -0.1337 -0.1296
 2923POPC   D2A35466  11.643   8.765   4.647 -0.1628 -0.3640  0.0971
 2923POPC   C3A35467  11.359   8.521   4.951 -0.2177  0.0901  0.1158
 2923POPC   C4A35468  10.991   8.353   5.235 -0.3481 -0.2114  0.0280
 2923POPC   C1B35469  12.676   9.256   4.683 -0.1152 -0.1600 -0.0522
 2923POPC   C2B35470  12.609   9.441   5.092 -0.1569 -0.2991  0.0591
 2923POPC   C3B35471  12.426   9.361   5.526 -0.2922 -0.0809 -0.1821
 2923POPC   C4B35472  12.068   9.144   5.762  0.0341 -0.0276  0.1316
 2924POPC   NC335473  14.488   8.362   3.954  0.2870 -0.1480 -0.2077
 2924POPC   PO435474  14.706   8.051   3.746 -0.0384  0.0682 -0.3682
 2924POPC   GL135475  14.675   8.015   4.185  0.0595  0.0092  0.0085
 2924POPC   GL235476  14.875   8.178   4.234  0.0508 -0.1309 -0.2804
 2924POPC   C1A35477  14.517   7.784   4.588 -0.3814  0.4541 -0.2016
 2924POPC   D2A35478  14.525   7.779   5.027  0.0054 -0.0539  0.0381
 2924POPC   C3A35479  14.712   7.704   5.415 -0.0770 -0.1182  0.0574
 2924POPC   C4A35480  14.774   7.467   5.772  0.0387 -0.0037  0.0235
 2924POPC   C1B35481  14.831   8.150   4.718 -0.0398  0.5203  0.3135
 2924POPC   C2B35482  14.772   8.149   5.195  0.3300 -0.1221 -0.0114
 2924POPC   C3B35483  14.970   8.160   5.617 -0.1564  0.1054  0.2233
 2924POPC   C4B35484  15.061   7.946   6.023 -0.3735 -0.1240  0.0527
 2925POPC   NC335485  10.731   1.197   3.754  0.1021  0.2727 -0.1833
 2925POPC   PO435486  11.105   1.233   3.963  0.0603 -0.0919  0.0133
 2925POPC   GL135487  11.222   1.184   4.317  0.2931 -0.5260  0.2765
 2925POPC   GL235488  11.500   1.292   4.267  0.2898 -0.0727  0.0462
 2925POPC   C1A35489  10.982   1.228   4.719 -0.1820  0.0583  0.1972
 2925POPC   D2A35490  10.820   1.413   5.088  0.1598 -0.1402 -0.0700
 2925POPC   C3A35491  10.791   1.099   5.386 -0.2061 -0.0712  0.1988
 2925POPC   C4A35492  10.813   0.653   5.396 -0.0508 -0.0387  0.1584
 2925POPC   C1B35493  11.468   1.094   4.675 -0.1610  0.1684 -0.0429
 2925POPC   C2B35494  11.672   0.887   5.041  0.0266 -0.0771  0.0848
 2925POPC   C3B35495  11.852   1.021   5.408  0.0297  0.1084  0.5404
 2925POPC   C4B35496  11.680   1.022   5.846 -0.0431 -0.2329  0.2804
 2926POPC   NC335497   5.335  28.342   3.766 -0.2199  0.1514 -0.1172
 2926POPC   PO435498   5.674  28.212   3.912  0.1865  0.0527 -0.0300
 2926POPC   GL135499   5.572  28.266   4.164  0.3738 -0.3422 -0.1564
 2926POPC   GL235500   5.421  28.556   4.211 -0.1292  0.3205 -0.1341
 2926POPC   C1A35501   5.561  28.246   4.630  0.1586 -0.1230 -0.3604
 2926POPC   D2A35502   5.595  28.364   5.130 -0.1952  0.2981  0.1155
 2926POPC   C3A35503   5.844  28.279   5.497 -0.2312 -0.3060  0.0078
 2926POPC   C4A35504   5.749  28.258   5.963 -0.3477 -0.3095  0.3660
 2926POPC   C1B35505   5.426  28.739   4.611 -0.0822  0.1358  0.1998
 2926POPC   C2B35506   5.521  28.854   5.043 -0.1172 -0.0417 -0.0585
 2926POPC   C3B35507   5.410  29.204   5.372  0.2111 -0.2533  0.0099
 2926POPC   C4B35508   5.378  29.658   5.401  0.0635  0.0127 -0.2176
 2927POPC   NC335509   6.127  29.067   3.493  0.0035 -0.1387  0.1398
 2927POPC   PO435510   5.738  28.993   3.520 -0.1113 -0.0737  0.4830
 2927POPC   GL135511   5.690  29.167   3.809 -0.1259  0.0079 -0.1896
 2927POPC   GL235512   5.422  29.315   3.790 -0.3986  0.2312 -0.1054
 2927POPC   C1A35513   5.827  29.588   3.963 -0.2699 -0.0086 -0.0826
 2927POPC   D2A35514   6.226  29.774   4.096 -0.0511  0.1659  0.1700
 2927POPC   C3A35515   6.278  29.695   4.544 -0.2017  0.1730 -0.1143
 2927POPC   C4A35516   6.317  29.644   5.021  0.1595 -0.0203 -0.1100
 2927POPC   C1B35517   5.407  29.157   4.241 -0.1601 -0.0782 -0.0610
 2927POPC   C2B35518   5.400  29.302   4.704  0.0706 -0.0057  0.0637
 2927POPC   C3B35519   5.672  29.590   4.939  0.2509  0.2930  0.1469
 2927POPC   C4B35520   5.897  29.585   5.341 -0.2121  0.0348 -0.0169
 2928POPC   NC335521  10.270   6.137   3.980 -0.0760  0.0381 -0.0792
 2928POPC   PO435522  10.324   6.527   3.983  0.2466 -0.1628 -0.0783
 2928POPC   GL135523  10.129   6.489   4.330  0.1850 -0.5425  0.1140
 2928POPC   GL235524  10.430   6.391   4.463  0.0957  0.0507 -0.1283
 2928POPC   C1A35525   9.928   6.434   4.761 -0.2459 -0.4505  0.1100
 2928POPC   D2A35526   9.946   6.552   5.227  0.0516  0.4315  0.0196
 2928POPC   C3A35527  10.012   6.245   5.528  0.1351 -0.2770 -0.0610
 2928POPC   C4A35528   9.736   6.168   5.915 -0.0453 -0.2338  0.1851
 2928POPC   C1B35529  10.487   6.343   4.984 -0.4310 -0.3770  0.2007
 2928POPC   C2B35530  10.565   6.156   5.420  0.2182  0.3225 -0.0006
 2928POPC   C3B35531  10.544   5.771   5.751 -0.1350  0.0192  0.4946
 2928POPC   C4B35532  10.470   5.306   5.844 -0.2372 -0.0731 -0.0422
 2929POPC   NC335533   6.536   3.320   3.894 -0.1926  0.0672  0.2485
 2929POPC   PO435534   6.170   3.209   3.779 -0.1713 -0.0036  0.1426
 2929POPC   GL135535   6.171   3.538   4.070  0.3029  0.3696 -0.2433
 2929POPC   GL235536   6.014   3.366   4.271  0.0536 -0.3425  0.2971
 2929POPC   C1A35537   6.537   3.529   4.408  0.2958  0.0059 -0.1832
 2929POPC   D2A35538   6.687   3.269   4.723  0.1049 -0.0493  0.0330
 2929POPC   C3A35539   6.822   3.403   5.167 -0.1060 -0.0356  0.1462
 2929POPC   C4A35540   7.025   3.244   5.603 -0.1311  0.0675 -0.1977
 2929POPC   C1B35541   6.044   3.181   4.641 -0.0767  0.1296 -0.2477
 2929POPC   C2B35542   6.111   3.060   5.093 -0.2458  0.0815 -0.2105
 2929POPC   C3B35543   6.289   3.039   5.501 -0.0617 -0.0587  0.0252
 2929POPC   C4B35544   6.412   2.903   5.952  0.0105  0.2522  0.1404
 2930POPC   NC335545   4.266   0.281   3.610  0.0806 -0.0919  0.1093
 2930POPC   PO435546   3.915   0.105   3.572 -0.0697  0.0379  0.4911
 2930POPC   GL135547   3.940   0.047   3.980 -0.0312 -0.1442  0.0620
 2930POPC   GL235548   4.211  -0.001   4.040  0.2314 -0.3380 -0.0727
 2930POPC   C1A35549   3.919   0.276   4.380 -0.2645  0.1203  0.2107
 2930POPC   D2A35550   3.877   0.264   4.809 -0.0494 -0.3009  0.0166
 2930POPC   C3A35551   3.711  -0.014   5.171  0.0143  0.0961  0.1389
 2930POPC   C4A35552   3.460  -0.360   5.330  0.1273  0.3950 -0.2892
 2930POPC   C1B35553   4.264  -0.115   4.497 -0.1894 -0.2279 -0.1368
 2930POPC   C2B35554   4.233  -0.053   5.013  0.0390 -0.1809 -0.1684
 2930POPC   C3B35555   4.415   0.066   5.428 -0.1548  0.0063 -0.1163
 2930POPC   C4B35556   4.729   0.256   5.759  0.3600 -0.2153 -0.1299
 2931POPC   NC335557  10.152   3.614   3.242 -0.1261 -0.3696  0.1507
 2931POPC   PO435558  10.410   3.777   3.510 -0.2937 -0.0647 -0.1991
 2931POPC   GL135559  10.327   3.935   3.840  0.2553 -0.1021 -0.0127
 2931POPC   GL235560  10.195   4.238   3.932  0.1547  0.0914 -0.4699
 2931POPC   C1A35561  10.114   3.742   4.201  0.1743  0.1242  0.0440
 2931POPC   D2A35562   9.842   3.582   4.524 -0.0760  0.0123 -0.1749
 2931POPC   C3A35563   9.971   3.875   4.869 -0.0921 -0.0256 -0.0056
 2931POPC   C4A35564  10.088   3.996   5.278  0.1092 -0.1292 -0.4398
 2931POPC   C1B35565  10.126   4.273   4.414 -0.0965 -0.1933 -0.0207
 2931POPC   C2B35566  10.180   4.333   4.902 -0.1852 -0.0342  0.1457
 2931POPC   C3B35567  10.174   4.467   5.321 -0.0813 -0.0940  0.1689
 2931POPC   C4B35568   9.923   4.295   5.659 -0.0568  0.0363 -0.1050
 2932POPC   NC335569   7.137   2.425   3.884  0.0565 -0.3137 -0.0611
 2932POPC   PO435570   7.261   2.797   3.808  0.2355  0.1463 -0.5278
 2932POPC   GL135571   7.523   2.875   4.046 -0.1268  0.0553  0.2401
 2932POPC   GL235572   7.401   3.076   4.222 -0.0774 -0.0844 -0.1447
 2932POPC   C1A35573   7.877   2.684   4.295  0.1402  0.0355  0.2307
 2932POPC   D2A35574   8.026   2.309   4.582  0.1600  0.0014  0.1120
 2932POPC   C3A35575   7.976   2.194   5.007  0.1711  0.2086  0.1614
 2932POPC   C4A35576   8.098   2.061   5.436  0.0793  0.2239 -0.1292
 2932POPC   C1B35577   7.331   2.877   4.645 -0.1883 -0.0962 -0.2355
 2932POPC   C2B35578   7.079   2.988   4.965  0.3304 -0.1188  0.0252
 2932POPC   C3B35579   6.696   2.856   5.216  0.0503  0.2900  0.0165
 2932POPC   C4B35580   6.464   2.587   5.499 -0.1576  0.0083  0.0239
 2933POPC   NC335581  14.319  20.043   3.635  0.2108  0.3914  0.1791
 2933POPC   PO435582  13.995  19.941   3.454 -0.0164  0.3603 -0.0860
 2933POPC   GL135583  14.036  19.654   3.724  0.1847 -0.0720  0.2969
 2933POPC   GL235584  13.953  19.384   3.564  0.0584 -0.1156  0.1231
 2933POPC   C1A35585  14.044  19.386   4.104  0.5069 -0.1049 -0.1315
 2933POPC   D2A35586  13.944  19.498   4.510  0.1333  0.0271  0.2771
 2933POPC   C3A35587  13.739  19.892   4.654  0.1807  0.0389 -0.1345
 2933POPC   C4A35588  13.523  20.138   4.928 -0.0469  0.0505 -0.1354
 2933POPC   C1B35589  13.733  19.100   3.821  0.1156 -0.1923 -0.0872
 2933POPC   C2B35590  13.641  19.161   4.268 -0.0619  0.4281  0.1965
 2933POPC   C3B35591  13.520  19.290   4.725  0.2604 -0.1865  0.1053
 2933POPC   C4B35592  13.621  19.552   5.056 -0.1552 -0.3431  0.3903
 2934POPC   NC335593   5.870  14.747   3.941  0.0571  0.0626  0.0934
 2934POPC   PO435594   5.637  14.486   3.821  0.2781 -0.2699  0.1622
 2934POPC   GL135595   5.645  14.358   4.207  0.1700  0.2992  0.0226
 2934POPC   GL235596   5.355  14.358   4.359  0.0244 -0.1225 -0.2797
 2934POPC   C1A35597   5.593  13.968   4.522 -0.0372  0.0691  0.3453
 2934POPC   D2A35598   5.676  13.662   4.903 -0.0876  0.0527  0.0681
 2934POPC   C3A35599   5.471  13.789   5.340  0.2591  0.0263  0.1077
 2934POPC   C4A35600   5.246  13.701   5.795 -0.0208  0.0638 -0.0008
 2934POPC   C1B35601   5.461  14.522   4.728 -0.0478 -0.0143 -0.1501
 2934POPC   C2B35602   5.450  14.831   5.084  0.0052 -0.0839 -0.0567
 2934POPC   C3B35603   5.324  15.139   5.433 -0.0746  0.0796  0.4623
 2934POPC   C4B35604   4.958  15.221   5.732 -0.2149  0.2126  0.2170
 2935POPC   NC335605   5.152   2.081   3.815 -0.3422 -0.1591  0.0464
 2935POPC   PO435606   5.471   2.374   3.834  0.2946  0.0970 -0.1087
 2935POPC   GL135607   5.529   2.268   4.260 -0.0633  0.1204 -0.0827
 2935POPC   GL235608   5.585   2.563   4.331 -0.0398 -0.0959 -0.0647
 2935POPC   C1A35609   5.579   2.288   4.714  0.0275 -0.0919 -0.0342
 2935POPC   D2A35610   5.547   2.510   5.125 -0.1451  0.2479  0.1421
 2935POPC   C3A35611   5.571   2.383   5.570  0.0233 -0.3842 -0.1024
 2935POPC   C4A35612   5.502   2.343   6.010  0.1440  0.3524 -0.0833
 2935POPC   C1B35613   5.201   2.634   4.647  0.1128 -0.3533 -0.3420
 2935POPC   C2B35614   5.050   2.729   5.060  0.0929  0.1802  0.3716
 2935POPC   C3B35615   5.198   2.706   5.509 -0.0777  0.0163  0.2398
 2935POPC   C4B35616   5.035   2.511   5.853 -0.0934  0.3054  0.0103
 2936POPC   NC335617   2.718   5.981   3.383 -0.1466 -0.1718  0.0144
 2936POPC   PO435618   2.868   6.334   3.314  0.1063  0.2318 -0.0196
 2936POPC   GL135619   3.076   6.251   3.705  0.0728 -0.5163  0.1986
 2936POPC   GL235620   2.979   6.478   3.830  0.3019  0.2794 -0.0576
 2936POPC   C1A35621   2.946   5.937   3.999 -0.0471  0.1088  0.0308
 2936POPC   D2A35622   2.838   5.886   4.455  0.0669  0.0315  0.0125
 2936POPC   C3A35623   2.412   5.863   4.684  0.0816 -0.0593 -0.1158
 2936POPC   C4A35624   1.937   5.895   4.493 -0.0824  0.1008  0.0411
 2936POPC   C1B35625   2.690   6.358   4.229 -0.2619  0.1270  0.1211
 2936POPC   C2B35626   2.315   6.346   4.501 -0.0040 -0.0135  0.0522
 2936POPC   C3B35627   2.216   6.586   4.850 -0.0442  0.0101  0.0013
 2936POPC   C4B35628   2.061   6.544   5.250 -0.1441  0.1605 -0.1405
 2937POPC   NC335629   0.085  19.770   3.846 -0.0759 -0.0414 -0.0580
 2937POPC   PO435630  -0.247  19.969   3.787  0.0840 -0.0705 -0.2762
 2937POPC   GL135631  -0.459  19.779   4.084 -0.3023  0.2565 -0.1315
 2937POPC   GL235632  -0.328  19.520   4.179 -0.0415  0.0721 -0.2207
 2937POPC   C1A35633  -0.558  19.918   4.476 -0.0497 -0.3816 -0.0803
 2937POPC   D2A35634  -0.668  20.159   4.824 -0.1221 -0.0116 -0.0351
 2937POPC   C3A35635  -1.033  20.204   5.065  0.1487  0.1359 -0.1675
 2937POPC   C4A35636  -1.199  20.376   5.476  0.0195 -0.0692  0.0281
 2937POPC   C1B35637  -0.295  19.537   4.649 -0.0694  0.1427 -0.2902
 2937POPC   C2B35638  -0.454  19.676   5.040  0.0075  0.0529 -0.0000
 2937POPC   C3B35639  -0.754  19.858   5.353 -0.3444 -0.0388  0.1978
 2937POPC   C4B35640  -0.903  19.978   5.736  0.0248  0.1393 -0.0651
 2938POPC   NC335641  10.567  28.305   3.901  0.0287 -0.1419 -0.1223
 2938POPC   PO435642  10.521  28.635   4.062 -0.3487  0.0957  0.0459
 2938POPC   GL135643  10.562  28.811   4.433  0.0350 -0.0491  0.1028
 2938POPC   GL235644  10.674  28.549   4.558 -0.0723  0.1596 -0.1349
 2938POPC   C1A35645  10.285  28.971   4.733 -0.0216 -0.3640 -0.1290
 2938POPC   D2A35646  10.327  28.946   5.177  0.5130  0.1617  0.2590
 2938POPC   C3A35647  10.685  28.782   5.465  0.1797  0.1862 -0.0072
 2938POPC   C4A35648  10.829  28.860   5.862 -0.0147  0.0706 -0.1955
 2938POPC   C1B35649  10.747  28.456   5.021  0.0113  0.3003  0.1015
 2938POPC   C2B35650  10.861  28.345   5.478  0.0023  0.1676  0.0572
 2938POPC   C3B35651  10.587  28.305   5.825  0.1619  0.1296 -0.0852
 2938POPC   C4B35652  10.369  28.377   6.211  0.1638  0.1252  0.0591
 2939POPC   NC335653  12.562   9.890   3.950  0.0767  0.0422 -0.0182
 2939POPC   PO435654  12.772  10.221   3.915 -0.1983  0.3241  0.1137
 2939POPC   GL135655  12.675  10.230   4.256 -0.2827 -0.1634  0.1105
 2939POPC   GL235656  12.784  10.519   4.288  0.2407 -0.1032 -0.0665
 2939POPC   C1A35657  12.853  10.236   4.716  0.1096  0.1591 -0.3335
 2939POPC   D2A35658  12.728  10.399   5.151 -0.1669 -0.0524 -0.0809
 2939POPC   C3A35659  12.918  10.177   5.482  0.3499 -0.0529  0.0186
 2939POPC   C4A35660  13.304   9.866   5.597 -0.0944  0.0727  0.1657
 2939POPC   C1B35661  12.880  10.714   4.692 -0.0972 -0.1578  0.0956
 2939POPC   C2B35662  13.167  10.543   4.979  0.2295 -0.0777 -0.2304
 2939POPC   C3B35663  13.441  10.363   5.305 -0.0096  0.0083  0.0049
 2939POPC   C4B35664  13.285  10.352   5.772 -0.0454  0.0682  0.1700
 2940POPC   NC335665   6.965   2.173   3.200  0.0891 -0.0918 -0.1490
 2940POPC   PO435666   6.996   2.028   3.589 -0.0788  0.1183  0.1701
 2940POPC   GL135667   7.007   1.884   3.971  0.0848  0.1971  0.0296
 2940POPC   GL235668   7.196   2.015   4.056 -0.2468 -0.1899 -0.4403
 2940POPC   C1A35669   6.866   1.745   4.366  0.1830 -0.0482  0.0923
 2940POPC   D2A35670   6.853   1.666   4.824  0.3031  0.2354 -0.1367
 2940POPC   C3A35671   7.091   1.450   5.064  0.0810 -0.3081  0.0144
 2940POPC   C4A35672   7.315   1.137   5.294  0.0213  0.1234  0.2334
 2940POPC   C1B35673   7.424   1.876   4.443 -0.2022 -0.0314  0.4418
 2940POPC   C2B35674   7.621   1.888   4.830  0.2580  0.1181  0.1376
 2940POPC   C3B35675   7.623   1.650   5.253  0.0371 -0.0727  0.0870
 2940POPC   C4B35676   7.803   1.384   5.599 -0.1485 -0.0782  0.0249
 2941POPC   NC335677   2.868   9.140   3.431  0.1281 -0.1585 -0.2418
 2941POPC   PO435678   2.656   8.790   3.486 -0.1462 -0.0511  0.2046
 2941POPC   GL135679   2.662   8.779   3.873  0.2519  0.3122 -0.1800
 2941POPC   GL235680   2.875   8.933   3.914 -0.2000 -0.2327  0.2420
 2941POPC   C1A35681   2.637   8.410   4.212 -0.3739 -0.2007  0.2672
 2941POPC   D2A35682   2.427   8.076   4.455 -0.0651 -0.1436 -0.2899
 2941POPC   C3A35683   2.041   8.284   4.660 -0.2730 -0.2875  0.0980
 2941POPC   C4A35684   1.551   8.361   4.601 -0.2416  0.1907  0.0746
 2941POPC   C1B35685   2.784   8.871   4.346  0.1235 -0.1718 -0.0708
 2941POPC   C2B35686   2.783   8.694   4.739  0.0935 -0.1220 -0.1576
 2941POPC   C3B35687   2.673   8.758   5.182 -0.0809  0.0053  0.2873
 2941POPC   C4B35688   2.498   8.728   5.641 -0.2181 -0.0578  0.1904
 2942POPC   NC335689  13.797   7.001   3.768  0.0466  0.0149 -0.1620
 2942POPC   PO435690  13.477   6.788   3.754  0.3230 -0.1083 -0.0220
 2942POPC   GL135691  13.508   6.761   4.058  0.1047 -0.2870 -0.1251
 2942POPC   GL235692  13.734   6.809   4.206 -0.0861 -0.0843 -0.1208
 2942POPC   C1A35693  13.299   6.617   4.463  0.1676 -0.1308 -0.0318
 2942POPC   D2A35694  13.230   6.812   4.887 -0.0290  0.0971  0.3287
 2942POPC   C3A35695  13.363   6.550   5.227  0.1783 -0.0693 -0.0825
 2942POPC   C4A35696  13.380   6.435   5.671 -0.0213  0.3682  0.1564
 2942POPC   C1B35697  13.938   6.995   4.594 -0.0655  0.0518 -0.3800
 2942POPC   C2B35698  13.954   7.110   5.055 -0.0877  0.6097 -0.0508
 2942POPC   C3B35699  13.537   7.008   5.322  0.2446  0.0163 -0.0496
 2942POPC   C4B35700  13.385   7.218   5.761  0.1883  0.0409 -0.1182
 2943POPC   NC335701   7.443  30.569   3.285  0.1219  0.1580 -0.3177
 2943POPC   PO435702   7.570  30.246   3.458  0.1301  0.2038 -0.3023
 2943POPC   GL135703   7.292  30.156   3.702  0.1678 -0.0363  0.1686
 2943POPC   GL235704   7.386  30.151   3.962 -0.1628 -0.0831 -0.2501
 2943POPC   C1A35705   6.930  30.465   3.815  0.0542  0.0985 -0.0162
 2943POPC   D2A35706   6.510  30.561   3.981  0.2810 -0.4417  0.1256
 2943POPC   C3A35707   6.343  30.536   4.450  0.0048 -0.0172  0.1836
 2943POPC   C4A35708   6.207  30.479   4.888  0.0260 -0.1072  0.2551
 2943POPC   C1B35709   7.222  30.394   4.305  0.0650  0.3478 -0.0316
 2943POPC   C2B35710   6.845  30.554   4.582 -0.0938 -0.2661 -0.1560
 2943POPC   C3B35711   6.709  30.572   5.018  0.1568  0.0906 -0.1959
 2943POPC   C4B35712   6.511  30.509   5.485  0.1009 -0.0762 -0.0643
 2944POPC   NC335713  14.090  16.271   4.003  0.1318  0.0923 -0.1589
 2944POPC   PO435714  14.219  16.588   3.845 -0.2435  0.0958 -0.0011
 2944POPC   GL135715  14.244  16.643   4.223  0.1156  0.0432 -0.2046
 2944POPC   GL235716  14.491  16.721   4.303 -0.1162 -0.0925 -0.0258
 2944POPC   C1A35717  14.250  16.322   4.515 -0.0768 -0.1349 -0.2266
 2944POPC   D2A35718  14.611  16.245   4.777  0.0246 -0.2220  0.1908
 2944POPC   C3A35719  14.603  15.904   5.129  0.2163 -0.1408 -0.0793
 2944POPC   C4A35720  14.726  15.806   5.589 -0.0793  0.2635  0.1698
 2944POPC   C1B35721  14.535  16.757   4.734 -0.2456  0.0582 -0.0055
 2944POPC   C2B35722  14.357  16.828   5.120 -0.1316 -0.2306  0.0507
 2944POPC   C3B35723  14.251  16.834   5.473 -0.3409 -0.1865  0.0259
 2944POPC   C4B35724  13.999  16.528   5.746 -0.1114  0.1192 -0.1065
 2945POPC   NC335725  15.229   8.068   3.546  0.3867 -0.2432 -0.1001
 2945POPC   PO435726  15.437   8.370   3.492  0.1387 -0.1009  0.1035
 2945POPC   GL135727  15.438   8.529   3.962 -0.2391 -0.0607  0.2245
 2945POPC   GL235728  15.745   8.408   4.044 -0.2173  0.1376  0.1384
 2945POPC   C1A35729  15.340   8.591   4.411 -0.0021  0.0127 -0.0542
 2945POPC   D2A35730  15.329   8.584   4.853  0.2251 -0.0282  0.0742
 2945POPC   C3A35731  15.291   8.226   5.129 -0.1493 -0.1511 -0.0837
 2945POPC   C4A35732  15.137   7.777   5.134 -0.0867  0.0341 -0.3129
 2945POPC   C1B35733  15.865   8.319   4.451  0.1249  0.4192  0.1838
 2945POPC   C2B35734  15.798   8.415   4.949 -0.1330 -0.2063 -0.0449
 2945POPC   C3B35735  15.828   8.604   5.325  0.0578  0.2123 -0.0620
 2945POPC   C4B35736  15.745   8.925   5.644 -0.0269 -0.3415  0.0923
 2946POPC   NC335737  14.758  24.626   3.783  0.0495  0.2710  0.0587
 2946POPC   PO435738  15.061  24.445   3.968 -0.1122  0.2854  0.1098
 2946POPC   GL135739  14.830  24.221   4.164 -0.2856  0.0690  0.1971
 2946POPC   GL235740  14.519  24.345   4.119 -0.0703  0.0012 -0.4223
 2946POPC   C1A35741  15.024  24.086   4.551 -0.0409 -0.1172  0.1499
 2946POPC   D2A35742  15.135  23.880   4.911 -0.3957  0.2637 -0.2126
 2946POPC   C3A35743  14.999  24.080   5.329 -0.2249 -0.2098  0.1963
 2946POPC   C4A35744  14.962  24.131   5.777  0.3898  0.1872  0.0384
 2946POPC   C1B35745  14.608  24.417   4.538  0.3337  0.1079  0.0140
 2946POPC   C2B35746  14.620  24.166   4.936 -0.0188  0.2266 -0.2563
 2946POPC   C3B35747  14.533  24.270   5.343 -0.1065 -0.2495 -0.3352
 2946POPC   C4B35748  14.639  24.558   5.696 -0.0013 -0.0603  0.0776
 2947POPC   NC335749   4.556  21.183   4.263 -0.1329  0.3028  0.0828
 2947POPC   PO435750   4.872  21.216   4.515 -0.1588 -0.3462  0.3212
 2947POPC   GL135751   4.880  21.067   4.869 -0.0813 -0.1730  0.1907
 2947POPC   GL235752   4.645  20.905   4.810  0.1354 -0.1780  0.1010
 2947POPC   C1A35753   4.879  20.989   5.324 -0.0804 -0.0961 -0.1678
 2947POPC   D2A35754   4.835  21.128   5.777  0.0456 -0.2531  0.2737
 2947POPC   C3A35755   5.101  21.559   5.859 -0.2367  0.1730  0.1916
 2947POPC   C4A35756   5.168  21.983   5.912  0.2545 -0.3305  0.2664
 2947POPC   C1B35757   4.360  20.932   5.194  0.0588  0.0551  0.0744
 2947POPC   C2B35758   3.968  20.854   5.394 -0.1281  0.0210  0.1895
 2947POPC   C3B35759   3.662  20.555   5.551  0.2881  0.1616 -0.0156
 2947POPC   C4B35760   3.534  20.372   6.017 -0.2159  0.2015 -0.2332
 2948POPC   NC335761  14.425  31.402   3.099  0.2603 -0.0728 -0.1204
 2948POPC   PO435762  14.124  31.523   3.329 -0.2868  0.0794 -0.0941
 2948POPC   GL135763  14.347  31.426   3.709 -0.0260 -0.2458 -0.2775
 2948POPC   GL235764  14.567  31.398   3.653  0.0464  0.0865  0.1578
 2948POPC   C1A35765  14.532  31.789   3.964  0.1999 -0.0051 -0.0220
 2948POPC   D2A35766  14.654  32.196   3.894 -0.1859  0.0964  0.0520
 2948POPC   C3A35767  14.477  32.476   4.236  0.2703  0.2163  0.0480
 2948POPC   C4A35768  14.556  32.645   4.686 -0.3274  0.2272 -0.0476
 2948POPC   C1B35769  14.595  31.333   4.094  0.2968 -0.0801  0.0734
 2948POPC   C2B35770  14.438  31.483   4.491  0.0003 -0.1492 -0.1881
 2948POPC   C3B35771  14.504  31.751   4.882 -0.2292  0.1764  0.0705
 2948POPC   C4B35772  14.489  32.078   5.177  0.0819 -0.0995 -0.0689
 2949POPC   NC335773   3.193  22.217   3.224  0.2420 -0.2641 -0.1301
 2949POPC   PO435774   3.480  22.451   3.327 -0.0833  0.1793 -0.2428
 2949POPC   GL135775   3.388  22.324   3.653 -0.1204 -0.0690  0.2366
 2949POPC   GL235776   3.693  22.198   3.833  0.2229  0.2984  0.1526
 2949POPC   C1A35777   3.292  22.659   3.905 -0.0181 -0.2090  0.3125
 2949POPC   D2A35778   3.345  23.031   4.203  0.2563 -0.0204 -0.4200
 2949POPC   C3A35779   2.983  23.249   4.330 -0.0120  0.3322 -0.0627
 2949POPC   C4A35780   2.599  23.500   4.424 -0.0469 -0.1052 -0.1735
 2949POPC   C1B35781   3.789  22.176   4.285 -0.2326 -0.1181  0.2401
 2949POPC   C2B35782   4.125  22.061   4.610  0.0925 -0.1339 -0.1177
 2949POPC   C3B35783   4.295  22.233   4.944  0.2488 -0.0187  0.0285
 2949POPC   C4B35784   4.343  22.520   5.299  0.1388 -0.1343  0.1981
 2950POPC   NC335785   9.230  23.998   3.338 -0.1687  0.0513 -0.2678
 2950POPC   PO435786   9.294  23.687   3.646 -0.1207 -0.2169 -0.0717
 2950POPC   GL135787   9.559  23.651   3.920 -0.3791  0.3717 -0.0683
 2950POPC   GL235788   9.360  23.777   4.113 -0.0797 -0.3068 -0.3611
 2950POPC   C1A35789   9.720  23.321   4.247 -0.3674 -0.2327 -0.0137
 2950POPC   D2A35790   9.739  23.373   4.719 -0.3301 -0.2922 -0.2145
 2950POPC   C3A35791  10.060  23.332   5.096  0.0450 -0.1173  0.1297
 2950POPC   C4A35792  10.279  23.205   5.442 -0.1811  0.1752 -0.2897
 2950POPC   C1B35793   9.370  23.644   4.527  0.1984 -0.0241  0.2617
 2950POPC   C2B35794   9.364  23.578   5.002 -0.2592 -0.2043 -0.3091
 2950POPC   C3B35795   9.359  23.521   5.473  0.2832 -0.0434  0.0097
 2950POPC   C4B35796   9.400  23.294   5.811 -0.0859  0.1650 -0.2656
 2951POPC   NC335797   5.741  25.226   3.609 -0.2563  0.2128 -0.4353
 2951POPC   PO435798   5.477  25.364   3.838  0.4348  0.1823  0.1446
 2951POPC   GL135799   5.624  25.308   4.193  0.0303 -0.2878 -0.0319
 2951POPC   GL235800   5.847  25.109   4.235 -0.0089  0.0477 -0.2075
 2951POPC   C1A35801   5.622  25.643   4.530 -0.2748 -0.1458 -0.0666
 2951POPC   D2A35802   5.852  25.959   4.777 -0.0045 -0.1175 -0.0642
 2951POPC   C3A35803   5.879  25.787   5.190  0.0232 -0.1837  0.1975
 2951POPC   C4A35804   5.975  25.917   5.593 -0.2157  0.0672 -0.2159
 2951POPC   C1B35805   5.612  25.118   4.619 -0.2273  0.1013 -0.5394
 2951POPC   C2B35806   5.646  25.374   4.974  0.1485 -0.4417 -0.2097
 2951POPC   C3B35807   5.391  25.503   5.342 -0.3446 -0.0475 -0.3129
 2951POPC   C4B35808   5.179  25.352   5.672 -0.0687  0.2988 -0.0714
 2952POPC   NC335809   1.949  20.772   3.545 -0.1356  0.0138  0.2875
 2952POPC   PO435810   1.884  20.858   3.955 -0.3257  0.4085  0.3932
 2952POPC   GL135811   1.732  20.792   4.245 -0.0981 -0.1369 -0.3728
 2952POPC   GL235812   1.787  21.028   4.429  0.0729 -0.1893  0.0911
 2952POPC   C1A35813   1.903  20.591   4.669 -0.1352  0.2534 -0.0469
 2952POPC   D2A35814   1.757  20.263   4.962 -0.0846 -0.1420 -0.0145
 2952POPC   C3A35815   1.594  20.247   5.353  0.3868 -0.2728  0.0958
 2952POPC   C4A35816   1.552  20.283   5.808 -0.1410 -0.0521 -0.1574
 2952POPC   C1B35817   2.012  21.251   4.734 -0.0964 -0.0237 -0.0234
 2952POPC   C2B35818   2.369  21.362   5.043 -0.1676 -0.3208  0.2075
 2952POPC   C3B35819   2.550  21.528   5.434 -0.3095 -0.0511  0.1202
 2952POPC   C4B35820   2.713  21.568   5.829  0.1139 -0.2321 -0.3282
 2953POPC   NC335821  11.473  28.383   3.719  0.2932  0.2642 -0.0798
 2953POPC   PO435822  11.859  28.252   3.616 -0.0781 -0.0764 -0.0111
 2953POPC   GL135823  12.137  28.249   3.923  0.0027  0.3954 -0.4835
 2953POPC   GL235824  12.124  28.109   4.081 -0.1508  0.1731  0.2386
 2953POPC   C1A35825  12.581  28.207   3.999 -0.2165  0.0196  0.2580
 2953POPC   D2A35826  12.827  28.138   4.347 -0.2520 -0.2291 -0.0116
 2953POPC   C3A35827  12.836  28.511   4.617 -0.2888 -0.1838 -0.2624
 2953POPC   C4A35828  12.728  28.957   4.585 -0.1080  0.0802 -0.1124
 2953POPC   C1B35829  12.350  27.881   4.387  0.2048  0.1116 -0.0269
 2953POPC   C2B35830  12.714  27.836   4.689  0.2332  0.3988  0.1322
 2953POPC   C3B35831  13.126  27.920   4.865 -0.3134  0.1071  0.3905
 2953POPC   C4B35832  13.493  28.006   5.067 -0.0939 -0.0701 -0.4124
 2954POPC   NC335833   2.245   4.279   3.867 -0.1045  0.0626  0.0401
 2954POPC   PO435834   2.502   4.535   3.682  0.0531  0.1961 -0.2088
 2954POPC   GL135835   2.499   4.666   3.956 -0.1114 -0.2073  0.1960
 2954POPC   GL235836   2.551   4.865   4.118 -0.2305 -0.2319 -0.2781
 2954POPC   C1A35837   2.313   4.497   4.343 -0.0717  0.0286  0.2073
 2954POPC   D2A35838   2.270   4.560   4.749  0.0139  0.4806  0.0463
 2954POPC   C3A35839   2.278   4.558   5.198 -0.0226  0.0015  0.3076
 2954POPC   C4A35840   2.185   4.312   5.527  0.0272  0.2003  0.0012
 2954POPC   C1B35841   2.616   4.924   4.550  0.1689 -0.1211  0.2712
 2954POPC   C2B35842   2.380   5.006   4.895  0.1248  0.0424  0.0023
 2954POPC   C3B35843   2.375   5.085   5.347 -0.0577 -0.1412 -0.3338
 2954POPC   C4B35844   2.138   5.422   5.546 -0.1259 -0.0693 -0.0846
 2955POPC   NC335845   7.767  16.694   3.327 -0.1663  0.1180  0.2180
 2955POPC   PO435846   8.141  16.666   3.491  0.1384  0.1891 -0.0730
 2955POPC   GL135847   7.992  16.451   3.914  0.2790  0.1264  0.2157
 2955POPC   GL235848   7.693  16.578   3.982 -0.1268  0.0430  0.0128
 2955POPC   C1A35849   8.062  16.732   4.299 -0.3443  0.1706  0.0053
 2955POPC   D2A35850   7.937  16.796   4.752 -0.0362 -0.0737  0.1921
 2955POPC   C3A35851   7.844  16.777   5.209  0.0558 -0.2875 -0.1174
 2955POPC   C4A35852   8.058  16.713   5.610  0.3892  0.3126 -0.2055
 2955POPC   C1B35853   7.503  16.539   4.398  0.0151 -0.2836  0.0596
 2955POPC   C2B35854   7.473  16.553   4.863 -0.0485  0.0892  0.1588
 2955POPC   C3B35855   7.295  16.772   5.266  0.0687  0.4114 -0.0718
 2955POPC   C4B35856   7.271  16.864   5.791  0.1107  0.1764  0.0938
 2956POPC   NC335857   0.704  19.777   4.041 -0.0496 -0.1401  0.0643
 2956POPC   PO435858   0.433  20.021   4.162  0.1753  0.1854  0.0959
 2956POPC   GL135859   0.205  20.094   4.391 -0.0249  0.0243 -0.1494
 2956POPC   GL235860  -0.064  19.877   4.335 -0.0292 -0.1358  0.0509
 2956POPC   C1A35861   0.346  20.308   4.792 -0.0635 -0.1060  0.2642
 2956POPC   D2A35862   0.274  20.220   5.253 -0.1944 -0.3467 -0.1815
 2956POPC   C3A35863   0.269  20.065   5.697 -0.1168 -0.1046 -0.2206
 2956POPC   C4A35864   0.155  20.043   6.104  0.2803  0.1833 -0.4694
 2956POPC   C1B35865   0.046  19.856   4.820  0.0582 -0.2646  0.1160
 2956POPC   C2B35866   0.193  19.761   5.206  0.0326  0.0781  0.1080
 2956POPC   C3B35867   0.062  19.556   5.602 -0.0100  0.1257 -0.2736
 2956POPC   C4B35868   0.355  19.550   5.975  0.1754  0.0830 -0.2085
 2957POPC   NC335869  11.105  10.484   4.035  0.1255 -0.2713 -0.3544
 2957POPC   PO435870  11.420  10.748   3.992 -0.2443  0.1117  0.1077
 2957POPC   GL135871  11.614  10.842   4.396 -0.0887  0.3091  0.0332
 2957POPC   GL235872  11.852  10.692   4.269  0.2611  0.1468 -0.2624
 2957POPC   C1A35873  11.385  11.153   4.654  0.1798  0.1697  0.1260
 2957POPC   D2A35874  11.127  11.149   5.042  0.1563  0.1074 -0.0490
 2957POPC   C3A35875  10.874  11.480   5.098  0.1957  0.2412 -0.0235
 2957POPC   C4A35876  10.622  11.713   4.710 -0.1204 -0.2679 -0.0445
 2957POPC   C1B35877  12.000  10.939   4.622  0.2144  0.2781  0.3688
 2957POPC   C2B35878  12.052  10.904   5.027 -0.1837 -0.2498 -0.0186
 2957POPC   C3B35879  11.942  10.899   5.483 -0.1248  0.1047 -0.1562
 2957POPC   C4B35880  11.850  10.750   5.911  0.3807  0.1345  0.2024
 2958POPC   NC335881  15.286  16.532   3.663  0.1176  0.2057  0.2098
 2958POPC   PO435882  15.411  16.189   3.734 -0.1017 -0.4604  0.0355
 2958POPC   GL135883  15.622  16.267   4.000 -0.1112  0.4813 -0.1344
 2958POPC   GL235884  15.413  16.421   4.155  0.2503  0.2140 -0.1109
 2958POPC   C1A35885  15.836  16.356   4.419  0.2353  0.2693  0.1603
 2958POPC   D2A35886  16.100  16.421   4.758  0.1937  0.2445  0.0633
 2958POPC   C3A35887  15.969  16.431   5.144 -0.0423 -0.2504 -0.3610
 2958POPC   C4A35888  15.977  16.440   5.611 -0.0568  0.1461  0.1148
 2958POPC   C1B35889  15.316  16.148   4.509  0.3771  0.0376 -0.0693
 2958POPC   C2B35890  15.094  15.975   4.913 -0.0458 -0.0489  0.1699
 2958POPC   C3B35891  14.966  16.172   5.297  0.0678 -0.1188  0.0208
 2958POPC   C4B35892  15.113  16.069   5.725 -0.1401  0.1565  0.3122
 2959POPC   NC335893   5.862  13.674   4.017  0.0691 -0.2035 -0.0914
 2959POPC   PO435894   5.517  13.513   3.873 -0.1620  0.0865 -0.5597
 2959POPC   GL135895   5.505  13.518   4.260 -0.0286 -0.1599  0.1307
 2959POPC   GL235896   5.611  13.224   4.367  0.0562  0.1302  0.3368
 2959POPC   C1A35897   5.150  13.412   4.597 -0.0493  0.0369 -0.0335
 2959POPC   D2A35898   5.154  13.506   5.020  0.1151 -0.0851  0.0686
 2959POPC   C3A35899   5.472  13.339   5.263 -0.3885  0.2766 -0.0017
 2959POPC   C4A35900   5.739  13.373   5.623 -0.3616 -0.0450  0.4190
 2959POPC   C1B35901   5.620  13.179   4.821  0.0771  0.3539  0.0691
 2959POPC   C2B35902   5.799  12.962   5.193 -0.3762 -0.2018 -0.6166
 2959POPC   C3B35903   5.586  12.885   5.574  0.0062  0.2423  0.3230
 2959POPC   C4B35904   5.309  13.191   5.785 -0.0073 -0.2473  0.2348
 2960POPC   NC335905  10.419  19.382   3.667 -0.1891  0.0439  0.2257
 2960POPC   PO435906  10.120  19.623   3.571  0.0185  0.1296  0.0008
 2960POPC   GL135907   9.957  19.562   3.878 -0.0355  0.1573 -0.3490
 2960POPC   GL235908   9.671  19.717   3.864 -0.4335 -0.1527  0.2613
 2960POPC   C1A35909   9.935  19.798   4.302  0.2539 -0.1110 -0.0961
 2960POPC   D2A35910   9.682  19.654   4.721 -0.6636  0.0617  0.0623
 2960POPC   C3A35911   9.771  19.669   5.147 -0.1733  0.1179 -0.0023
 2960POPC   C4A35912   9.904  19.566   5.587 -0.1493  0.0735 -0.3473
 2960POPC   C1B35913   9.444  19.838   4.217  0.1905 -0.1978  0.0638
 2960POPC   C2B35914   9.385  20.081   4.667 -0.1715 -0.3103  0.2061
 2960POPC   C3B35915   9.246  19.775   5.050  0.0705 -0.0733 -0.1986
 2960POPC   C4B35916   9.008  19.600   5.383  0.1246  0.1336  0.1257
 2961POPC   NC335917  12.407  30.542   2.900 -0.1124  0.2169 -0.2833
 2961POPC   PO435918  12.761  30.399   3.098 -0.1101  0.1086  0.3485
 2961POPC   GL135919  12.837  30.038   3.364 -0.2269  0.3631 -0.3174
 2961POPC   GL235920  12.942  30.160   3.611 -0.2355  0.0482  0.1047
 2961POPC   C1A35921  12.667  29.824   3.728 -0.6774 -0.2257 -0.1699
 2961POPC   D2A35922  12.804  29.643   4.114  0.2691 -0.1233 -0.1319
 2961POPC   C3A35923  13.017  29.741   4.465 -0.3363  0.1687 -0.1762
 2961POPC   C4A35924  13.161  29.696   4.883  0.3629  0.1185 -0.1438
 2961POPC   C1B35925  13.076  30.053   4.050  0.1635  0.0994  0.4116
 2961POPC   C2B35926  13.443  30.013   4.335 -0.1001  0.0178  0.1756
 2961POPC   C3B35927  13.561  30.019   4.765 -0.2485  0.3705  0.1059
 2961POPC   C4B35928  13.915  30.019   5.093  0.2405 -0.1405  0.0519
 2962POPC   NC335929   3.876  31.330   3.448  0.0167 -0.1429 -0.2311
 2962POPC   PO435930   3.723  30.977   3.584  0.2133  0.1562 -0.0934
 2962POPC   GL135931   3.526  31.126   3.958  0.1159  0.1543 -0.3473
 2962POPC   GL235932   3.704  31.401   3.930 -0.0979 -0.1558 -0.1523
 2962POPC   C1A35933   3.492  31.081   4.455 -0.0632 -0.3723 -0.1220
 2962POPC   D2A35934   3.563  31.141   4.900  0.1066  0.0497 -0.1112
 2962POPC   C3A35935   3.675  30.806   5.155  0.0200  0.0861 -0.1578
 2962POPC   C4A35936   3.908  30.443   5.351 -0.0661 -0.0786 -0.0925
 2962POPC   C1B35937   3.866  31.402   4.338  0.0706  0.1201 -0.1228
 2962POPC   C2B35938   3.903  31.431   4.779 -0.1928  0.1337  0.0846
 2962POPC   C3B35939   4.001  31.175   5.172  0.1306 -0.0551  0.1810
 2962POPC   C4B35940   4.223  30.907   5.521  0.1709  0.1200  0.3015
 2963POPC   NC335941   1.077  29.755   3.903  0.3654 -0.0721  0.1473
 2963POPC   PO435942   1.303  29.413   3.837 -0.1346  0.1898 -0.0648
 2963POPC   GL135943   1.385  29.572   4.233  0.0461  0.2064  0.1202
 2963POPC   GL235944   1.157  29.730   4.378  0.1935  0.1111 -0.2607
 2963POPC   C1A35945   1.726  29.680   4.535  0.0665 -0.0321 -0.0242
 2963POPC   D2A35946   1.798  29.608   4.976 -0.1649  0.0592  0.0210
 2963POPC   C3A35947   1.732  29.821   5.345 -0.1006 -0.0969  0.0756
 2963POPC   C4A35948   1.689  30.062   5.727  0.1784 -0.0702 -0.2891
 2963POPC   C1B35949   0.959  29.799   4.802 -0.0467 -0.4725  0.2684
 2963POPC   C2B35950   1.288  29.738   5.125  0.1415 -0.0156  0.2439
 2963POPC   C3B35951   1.241  29.997   5.503 -0.0402  0.0049 -0.3622
 2963POPC   C4B35952   1.146  30.003   6.009  0.2127  0.0499 -0.1138
 2964POPC   NC335953  12.701  20.062   2.892  0.3956  0.2291 -0.0377
 2964POPC   PO435954  12.379  20.191   3.106 -0.0310  0.2535  0.1820
 2964POPC   GL135955  12.157  20.020   3.431  0.1896 -0.1717  0.4643
 2964POPC   GL235956  12.152  19.783   3.600 -0.3639  0.0642 -0.2250
 2964POPC   C1A35957  11.971  20.203   3.821 -0.0425 -0.1129 -0.2041
 2964POPC   D2A35958  11.753  20.147   4.238 -0.0188  0.2094 -0.2512
 2964POPC   C3A35959  11.786  20.485   4.562  0.5161 -0.1958 -0.0897
 2964POPC   C4A35960  11.931  20.574   4.994 -0.0445 -0.1431 -0.3164
 2964POPC   C1B35961  12.529  19.678   3.805 -0.0222 -0.2063  0.2528
 2964POPC   C2B35962  12.819  19.432   4.014  0.2271  0.0701  0.2319
 2964POPC   C3B35963  12.909  19.348   4.472  0.0837 -0.1860 -0.0199
 2964POPC   C4B35964  13.032  19.299   4.939 -0.1139  0.3263  0.0565
 2965POPC   NC335965   2.894   0.466   3.698 -0.0784  0.2026 -0.4454
 2965POPC   PO435966   2.985   0.091   3.689  0.0331  0.0950 -0.0589
 2965POPC   GL135967   3.020   0.178   4.094 -0.1352 -0.2494  0.0016
 2965POPC   GL235968   2.857   0.424   4.215 -0.2009 -0.0743  0.0727
 2965POPC   C1A35969   3.352   0.392   4.357 -0.2940  0.2889 -0.0253
 2965POPC   D2A35970   3.487   0.562   4.752  0.0352  0.3816 -0.1619
 2965POPC   C3A35971   3.146   0.772   5.028 -0.0438  0.1716 -0.2896
 2965POPC   C4A35972   3.078   1.182   5.269 -0.1040  0.3210  0.0505
 2965POPC   C1B35973   2.829   0.542   4.664 -0.2654 -0.0014  0.1207
 2965POPC   C2B35974   2.628   0.502   5.092  0.1655 -0.3050  0.2877
 2965POPC   C3B35975   2.709   0.400   5.515  0.1264  0.2035  0.3171
 2965POPC   C4B35976   2.826   0.039   5.788 -0.0055  0.3590 -0.1295
 2966POPC   NC335977  10.782   2.142   3.772  0.0025  0.1488  0.0526
 2966POPC   PO435978  10.511   2.405   3.897  0.0088  0.3054  0.0809
 2966POPC   GL135979  10.257   2.410   4.066  0.2653  0.0039  0.5080
 2966POPC   GL235980   9.984   2.331   3.996 -0.3256 -0.2791  0.2935
 2966POPC   C1A35981  10.094   2.631   4.454 -0.1883 -0.1106 -0.1885
 2966POPC   D2A35982  10.085   2.782   4.840  0.1022 -0.2049 -0.0313
 2966POPC   C3A35983  10.422   2.548   5.093 -0.1181 -0.1016  0.1466
 2966POPC   C4A35984  10.794   2.243   5.240  0.1549  0.0145 -0.0102
 2966POPC   C1B35985   9.806   2.134   4.328 -0.2630  0.1664 -0.0114
 2966POPC   C2B35986   9.683   1.847   4.636  0.0560  0.4073 -0.1519
 2966POPC   C3B35987   9.435   1.917   4.977  0.0939  0.0269  0.0362
 2966POPC   C4B35988   9.151   2.004   5.357 -0.0838  0.1485  0.1296
 2967POPC   NC335989  15.475  12.828   3.188 -0.1977  0.0447 -0.1346
 2967POPC   PO435990  15.334  13.051   3.466 -0.1344  0.0495  0.1893
 2967POPC   GL135991  15.163  12.912   3.795  0.0220  0.1291  0.2468
 2967POPC   GL235992  15.119  13.208   3.889 -0.0899 -0.1807  0.4831
 2967POPC   C1A35993  15.228  12.737   4.255 -0.0865 -0.0962  0.0015
 2967POPC   D2A35994  15.578  12.827   4.577 -0.1620  0.0038 -0.0695
 2967POPC   C3A35995  15.416  12.769   5.038  0.0229  0.0767 -0.0561
 2967POPC   C4A35996  15.080  12.811   5.383  0.3061  0.1713  0.0099
 2967POPC   C1B35997  14.845  13.145   4.213 -0.2071  0.0190 -0.1859
 2967POPC   C2B35998  14.670  13.261   4.598  0.0958  0.0968 -0.2774
 2967POPC   C3B35999  14.446  13.109   4.919 -0.0557 -0.0354 -0.0614
 2967POPC   C4B36000  14.235  13.361   5.289  0.2714  0.0959  0.2783
 2968POPC   NC336001   2.299  20.831   4.192  0.2340 -0.0986 -0.1591
 2968POPC   PO436002   2.563  21.027   3.973 -0.1921 -0.0197 -0.3622
 2968POPC   GL136003   2.728  20.959   4.311 -0.0926  0.1672  0.2768
 2968POPC   GL236004   2.816  20.703   4.311  0.0283 -0.1335  0.0920
 2968POPC   C1A36005   2.454  20.798   4.670 -0.0113  0.0798  0.0584
 2968POPC   D2A36006   2.294  20.405   4.915 -0.0074  0.2084 -0.2209
 2968POPC   C3A36007   2.289  20.331   5.386 -0.0159  0.4335 -0.0623
 2968POPC   C4A36008   1.952  20.183   5.699 -0.2685 -0.2301 -0.0281
 2968POPC   C1B36009   3.006  20.937   4.656 -0.0157  0.1537 -0.1793
 2968POPC   C2B36010   2.854  21.206   5.003 -0.0911 -0.0031 -0.2062
 2968POPC   C3B36011   3.041  21.436   5.321 -0.3277  0.0646 -0.2198
 2968POPC   C4B36012   3.079  21.766   5.595  0.0353 -0.2321 -0.0893
 2969POPC   NC336013  12.793  22.487   3.518  0.2631 -0.3013  0.1151
 2969POPC   PO436014  12.805  22.650   3.883 -0.0279 -0.1512 -0.1336
 2969POPC   GL136015  12.914  22.291   4.076  0.1782  0.1093  0.3233
 2969POPC   GL236016  13.125  22.322   4.212 -0.2117  0.2083 -0.2544
 2969POPC   C1A36017  12.715  22.192   4.489 -0.2651  0.1940  0.0412
 2969POPC   D2A36018  12.507  22.067   4.949 -0.1057 -0.2060 -0.0062
 2969POPC   C3A36019  12.150  22.164   5.187 -0.3209 -0.0241  0.1316
 2969POPC   C4A36020  12.056  22.548   5.410  0.3502 -0.0665 -0.2196
 2969POPC   C1B36021  13.442  22.382   4.571 -0.0556  0.0235  0.1086
 2969POPC   C2B36022  13.596  22.141   4.929 -0.0833  0.0257  0.2318
 2969POPC   C3B36023  13.585  21.817   5.273 -0.1074  0.0101  0.0470
 2969POPC   C4B36024  13.496  21.399   5.454  0.5086 -0.0680 -0.1520
 2970POPC   NC336025   9.536   6.648   3.167 -0.1335  0.2763  0.0624
 2970POPC   PO436026   9.638   6.919   3.461 -0.1167  0.0783  0.0434
 2970POPC   GL136027   9.717   6.945   3.838  0.3463 -0.0793 -0.1194
 2970POPC   GL236028   9.982   6.930   4.012  0.2104  0.0489  0.1781
 2970POPC   C1A36029   9.490   6.949   4.237 -0.0957  0.0610  0.0088
 2970POPC   D2A36030   9.351   7.171   4.634 -0.0333 -0.4221  0.0150
 2970POPC   C3A36031   9.545   7.380   5.010 -0.1339 -0.0080 -0.0171
 2970POPC   C4A36032   9.802   7.530   5.358  0.0856 -0.0369  0.3276
 2970POPC   C1B36033   9.942   7.008   4.446  0.0578  0.2385  0.1098
 2970POPC   C2B36034   9.910   7.008   4.925  0.3472  0.1210  0.0602
 2970POPC   C3B36035   9.704   6.993   5.337 -0.0452  0.3158  0.1154
 2970POPC   C4B36036   9.811   7.008   5.799 -0.1352  0.1818  0.1195
 2971POPC   NC336037   9.230  12.415   3.061  0.0671  0.2811  0.1540
 2971POPC   PO436038   9.357  12.028   3.113 -0.2679 -0.0134 -0.0050
 2971POPC   GL136039   9.292  11.577   3.174 -0.2736 -0.3133 -0.2164
 2971POPC   GL236040   9.462  11.432   3.379  0.3113 -0.0336 -0.0514
 2971POPC   C1A36041   9.164  11.103   3.101  0.1063 -0.0159  0.2525
 2971POPC   D2A36042   9.084  10.698   3.257 -0.0026 -0.1507 -0.1932
 2971POPC   C3A36043   8.615  10.668   3.298 -0.0053  0.1154  0.3893
 2971POPC   C4A36044   8.344  10.952   3.548  0.0060 -0.0758  0.1807
 2971POPC   C1B36045   9.237  11.474   3.806  0.0227 -0.1586  0.0776
 2971POPC   C2B36046   9.183  11.299   4.256 -0.0862  0.2696 -0.1120
 2971POPC   C3B36047   8.969  11.090   4.631 -0.0393  0.0911  0.4704
 2971POPC   C4B36048   8.828  10.822   5.008 -0.1137 -0.0698  0.0672
 2972POPC   NC336049   7.146  19.153   3.352 -0.0216  0.1167 -0.4256
 2972POPC   PO436050   6.977  18.859   3.605  0.1526  0.0376  0.1954
 2972POPC   GL136051   6.750  18.741   3.920  0.3075  0.1953  0.1213
 2972POPC   GL236052   6.941  18.486   3.971 -0.2652 -0.2033 -0.0753
 2972POPC   C1A36053   6.693  18.827   4.357 -0.0627  0.0969 -0.0649
 2972POPC   D2A36054   6.772  18.831   4.805  0.1398 -0.0763  0.0899
 2972POPC   C3A36055   6.533  18.736   5.216 -0.1140  0.0444  0.2983
 2972POPC   C4A36056   6.573  18.380   5.545 -0.1205 -0.2746  0.0591
 2972POPC   C1B36057   7.018  18.413   4.443 -0.0951 -0.0469 -0.2228
 2972POPC   C2B36058   7.024  18.413   4.927 -0.0818 -0.1429  0.0703
 2972POPC   C3B36059   7.095  18.564   5.406  0.1329 -0.0696  0.1233
 2972POPC   C4B36060   7.138  18.372   5.823  0.0167 -0.1332 -0.2037
 2973POPC   NC336061   8.849  14.500   3.494 -0.1779  0.0908 -0.0192
 2973POPC   PO436062   8.974  14.109   3.589 -0.0143 -0.0659  0.2482
 2973POPC   GL136063   8.832  14.008   3.954 -0.2530 -0.0375 -0.0688
 2973POPC   GL236064   8.536  14.070   3.963  0.0849 -0.0594  0.2537
 2973POPC   C1A36065   8.901  13.579   4.180  0.1749  0.1607  0.3052
 2973POPC   D2A36066   9.163  13.192   4.306 -0.1810  0.1073  0.0287
 2973POPC   C3A36067   9.588  13.229   4.374  0.0542  0.1284 -0.0992
 2973POPC   C4A36068   9.946  13.028   4.185 -0.1934 -0.0181 -0.0543
 2973POPC   C1B36069   8.594  13.973   4.398 -0.1479 -0.0296 -0.0758
 2973POPC   C2B36070   8.735  14.047   4.879  0.2385  0.2896 -0.1662
 2973POPC   C3B36071   8.533  14.013   5.329 -0.1620  0.1428 -0.0101
 2973POPC   C4B36072   8.739  14.000   5.724  0.0999  0.0537 -0.3122
 2974POPC   NC336073  13.352  17.110   3.224 -0.1646 -0.5822  0.0881
 2974POPC   PO436074  13.616  17.065   3.455  0.2084 -0.1841  0.0663
 2974POPC   GL136075  13.616  17.026   3.800 -0.1196 -0.0402 -0.0731
 2974POPC   GL236076  13.850  16.947   3.964 -0.1081  0.1738 -0.1736
 2974POPC   C1A36077  13.539  17.233   4.222  0.2424  0.1493 -0.0510
 2974POPC   D2A36078  13.583  17.211   4.665  0.0590 -0.1046 -0.0186
 2974POPC   C3A36079  13.543  17.429   5.063  0.1304 -0.1726  0.1141
 2974POPC   C4A36080  13.470  17.840   5.306  0.2255 -0.0759  0.1748
 2974POPC   C1B36081  13.912  16.754   4.429  0.1025  0.2627 -0.1498
 2974POPC   C2B36082  13.994  16.594   4.861 -0.4504  0.0191 -0.1741
 2974POPC   C3B36083  14.150  16.331   5.252  0.0579 -0.3861  0.0637
 2974POPC   C4B36084  14.128  16.055   5.618 -0.2297  0.2433  0.2006
 2975POPC   NC336085  10.217  18.588   3.620  0.4666 -0.1009  0.2858
 2975POPC   PO436086  10.460  18.912   3.528  0.1361 -0.1066  0.0705
 2975POPC   GL136087  10.441  19.043   3.990 -0.3369  0.0193  0.2146
 2975POPC   GL236088  10.452  18.791   4.085 -0.2517  0.2162 -0.1611
 2975POPC   C1A36089  10.708  19.395   4.159  0.0171  0.1346 -0.5089
 2975POPC   D2A36090  10.852  19.712   4.454  0.2897 -0.0750 -0.0304
 2975POPC   C3A36091  11.021  19.735   4.851  0.1420  0.2451 -0.1367
 2975POPC   C4A36092  11.356  19.757   5.162 -0.1659  0.0032 -0.1579
 2975POPC   C1B36093  10.527  19.023   4.449 -0.2072  0.3340  0.3018
 2975POPC   C2B36094  10.458  19.426   4.644  0.0034 -0.0285 -0.0634
 2975POPC   C3B36095  10.253  19.817   4.871 -0.1489 -0.0420  0.0359
 2975POPC   C4B36096  10.181  20.080   5.236  0.2287  0.2897 -0.2283
 2976POPC   NC336097   1.438  10.790   3.688  0.1999 -0.0178 -0.0803
 2976POPC   PO436098   1.764  10.567   3.778  0.1602 -0.0107  0.0414
 2976POPC   GL136099   1.625  10.725   4.138  0.1113 -0.0693  0.0109
 2976POPC   GL236100   1.341  10.856   4.216 -0.2994  0.1151  0.1538
 2976POPC   C1A36101   1.674  10.537   4.569  0.2584 -0.3055  0.0865
 2976POPC   D2A36102   1.550  10.625   4.994  0.1203  0.3243  0.3195
 2976POPC   C3A36103   1.702  10.502   5.441  0.2976  0.3307 -0.2315
 2976POPC   C4A36104   1.726  10.573   5.893  0.0871 -0.1379 -0.2416
 2976POPC   C1B36105   1.148  10.713   4.608  0.1435  0.0575  0.1719
 2976POPC   C2B36106   1.000  10.543   5.024  0.1589  0.1953 -0.1019
 2976POPC   C3B36107   0.975  10.454   5.490 -0.3395  0.1933 -0.2066
 2976POPC   C4B36108   1.105  10.321   5.890  0.0031 -0.1202 -0.0885
 2977POPC   NC336109   1.839   1.167   4.003  0.1728 -0.0468 -0.0499
 2977POPC   PO436110   1.682   0.927   3.741  0.3235 -0.0043 -0.0008
 2977POPC   GL136111   1.479   0.769   4.155 -0.3268  0.0497  0.2356
 2977POPC   GL236112   1.671   0.819   4.342  0.0332  0.2115 -0.2805
 2977POPC   C1A36113   1.139   0.966   4.439  0.2414 -0.0209 -0.2003
 2977POPC   D2A36114   0.782   1.074   4.695 -0.1251 -0.0504 -0.0781
 2977POPC   C3A36115   0.473   1.082   5.049 -0.0564 -0.3080 -0.0533
 2977POPC   C4A36116   0.258   0.803   5.392 -0.0104 -0.2196  0.1772
 2977POPC   C1B36117   1.527   0.951   4.776 -0.2495  0.1642  0.0808
 2977POPC   C2B36118   1.625   1.156   5.182  0.0259 -0.2292  0.1148
 2977POPC   C3B36119   1.538   1.366   5.543 -0.1670  0.2139  0.2765
 2977POPC   C4B36120   1.416   1.556   5.968  0.1639  0.0080 -0.0902
 2978POPC   NC336121   3.396   0.662   3.935 -0.1305 -0.4357  0.0648
 2978POPC   PO436122   3.187   0.947   3.964 -0.1510 -0.1909  0.0177
 2978POPC   GL136123   3.369   1.053   4.310  0.0896 -0.0559 -0.0310
 2978POPC   GL236124   3.146   0.843   4.448 -0.0634  0.0635  0.0743
 2978POPC   C1A36125   3.469   1.078   4.786 -0.3763 -0.0241 -0.0124
 2978POPC   D2A36126   3.683   0.909   5.130 -0.2596  0.0499 -0.3431
 2978POPC   C3A36127   3.533   0.563   5.402 -0.2558 -0.0663 -0.0741
 2978POPC   C4A36128   3.154   0.546   5.780 -0.2577  0.2039 -0.0772
 2978POPC   C1B36129   2.919   1.118   4.766 -0.0626  0.0320  0.1716
 2978POPC   C2B36130   2.652   1.324   5.097  0.1891 -0.2879  0.2624
 2978POPC   C3B36131   2.637   1.499   5.522 -0.0092 -0.1043 -0.0260
 2978POPC   C4B36132   2.851   1.621   5.898  0.2133 -0.0466  0.1260
 2979POPC   NC336133  10.965   5.737   4.198 -0.3872  0.1170 -0.1339
 2979POPC   PO436134  10.894   6.030   3.961  0.1244 -0.0555  0.0440
 2979POPC   GL136135  10.872   6.208   4.303 -0.1991  0.0663  0.0103
 2979POPC   GL236136  10.799   6.502   4.149  0.1213 -0.0251 -0.0897
 2979POPC   C1A36137  10.763   5.992   4.690  0.0486 -0.0306 -0.0457
 2979POPC   D2A36138  10.782   5.796   5.092 -0.0959 -0.4090 -0.2287
 2979POPC   C3A36139  10.975   5.658   5.482 -0.0449  0.4006  0.0020
 2979POPC   C4A36140  11.352   5.427   5.607 -0.0152  0.0661  0.0297
 2979POPC   C1B36141  10.834   6.617   4.605  0.1005 -0.0175 -0.1082
 2979POPC   C2B36142  11.021   6.432   4.971 -0.0072  0.2209 -0.2804
 2979POPC   C3B36143  11.028   6.169   5.384  0.0139 -0.0632 -0.0892
 2979POPC   C4B36144  10.935   5.996   5.843  0.1814 -0.0764  0.0663
 2980POPC   NC336145   8.833   4.042   3.410  0.2691  0.3152 -0.2981
 2980POPC   PO436146   9.174   4.006   3.554  0.0032  0.3493 -0.0729
 2980POPC   GL136147   9.253   3.735   3.884  0.1051 -0.2315  0.0879
 2980POPC   GL236148   9.204   3.961   4.036  0.0587 -0.2189  0.1809
 2980POPC   C1A36149   8.984   3.384   4.143 -0.1883  0.1861 -0.1973
 2980POPC   D2A36150   8.731   3.138   4.496  0.1543  0.0402 -0.1708
 2980POPC   C3A36151   9.053   3.175   4.853  0.3440  0.0017  0.0055
 2980POPC   C4A36152   9.306   2.924   5.117  0.2008 -0.1602 -0.0132
 2980POPC   C1B36153   9.127   4.052   4.483  0.1813 -0.2542  0.1795
 2980POPC   C2B36154   9.207   4.254   4.841  0.0333  0.2287 -0.1099
 2980POPC   C3B36155   9.023   4.349   5.228 -0.2253 -0.0410 -0.2217
 2980POPC   C4B36156   8.878   4.748   5.490 -0.1253  0.2011 -0.2715
 2981POPC   NC336157  15.119   2.688   3.335 -0.0508 -0.2801  0.0864
 2981POPC   PO436158  15.145   2.625   3.715 -0.1537  0.3591 -0.0168
 2981POPC   GL136159  15.122   2.665   4.045 -0.0789  0.1461 -0.1931
 2981POPC   GL236160  15.364   2.848   4.118  0.0167 -0.2874  0.1405
 2981POPC   C1A36161  14.850   2.380   4.281  0.0166 -0.0813 -0.1259
 2981POPC   D2A36162  14.725   2.173   4.683  0.2538  0.1673  0.0558
 2981POPC   C3A36163  14.845   2.204   5.116 -0.2141  0.2813  0.1152
 2981POPC   C4A36164  14.983   2.266   5.530  0.0011 -0.1155  0.1644
 2981POPC   C1B36165  15.445   2.605   4.531  0.0264  0.1944  0.2824
 2981POPC   C2B36166  15.605   2.672   4.939 -0.0201  0.0203  0.0547
 2981POPC   C3B36167  15.618   2.866   5.340  0.0408  0.0122 -0.1153
 2981POPC   C4B36168  15.596   3.242   5.594 -0.1280 -0.0651 -0.1714
 2982POPC   NC336169  11.433  12.784   3.630  0.2832 -0.2145  0.1940
 2982POPC   PO436170  11.349  13.195   3.616 -0.1804 -0.0209  0.2947
 2982POPC   GL136171  11.169  13.105   3.943 -0.1924  0.2987 -0.2669
 2982POPC   GL236172  11.072  12.818   4.082  0.2111 -0.0152  0.2928
 2982POPC   C1A36173  11.275  13.126   4.395  0.1454 -0.2019 -0.2635
 2982POPC   D2A36174  11.185  13.100   4.849  0.3071  0.3177  0.1756
 2982POPC   C3A36175  11.529  12.919   5.082 -0.0442  0.0776 -0.0655
 2982POPC   C4A36176  11.849  12.557   5.183 -0.0278  0.0713 -0.1551
 2982POPC   C1B36177  10.799  12.940   4.478 -0.1237 -0.1738 -0.0408
 2982POPC   C2B36178  10.700  12.895   4.954 -0.1101 -0.1238  0.1716
 2982POPC   C3B36179  10.957  12.976   5.313  0.1753 -0.0150 -0.1831
 2982POPC   C4B36180  11.324  12.927   5.544  0.3141  0.1188 -0.0584
 2983POPC   NC336181  12.007  24.229   3.221  0.1610  0.0356  0.1383
 2983POPC   PO436182  11.872  24.458   3.499 -0.2508 -0.2415  0.1176
 2983POPC   GL136183  11.953  24.095   3.819  0.0768  0.0428 -0.3066
 2983POPC   GL236184  12.053  23.901   3.680 -0.0004  0.2306 -0.1381
 2983POPC   C1A36185  11.597  24.051   4.148 -0.1525 -0.0914 -0.0282
 2983POPC   D2A36186  11.198  24.197   4.208 -0.0410 -0.0015 -0.0851
 2983POPC   C3A36187  10.816  24.232   4.466  0.1539  0.1221 -0.2051
 2983POPC   C4A36188  10.617  24.468   4.801 -0.3282  0.1782 -0.1399
 2983POPC   C1B36189  12.087  23.848   4.171  0.0008 -0.1044 -0.0727
 2983POPC   C2B36190  12.087  23.674   4.622  0.1286 -0.1892 -0.1336
 2983POPC   C3B36191  12.208  23.557   5.107  0.2173 -0.0287  0.1673
 2983POPC   C4B36192  12.157  23.363   5.515 -0.2805 -0.1058  0.1857
 2984POPC   NC336193   8.938  23.354   3.690 -0.1554  0.0228  0.1169
 2984POPC   PO436194   8.845  23.675   3.898  0.0836  0.1135 -0.2276
 2984POPC   GL136195   8.854  23.535   4.235  0.0567 -0.1517  0.0857
 2984POPC   GL236196   9.165  23.352   4.224  0.0716 -0.2672  0.0425
 2984POPC   C1A36197   8.813  23.776   4.667  0.2108  0.2506  0.0952
 2984POPC   D2A36198   9.176  24.007   4.851 -0.0766  0.2510  0.0367
 2984POPC   C3A36199   9.298  24.092   5.293  0.0484  0.0442  0.0450
 2984POPC   C4A36200   9.043  24.148   5.695 -0.0449 -0.0260  0.1744
 2984POPC   C1B36201   8.990  23.298   4.672 -0.1002  0.0926  0.0225
 2984POPC   C2B36202   8.895  23.481   5.091  0.2112  0.1515 -0.1547
 2984POPC   C3B36203   8.887  23.672   5.512 -0.0219 -0.0400 -0.0026
 2984POPC   C4B36204   9.017  23.744   5.946  0.1777  0.0040 -0.0479
 2985POPC   NC336205   8.440  25.359   3.842 -0.2012 -0.1273 -0.1084
 2985POPC   PO436206   8.809  25.407   3.793 -0.1612  0.0375 -0.2789
 2985POPC   GL136207   8.988  25.422   4.138 -0.0295 -0.2744 -0.0497
 2985POPC   GL236208   8.736  25.370   4.299  0.0920  0.0084 -0.4638
 2985POPC   C1A36209   9.109  25.126   4.468 -0.1810 -0.0939 -0.1416
 2985POPC   D2A36210   9.264  24.989   4.823  0.1179 -0.3439  0.1276
 2985POPC   C3A36211   9.043  25.101   5.269 -0.0876 -0.1397  0.0436
 2985POPC   C4A36212   8.721  25.044   5.610  0.3959 -0.0921  0.3195
 2985POPC   C1B36213   8.630  25.193   4.682 -0.0565  0.3805  0.1644
 2985POPC   C2B36214   8.524  25.191   5.145  0.0462 -0.1161  0.0574
 2985POPC   C3B36215   8.296  25.218   5.529  0.4360 -0.1524  0.0589
 2985POPC   C4B36216   8.004  24.937   5.743 -0.0966 -0.0159 -0.2406
 2986POPC   NC336217   0.680  24.809   3.514  0.0842  0.1652  0.1532
 2986POPC   PO436218   0.830  24.478   3.683 -0.1318 -0.0240 -0.0847
 2986POPC   GL136219   0.910  24.332   4.042 -0.3458 -0.3217 -0.1165
 2986POPC   GL236220   0.679  24.318   4.233  0.2437  0.0164 -0.1760
 2986POPC   C1A36221   1.098  24.014   4.383  0.4026 -0.1438  0.0169
 2986POPC   D2A36222   1.424  23.768   4.622  0.2755 -0.3359  0.6093
 2986POPC   C3A36223   1.756  23.766   4.839  0.0120  0.0887  0.1316
 2986POPC   C4A36224   2.140  23.484   4.878 -0.2774  0.0744  0.1006
 2986POPC   C1B36225   0.736  24.213   4.671  0.1022  0.4074 -0.2789
 2986POPC   C2B36226   1.081  23.981   4.908  0.1573 -0.2062  0.0284
 2986POPC   C3B36227   1.382  23.649   5.165  0.1508 -0.0178 -0.4025
 2986POPC   C4B36228   1.497  23.256   5.477  0.0555  0.2848 -0.0796
 2987POPC   NC336229  12.464   7.348   3.519  0.2242  0.0563  0.0236
 2987POPC   PO436230  12.418   7.517   3.865 -0.1536  0.1086  0.0765
 2987POPC   GL136231  12.619   7.245   4.048 -0.1173 -0.4471 -0.4981
 2987POPC   GL236232  12.471   7.201   4.355  0.3131  0.0157 -0.0125
 2987POPC   C1A36233  12.905   7.435   4.392  0.0353 -0.0663  0.1357
 2987POPC   D2A36234  13.103   7.319   4.772  0.0717 -0.0180 -0.1063
 2987POPC   C3A36235  12.930   7.424   5.187 -0.2043 -0.0269 -0.4465
 2987POPC   C4A36236  12.958   7.553   5.651 -0.1988  0.2452 -0.1348
 2987POPC   C1B36237  12.223   7.466   4.661 -0.0943  0.0499  0.3082
 2987POPC   C2B36238  12.385   7.475   5.058  0.2178  0.0977  0.0314
 2987POPC   C3B36239  12.403   7.464   5.500  0.0093  0.0847 -0.0625
 2987POPC   C4B36240  12.539   7.357   5.902  0.1069  0.0978  0.0302
 2988POPC   NC336241  14.652  10.811   3.840  0.3105 -0.0974  0.2009
 2988POPC   PO436242  14.303  10.659   3.978 -0.0256 -0.1553 -0.0625
 2988POPC   GL136243  14.173  10.510   4.322  0.2368  0.0426 -0.5119
 2988POPC   GL236244  14.224  10.772   4.488  0.0964  0.1263 -0.1216
 2988POPC   C1A36245  14.267  10.320   4.735 -0.0678 -0.1563  0.1691
 2988POPC   D2A36246  14.372  10.315   5.166 -0.0776 -0.0610  0.1030
 2988POPC   C3A36247  14.234  10.720   5.419 -0.2044 -0.0066  0.1168
 2988POPC   C4A36248  14.267  11.112   5.629 -0.3477 -0.1553  0.0976
 2988POPC   C1B36249  14.250  10.744   4.892 -0.0535 -0.1784 -0.2436
 2988POPC   C2B36250  14.463  11.089   5.164  0.0184 -0.0926  0.2111
 2988POPC   C3B36251  14.730  11.242   5.407 -0.3048  0.0529 -0.1732
 2988POPC   C4B36252  15.135  11.443   5.581  0.2662 -0.2246  0.0397
 2989POPC   NC336253   1.897  28.718   3.948 -0.0194 -0.2996 -0.1068
 2989POPC   PO436254   1.914  28.316   3.865 -0.0660  0.0472 -0.2118
 2989POPC   GL136255   1.878  28.398   4.329  0.3612 -0.0618  0.2291
 2989POPC   GL236256   1.512  28.331   4.215  0.0110 -0.3017  0.0641
 2989POPC   C1A36257   1.925  28.512   4.801 -0.1345  0.1877 -0.2018
 2989POPC   D2A36258   2.050  28.546   5.217 -0.0610  0.1088 -0.2177
 2989POPC   C3A36259   1.969  28.891   5.557 -0.0429  0.2011 -0.0676
 2989POPC   C4A36260   1.719  28.792   5.989  0.3268 -0.1413 -0.2445
 2989POPC   C1B36261   1.608  28.200   4.634 -0.0215  0.1577 -0.1343
 2989POPC   C2B36262   1.755  28.108   5.037  0.1245  0.1681  0.0415
 2989POPC   C3B36263   1.844  27.744   5.240  0.0916 -0.2193  0.0307
 2989POPC   C4B36264   2.214  27.483   5.365 -0.0064  0.1678 -0.0812
 2990POPC   NC336265  12.561  23.894   3.419  0.3277 -0.2874 -0.1234
 2990POPC   PO436266  12.402  24.282   3.501  0.1685  0.1721 -0.2996
 2990POPC   GL136267  12.341  24.224   3.939  0.1188 -0.1636 -0.0456
 2990POPC   GL236268  12.656  24.149   3.989 -0.0197  0.2889  0.2968
 2990POPC   C1A36269  12.093  24.328   4.303 -0.1267  0.0602  0.2387
 2990POPC   D2A36270  11.893  24.128   4.594  0.0602  0.0174 -0.2413
 2990POPC   C3A36271  11.658  24.346   4.929 -0.1551 -0.3100  0.4070
 2990POPC   C4A36272  11.500  24.619   5.249  0.1762 -0.0598  0.1157
 2990POPC   C1B36273  12.475  24.109   4.409 -0.1330 -0.4413 -0.1133
 2990POPC   C2B36274  12.378  24.130   4.843  0.1753  0.0575  0.1624
 2990POPC   C3B36275  11.985  24.044   5.120 -0.3382 -0.0767 -0.2888
 2990POPC   C4B36276  11.863  24.260   5.506  0.2223  0.3324  0.3843
 2991POPC   NC336277   4.511  22.784   3.537 -0.2413 -0.0537  0.0414
 2991POPC   PO436278   4.838  22.562   3.604 -0.0806  0.1307 -0.3943
 2991POPC   GL136279   4.875  22.753   3.957  0.0297 -0.1046 -0.1536
 2991POPC   GL236280   5.190  22.835   3.988 -0.1246  0.1030 -0.0536
 2991POPC   C1A36281   4.732  22.842   4.369  0.0985  0.0538 -0.0135
 2991POPC   D2A36282   4.468  22.827   4.749 -0.1083  0.1168 -0.2257
 2991POPC   C3A36283   4.378  23.144   5.045 -0.3253  0.3251  0.1902
 2991POPC   C4A36284   4.057  23.560   5.118 -0.1340  0.3472  0.3382
 2991POPC   C1B36285   5.199  22.932   4.375  0.4073  0.0387 -0.0375
 2991POPC   C2B36286   5.009  23.113   4.791  0.1372  0.0092 -0.0640
 2991POPC   C3B36287   4.911  23.373   5.179 -0.0147  0.1542 -0.2333
 2991POPC   C4B36288   4.903  23.564   5.616 -0.0361  0.1935 -0.3618
 2992POPC   NC336289  10.572   8.770   3.779  0.2991 -0.2495  0.1525
 2992POPC   PO436290  10.368   8.413   3.586  0.2336 -0.0296 -0.0631
 2992POPC   GL136291  10.650   8.334   3.934  0.1784 -0.0343  0.4277
 2992POPC   GL236292  10.371   8.357   4.062 -0.0848 -0.0950 -0.2759
 2992POPC   C1A36293  10.833   8.191   4.362  0.0549  0.0416  0.1335
 2992POPC   D2A36294  10.941   8.165   4.786 -0.1028  0.0019  0.1197
 2992POPC   C3A36295  11.027   7.872   5.162 -0.1584 -0.0226  0.4633
 2992POPC   C4A36296  10.794   7.683   5.472  0.0124 -0.1942  0.1397
 2992POPC   C1B36297  10.441   8.349   4.583  0.0917 -0.0977  0.0698
 2992POPC   C2B36298  10.476   8.406   5.032  0.1103 -0.1861  0.1242
 2992POPC   C3B36299  10.372   8.652   5.393  0.1077 -0.3126  0.0341
 2992POPC   C4B36300  10.185   9.127   5.560 -0.0957  0.2302  0.0835
 2993POPC   NC336301  14.707   6.139   3.982 -0.1151  0.4308  0.1836
 2993POPC   PO436302  14.918   5.885   3.832 -0.0428  0.1041  0.0305
 2993POPC   GL136303  15.032   6.014   4.250 -0.0698  0.0113 -0.3143
 2993POPC   GL236304  15.244   5.734   4.152 -0.2710  0.0053  0.0329
 2993POPC   C1A36305  15.350   6.331   4.392  0.2070 -0.0846  0.0527
 2993POPC   D2A36306  15.699   6.429   4.639 -0.1819 -0.3864 -0.1710
 2993POPC   C3A36307  16.070   6.185   4.614 -0.1383 -0.2174 -0.0804
 2993POPC   C4A36308  16.317   5.787   4.700  0.2739 -0.1177 -0.0703
 2993POPC   C1B36309  15.354   5.852   4.578 -0.1030  0.0374  0.2155
 2993POPC   C2B36310  15.303   5.810   4.977 -0.0364 -0.1804 -0.2308
 2993POPC   C3B36311  15.145   6.016   5.370  0.2351 -0.0521  0.0066
 2993POPC   C4B36312  14.784   6.244   5.429  0.2710  0.0900  0.1097
 2994POPC   NC336313   0.263  13.513   3.647  0.1213 -0.0002 -0.4022
 2994POPC   PO436314   0.405  13.124   3.748  0.0815  0.3108  0.2301
 2994POPC   GL136315   0.246  13.101   4.104 -0.0596 -0.0170  0.0054
 2994POPC   GL236316   0.167  13.363   4.119  0.0282 -0.3355  0.1045
 2994POPC   C1A36317   0.144  12.977   4.521 -0.1547  0.2829  0.0184
 2994POPC   D2A36318   0.076  13.006   4.965  0.0599  0.2145 -0.1105
 2994POPC   C3A36319   0.200  13.120   5.397 -0.1310 -0.2382  0.0789
 2994POPC   C4A36320   0.098  13.023   5.852 -0.1642 -0.0152  0.1152
 2994POPC   C1B36321   0.220  13.483   4.574  0.1454  0.2093  0.0598
 2994POPC   C2B36322   0.201  13.478   5.052 -0.0153 -0.0509 -0.0419
 2994POPC   C3B36323  -0.040  13.624   5.439 -0.0330 -0.1635  0.0505
 2994POPC   C4B36324  -0.370  13.596   5.771  0.1583 -0.0849  0.0863
 2995POPC   NC336325  12.774  16.295   3.206 -0.2169  0.2741  0.0512
 2995POPC   PO436326  12.682  16.143   3.557  0.0741  0.1738  0.1534
 2995POPC   GL136327  12.818  16.224   3.916  0.0148 -0.0422 -0.1955
 2995POPC   GL236328  12.876  15.999   4.066 -0.1246  0.0698  0.1033
 2995POPC   C1A36329  12.932  16.587   4.254  0.0558 -0.1277  0.2112
 2995POPC   D2A36330  12.711  16.746   4.698  0.2301  0.2074  0.0970
 2995POPC   C3A36331  12.865  16.587   5.129 -0.3774  0.2451 -0.2044
 2995POPC   C4A36332  12.823  16.473   5.586 -0.2068 -0.2941 -0.0155
 2995POPC   C1B36333  12.883  15.805   4.548  0.3250  0.1329 -0.0231
 2995POPC   C2B36334  12.966  15.836   4.970  0.1292 -0.0082 -0.2741
 2995POPC   C3B36335  13.064  16.074   5.365  0.0868  0.0639  0.1852
 2995POPC   C4B36336  13.298  16.507   5.349  0.3045  0.0346 -0.0335
 2996POPC   NC336337  11.729   3.399   3.956  0.0557  0.3180 -0.0011
 2996POPC   PO436338  12.117   3.430   3.813 -0.1520  0.2022  0.2291
 2996POPC   GL136339  12.216   3.422   4.193  0.0572 -0.0525 -0.1864
 2996POPC   GL236340  12.342   3.711   4.234 -0.0616 -0.0300  0.0070
 2996POPC   C1A36341  11.903   3.616   4.510 -0.0393 -0.0559  0.4196
 2996POPC   D2A36342  11.600   3.921   4.551  0.1010 -0.2455 -0.3155
 2996POPC   C3A36343  11.421   3.959   4.963  0.2382 -0.0962 -0.0209
 2996POPC   C4A36344  11.096   4.076   5.306  0.1654 -0.1563 -0.2089
 2996POPC   C1B36345  12.564   3.341   4.482  0.3469  0.0539 -0.0715
 2996POPC   C2B36346  12.895   3.173   4.717 -0.2493 -0.1932  0.2134
 2996POPC   C3B36347  12.877   2.833   5.115  0.1117  0.3408 -0.0437
 2996POPC   C4B36348  12.601   2.617   5.404 -0.0316  0.0367 -0.0997
 2997POPC   NC336349  11.235   1.585   3.659  0.0362  0.1927  0.1089
 2997POPC   PO436350  11.603   1.630   3.768 -0.2868 -0.1068  0.2181
 2997POPC   GL136351  11.600   1.900   3.965 -0.4836 -0.0454 -0.0447
 2997POPC   GL236352  11.324   1.798   4.129  0.2744  0.1167  0.1123
 2997POPC   C1A36353  11.787   2.206   4.272  0.0551 -0.0298  0.0961
 2997POPC   D2A36354  12.127   2.225   4.646  0.1635 -0.3990  0.1435
 2997POPC   C3A36355  11.968   2.537   4.864 -0.0722 -0.0896  0.0615
 2997POPC   C4A36356  12.100   2.788   5.189  0.0044 -0.3492 -0.3176
 2997POPC   C1B36357  11.316   1.628   4.557 -0.0378  0.0639  0.3428
 2997POPC   C2B36358  11.355   1.443   5.002  0.5586  0.0384 -0.0078
 2997POPC   C3B36359  11.342   1.333   5.449 -0.0045  0.1917 -0.0877
 2997POPC   C4B36360  11.212   1.291   5.906  0.0125  0.1102  0.1051
 2998POPC   NC336361   3.097  26.002   2.739  0.0664 -0.3793 -0.0650
 2998POPC   PO436362   2.942  25.982   3.138 -0.1972  0.0067  0.1361
 2998POPC   GL136363   2.680  25.726   3.487  0.0710 -0.3002  0.0013
 2998POPC   GL236364   2.938  25.552   3.390 -0.1672  0.2953 -0.0916
 2998POPC   C1A36365   2.624  25.369   3.774  0.1575 -0.1087  0.1963
 2998POPC   D2A36366   2.419  25.040   4.081  0.1356 -0.1920  0.3863
 2998POPC   C3A36367   2.428  24.872   4.506  0.2964 -0.1493  0.1316
 2998POPC   C4A36368   2.304  24.454   4.645  0.1163  0.0847  0.1826
 2998POPC   C1B36369   3.163  25.207   3.145 -0.1284  0.0085  0.0819
 2998POPC   C2B36370   2.925  24.798   3.079  0.0216 -0.0576 -0.2270
 2998POPC   C3B36371   2.864  24.267   3.114  0.0370  0.0273 -0.0706
 2998POPC   C4B36372   3.137  23.979   2.806  0.2535 -0.0789  0.0011
 2999POPC   NC336373   5.873  23.395   3.195 -0.0553  0.0439  0.0729
 2999POPC   PO436374   5.659  23.661   3.289  0.0567 -0.4905  0.0071
 2999POPC   GL136375   5.638  23.919   3.682  0.0646 -0.1543  0.1423
 2999POPC   GL236376   5.676  23.708   3.840 -0.3669 -0.0611  0.0942
 2999POPC   C1A36377   5.213  23.990   3.895 -0.3238 -0.4243 -0.1884
 2999POPC   D2A36378   4.798  24.066   4.128 -0.2549  0.1529 -0.1726
 2999POPC   C3A36379   4.570  23.826   4.454  0.1646  0.1187  0.2801
 2999POPC   C4A36380   4.260  24.000   4.750 -0.1377  0.0365 -0.2559
 2999POPC   C1B36381   5.933  23.478   4.187  0.1099 -0.0804  0.1609
 2999POPC   C2B36382   5.897  23.585   4.611 -0.1115 -0.2125 -0.2503
 2999POPC   C3B36383   5.930  23.738   5.070 -0.4359  0.2009  0.0932
 2999POPC   C4B36384   6.263  23.929   5.401  0.0423 -0.0121  0.4096
 3000POPC   NC336385   0.250  22.707   3.558  0.0974  0.0580  0.2399
 3000POPC   PO436386  -0.070  22.828   3.376 -0.1403  0.1384  0.0034
 3000POPC   GL136387  -0.188  22.727   3.755  0.1567  0.0376  0.3251
 3000POPC   GL236388  -0.535  22.882   3.824  0.1183 -0.2169 -0.1970
 3000POPC   C1A36389   0.162  22.724   4.089  0.1522  0.5038  0.0934
 3000POPC   D2A36390   0.246  22.978   4.421  0.1258 -0.1034  0.3165
 3000POPC   C3A36391   0.437  22.881   4.812  0.0629 -0.1072 -0.1609
 3000POPC   C4A36392   0.280  22.813   5.234  0.0703  0.1191  0.0910
 3000POPC   C1B36393  -0.311  22.664   4.179 -0.4277  0.0176  0.1174
 3000POPC   C2B36394  -0.242  22.577   4.647  0.0686  0.1774 -0.0585
 3000POPC   C3B36395  -0.141  22.606   5.141  0.1990  0.2522 -0.0670
 3000POPC   C4B36396  -0.113  22.816   5.529 -0.1416  0.1540 -0.1393
 3001POPC   NC336397   4.835  24.096   3.596  0.4852 -0.2183 -0.0689
 3001POPC   PO436398   4.582  24.364   3.600  0.2071  0.1922  0.0210
 3001POPC   GL136399   4.423  24.129   3.812  0.0731 -0.0179 -0.3220
 3001POPC   GL236400   4.377  23.816   3.904 -0.0874 -0.1508  0.0441
 3001POPC   C1A36401   3.980  23.998   3.692 -0.1232  0.0951  0.0214
 3001POPC   D2A36402   3.641  23.693   3.597 -0.2287  0.2224 -0.0876
 3001POPC   C3A36403   3.482  23.611   3.159 -0.3363 -0.0742 -0.0906
 3001POPC   C4A36404   3.534  23.634   2.738 -0.0805 -0.1465  0.1960
 3001POPC   C1B36405   4.131  23.928   4.264 -0.1437  0.0484 -0.0392
 3001POPC   C2B36406   3.885  24.216   4.531 -0.1295  0.1323  0.0774
 3001POPC   C3B36407   3.741  24.165   4.964 -0.3282 -0.2538 -0.0695
 3001POPC   C4B36408   3.463  24.267   5.374 -0.2723  0.2022 -0.2779
 3002POPC   NC336409  10.649  31.073   3.631 -0.2080  0.0219  0.0073
 3002POPC   PO436410  10.428  31.006   3.967 -0.0591  0.1394  0.0472
 3002POPC   GL136411  10.417  31.307   4.122  0.1512  0.0934  0.2838
 3002POPC   GL236412  10.268  31.524   4.060 -0.2203 -0.0088 -0.2237
 3002POPC   C1A36413  10.459  31.427   4.622 -0.1911 -0.2311  0.0060
 3002POPC   D2A36414  10.664  31.618   5.013  0.1420  0.3320  0.2084
 3002POPC   C3A36415  11.049  31.421   5.237  0.1948  0.1256 -0.1533
 3002POPC   C4A36416  11.058  31.209   5.632 -0.0885 -0.0744  0.0091
 3002POPC   C1B36417  10.027  31.657   4.412  0.0890  0.0006  0.0465
 3002POPC   C2B36418  10.045  31.788   4.854  0.0746  0.1816  0.0376
 3002POPC   C3B36419  10.224  31.826   5.308  0.1106  0.3794  0.1307
 3002POPC   C4B36420  10.321  32.006   5.697  0.1712  0.0994 -0.2548
 3003POPC   NC336421   4.973  23.586   3.775  0.0799 -0.1045  0.0287
 3003POPC   PO436422   4.675  23.638   3.502  0.1457 -0.0717 -0.0818
 3003POPC   GL136423   4.615  23.295   3.698  0.0082  0.0646  0.0033
 3003POPC   GL236424   4.832  23.118   3.724 -0.6535 -0.0078 -0.1587
 3003POPC   C1A36425   4.387  22.981   3.964 -0.0652  0.0945  0.0830
 3003POPC   D2A36426   4.298  23.139   4.368 -0.0532  0.3161 -0.2846
 3003POPC   C3A36427   4.161  23.486   4.579 -0.0671 -0.4106  0.0360
 3003POPC   C4A36428   3.830  23.753   4.751 -0.2851  0.2718 -0.0096
 3003POPC   C1B36429   4.716  23.306   4.145 -0.0616  0.2050 -0.1521
 3003POPC   C2B36430   4.639  23.361   4.632  0.0867 -0.0672 -0.1548
 3003POPC   C3B36431   4.549  23.683   4.917 -0.1687 -0.1251 -0.1566
 3003POPC   C4B36432   4.812  23.900   5.239  0.1317  0.0240 -0.1696
 3004POPC   NC336433  11.033   9.492   3.577  0.1369 -0.0930  0.1733
 3004POPC   PO436434  11.386   9.444   3.779 -0.2003  0.0027 -0.2213
 3004POPC   GL136435  11.462   9.527   4.143 -0.0575  0.0584  0.0251
 3004POPC   GL236436  11.788   9.555   4.123  0.1126  0.1111  0.3100
 3004POPC   C1A36437  11.257   9.514   4.586  0.1605 -0.1583  0.1474
 3004POPC   D2A36438  10.921   9.335   4.871 -0.0539  0.1935 -0.1334
 3004POPC   C3A36439  10.473   9.507   4.940  0.4504  0.3283 -0.0225
 3004POPC   C4A36440  10.096   9.661   4.766  0.1813  0.2031  0.2942
 3004POPC   C1B36441  11.700   9.761   4.529 -0.2647  0.1604 -0.3467
 3004POPC   C2B36442  11.584   9.758   4.957  0.1694 -0.1634  0.1570
 3004POPC   C3B36443  11.596   9.415   5.217  0.1461 -0.1223 -0.0162
 3004POPC   C4B36444  11.615   9.144   5.553  0.1941 -0.0392 -0.0780
 3005POPC   NC336445  10.827  24.746   3.207 -0.0740  0.1206 -0.0870
 3005POPC   PO436446  10.825  24.667   3.577  0.1575  0.0747  0.1972
 3005POPC   GL136447  11.029  24.558   3.979 -0.2027 -0.2476  0.3288
 3005POPC   GL236448  10.844  24.535   4.057 -0.0300  0.2333  0.3941
 3005POPC   C1A36449  11.107  24.654   4.415 -0.2050  0.2290  0.0555
 3005POPC   D2A36450  11.205  24.767   4.862 -0.0287 -0.1375  0.2502
 3005POPC   C3A36451  11.028  24.430   5.112  0.1097  0.2176  0.1725
 3005POPC   C4A36452  10.727  24.474   5.406 -0.2908  0.1372 -0.1643
 3005POPC   C1B36453  10.387  24.449   4.247  0.1519  0.2581  0.0699
 3005POPC   C2B36454  10.186  24.156   4.516 -0.0385 -0.0914  0.1846
 3005POPC   C3B36455  10.190  24.194   4.969 -0.3325  0.1638 -0.0017
 3005POPC   C4B36456  10.117  24.181   5.430  0.2356  0.0687  0.2778
 3006POPC   NC336457   2.737  19.060   4.144 -0.0495  0.2448  0.0779
 3006POPC   PO436458   2.894  19.021   3.776 -0.0543 -0.1297 -0.1533
 3006POPC   GL136459   3.149  19.202   4.021  0.1462 -0.2244  0.1963
 3006POPC   GL236460   3.292  18.936   4.205 -0.1256 -0.0945  0.1820
 3006POPC   C1A36461   3.318  19.393   4.385  0.1338  0.1577  0.0120
 3006POPC   D2A36462   3.626  19.190   4.648 -0.0632  0.0929 -0.1326
 3006POPC   C3A36463   3.504  19.040   5.092 -0.0008 -0.2334 -0.1479
 3006POPC   C4A36464   3.384  18.948   5.560 -0.0477  0.1445 -0.1778
 3006POPC   C1B36465   3.073  19.001   4.579  0.2406  0.1444  0.0141
 3006POPC   C2B36466   2.984  18.748   4.927  0.0072  0.2243  0.0280
 3006POPC   C3B36467   2.869  18.573   5.304 -0.1574 -0.1670  0.1633
 3006POPC   C4B36468   2.686  18.405   5.743 -0.0374 -0.1989 -0.2338
 3007POPC   NC336469   1.113  25.401   3.448  0.1722 -0.3473  0.0714
 3007POPC   PO436470   1.414  25.587   3.658  0.0098 -0.0283 -0.1002
 3007POPC   GL136471   1.701  25.562   3.942 -0.2972 -0.2505  0.0750
 3007POPC   GL236472   1.912  25.454   3.731  0.0984  0.0497  0.1301
 3007POPC   C1A36473   1.532  25.658   4.339 -0.0508 -0.4077  0.1975
 3007POPC   D2A36474   1.612  25.959   4.735  0.3449 -0.0857  0.0311
 3007POPC   C3A36475   1.993  26.101   5.016  0.0216 -0.0246  0.0531
 3007POPC   C4A36476   2.419  26.096   5.104 -0.0029 -0.0787  0.0842
 3007POPC   C1B36477   2.214  25.126   3.627 -0.2079 -0.3109  0.0330
 3007POPC   C2B36478   2.487  24.768   3.551 -0.2007  0.2264 -0.3345
 3007POPC   C3B36479   2.794  24.446   3.548 -0.0132 -0.0935 -0.0717
 3007POPC   C4B36480   2.759  23.989   3.577  0.2439  0.5461 -0.3552
 3008POPC   NC336481  15.489  24.527   3.775 -0.1117 -0.0448 -0.0430
 3008POPC   PO436482  15.610  24.888   3.822 -0.1951 -0.2219  0.2587
 3008POPC   GL136483  15.556  24.651   4.252  0.1677  0.2870 -0.0772
 3008POPC   GL236484  15.429  24.361   4.266  0.2292  0.1145 -0.3631
 3008POPC   C1A36485  15.757  24.740   4.658  0.0856  0.1600  0.2558
 3008POPC   D2A36486  16.166  24.720   4.928 -0.3796 -0.0061 -0.2126
 3008POPC   C3A36487  16.347  24.337   5.143  0.1619 -0.1178 -0.1913
 3008POPC   C4A36488  16.575  23.981   5.285 -0.0727  0.0012  0.1372
 3008POPC   C1B36489  15.463  24.281   4.785  0.0486  0.3129  0.1249
 3008POPC   C2B36490  15.377  24.336   5.208  0.3292  0.2367  0.0841
 3008POPC   C3B36491  15.411  24.365   5.645 -0.3120 -0.0564  0.0782
 3008POPC   C4B36492  15.645  24.468   6.010  0.1229  0.3458 -0.0713
 3009POPC   NC336493   5.269   6.612   3.466  0.1829 -0.1393 -0.1279
 3009POPC   PO436494   4.901   6.668   3.351  0.2329 -0.1276 -0.0559
 3009POPC   GL136495   4.863   6.730   3.703  0.3061  0.0002 -0.3457
 3009POPC   GL236496   4.808   6.539   3.847 -0.1081  0.0149 -0.3399
 3009POPC   C1A36497   5.220   6.848   4.003  0.1485 -0.2370  0.0911
 3009POPC   D2A36498   5.330   6.855   4.451 -0.0176 -0.1173  0.1045
 3009POPC   C3A36499   5.582   6.549   4.630 -0.1337 -0.0934  0.0203
 3009POPC   C4A36500   5.812   6.198   4.781  0.0677 -0.1017 -0.0987
 3009POPC   C1B36501   4.761   6.826   4.209 -0.2291  0.1891 -0.3331
 3009POPC   C2B36502   4.866   6.865   4.673 -0.1503  0.3003  0.1656
 3009POPC   C3B36503   5.264   6.791   4.991  0.1258  0.1336 -0.2657
 3009POPC   C4B36504   5.630   6.554   5.117  0.2140  0.0874 -0.1173
 3010POPC   NC336505   5.560  12.627   3.823 -0.0568 -0.0584  0.1837
 3010POPC   PO436506   5.937  12.685   3.753 -0.2461  0.1556 -0.3804
 3010POPC   GL136507   5.998  12.590   4.079  0.2751 -0.1897 -0.2080
 3010POPC   GL236508   6.167  12.328   4.193  0.0603 -0.0529  0.2074
 3010POPC   C1A36509   5.703  12.787   4.411 -0.0236  0.0310 -0.2567
 3010POPC   D2A36510   5.236  12.929   4.543 -0.1490  0.0279  0.0812
 3010POPC   C3A36511   5.204  12.976   5.016  0.3956 -0.2888  0.1024
 3010POPC   C4A36512   4.999  13.180   5.403  0.0863  0.0907  0.2274
 3010POPC   C1B36513   6.281  12.062   4.609  0.2215  0.3572  0.0592
 3010POPC   C2B36514   6.255  11.898   5.084  0.2257  0.1979 -0.0430
 3010POPC   C3B36515   6.218  11.979   5.530 -0.0803  0.1165  0.0187
 3010POPC   C4B36516   6.397  11.864   5.958  0.0538  0.0804 -0.1986
 3011POPC   NC336517   4.429  13.594   3.950  0.3544 -0.0478  0.1728
 3011POPC   PO436518   4.660  13.281   3.851  0.1386  0.0311 -0.1176
 3011POPC   GL136519   4.596  13.222   4.250  0.1250 -0.0117 -0.1694
 3011POPC   GL236520   4.332  13.203   4.368 -0.0059 -0.0493  0.4399
 3011POPC   C1A36521   4.783  13.126   4.641  0.0867 -0.0297  0.0259
 3011POPC   D2A36522   4.607  13.228   5.068  0.0654  0.0938  0.0241
 3011POPC   C3A36523   4.596  13.545   5.410 -0.3465 -0.0983  0.1309
 3011POPC   C4A36524   4.284  13.606   5.715  0.0001 -0.0919 -0.2576
 3011POPC   C1B36525   4.418  12.854   4.634  0.1334  0.1565  0.0477
 3011POPC   C2B36526   4.426  12.741   5.083 -0.1029  0.1273  0.0551
 3011POPC   C3B36527   4.492  12.581   5.525 -0.0102 -0.1828 -0.1000
 3011POPC   C4B36528   4.675  12.340   5.847  0.1235 -0.2696  0.0890
 3012POPC   NC336529   4.669   9.488   3.995 -0.2566 -0.0510  0.2416
 3012POPC   PO436530   4.884   9.165   3.846 -0.2456 -0.1311  0.0928
 3012POPC   GL136531   4.996   9.267   4.217 -0.0873 -0.2593 -0.2008
 3012POPC   GL236532   5.222   9.003   4.209 -0.1810 -0.2591  0.2308
 3012POPC   C1A36533   4.927   9.628   4.497  0.0294  0.1725 -0.4200
 3012POPC   D2A36534   5.246   9.806   4.797  0.2648 -0.1033 -0.2475
 3012POPC   C3A36535   5.284   9.802   5.269 -0.0796  0.0804  0.1548
 3012POPC   C4A36536   5.306   9.757   5.720  0.1846  0.1555 -0.0357
 3012POPC   C1B36537   4.924   8.849   4.558 -0.0232  0.3195 -0.1321
 3012POPC   C2B36538   4.738   8.899   4.960 -0.4897  0.2886 -0.0993
 3012POPC   C3B36539   4.580   8.992   5.336 -0.0725 -0.1390  0.0787
 3012POPC   C4B36540   4.462   9.371   5.466  0.2123 -0.1367 -0.2273
 3013POPC   NC336541  11.182   0.724   3.770  0.2607  0.1186  0.1500
 3013POPC   PO436542  10.778   0.717   3.682  0.2242  0.1878  0.3485
 3013POPC   GL136543  10.819   0.874   4.092  0.2268 -0.0194  0.2665
 3013POPC   GL236544  11.006   0.786   4.200  0.0811  0.0928  0.4698
 3013POPC   C1A36545  10.679   0.862   4.512  0.0784  0.0468  0.0998
 3013POPC   D2A36546  10.718   0.896   4.936  0.0344 -0.0369 -0.0711
 3013POPC   C3A36547  11.154   0.933   5.081  0.1414 -0.0833 -0.1231
 3013POPC   C4A36548  11.348   0.833   5.481 -0.0921 -0.2848 -0.1252
 3013POPC   C1B36549  11.166   0.685   4.619  0.0776 -0.1823  0.3154
 3013POPC   C2B36550  11.399   0.509   4.968 -0.1291  0.2625 -0.6379
 3013POPC   C3B36551  11.675   0.407   5.343 -0.2856  0.2526 -0.1359
 3013POPC   C4B36552  11.663   0.466   5.819 -0.0787  0.3187  0.0377
 3014POPC   NC336553   4.614  30.885   3.310  0.0508  0.3049 -0.2122
 3014POPC   PO436554   4.204  30.949   3.290 -0.4047 -0.1189 -0.0627
 3014POPC   GL136555   4.412  30.953   3.692 -0.1045 -0.0376 -0.3453
 3014POPC   GL236556   4.172  31.091   3.796  0.0225 -0.0297  0.0981
 3014POPC   C1A36557   4.349  30.734   4.139 -0.2321 -0.1115  0.0252
 3014POPC   D2A36558   4.141  30.539   4.515 -0.0816  0.5731  0.1463
 3014POPC   C3A36559   3.777  30.705   4.672  0.0426 -0.2427 -0.0714
 3014POPC   C4A36560   3.305  30.706   4.821  0.2133 -0.0671 -0.0225
 3014POPC   C1B36561   4.523  31.308   4.067  0.0431 -0.0788  0.2257
 3014POPC   C2B36562   4.821  31.357   4.400  0.2050 -0.2635  0.0398
 3014POPC   C3B36563   4.989  31.333   4.836 -0.1639 -0.0379 -0.4798
 3014POPC   C4B36564   5.007  31.168   5.297 -0.1402  0.0103 -0.0676
 3015POPC   NC336565   5.681   3.376   3.861  0.0641  0.1309 -0.1658
 3015POPC   PO436566   5.278   3.497   3.909  0.2102  0.0763  0.0343
 3015POPC   GL136567   5.364   3.599   4.280  0.1545  0.0500  0.1422
 3015POPC   GL236568   5.572   3.383   4.389  0.0424 -0.2412 -0.0394
 3015POPC   C1A36569   5.199   3.649   4.692  0.0767 -0.0311 -0.2825
 3015POPC   D2A36570   4.802   3.652   5.008  0.3116  0.1995  0.0177
 3015POPC   C3A36571   4.673   3.877   5.357  0.0240 -0.1262  0.2630
 3015POPC   C4A36572   4.601   3.998   5.791  0.0765 -0.0826 -0.0187
 3015POPC   C1B36573   5.660   3.391   4.881 -0.2752  0.1554 -0.2446
 3015POPC   C2B36574   5.854   3.483   5.280  0.0089  0.1135  0.0933
 3015POPC   C3B36575   5.987   3.455   5.680  0.0429 -0.3227  0.2061
 3015POPC   C4B36576   6.217   3.356   6.103  0.0982  0.1227 -0.0393
 3016POPC   NC336577   3.212   7.594   3.976 -0.0963 -0.1191 -0.1768
 3016POPC   PO436578   3.555   7.589   3.766  0.3764 -0.2934 -0.1266
 3016POPC   GL136579   3.708   7.221   3.817  0.1463 -0.3744 -0.1500
 3016POPC   GL236580   3.916   7.304   4.067  0.1180  0.3834  0.3850
 3016POPC   C1A36581   3.530   7.052   4.215 -0.2230 -0.1358  0.0464
 3016POPC   D2A36582   3.583   7.114   4.661  0.0696 -0.0239  0.1156
 3016POPC   C3A36583   3.172   6.927   4.761 -0.0562  0.2700 -0.0387
 3016POPC   C4A36584   3.112   6.550   5.019 -0.2682 -0.1876 -0.2218
 3016POPC   C1B36585   3.985   7.262   4.554 -0.1709 -0.2277  0.1147
 3016POPC   C2B36586   3.968   7.076   5.008  0.1292 -0.2485  0.1153
 3016POPC   C3B36587   3.927   6.763   5.313 -0.0804 -0.0679  0.0907
 3016POPC   C4B36588   3.877   6.271   5.311 -0.0355  0.1133  0.3659
 3017POPC   NC336589   5.441  21.147   4.130  0.1663  0.0924 -0.0298
 3017POPC   PO436590   5.305  21.507   4.128 -0.1149 -0.1000  0.0230
 3017POPC   GL136591   5.297  21.430   4.502 -0.1211 -0.0393 -0.2209
 3017POPC   GL236592   5.357  21.132   4.643 -0.0558 -0.0080  0.0728
 3017POPC   C1A36593   5.648  21.459   4.791 -0.1679 -0.1147 -0.3292
 3017POPC   D2A36594   5.742  21.371   5.238 -0.2263  0.2007  0.0133
 3017POPC   C3A36595   6.017  21.680   5.434 -0.0079  0.0535  0.0530
 3017POPC   C4A36596   6.396  21.957   5.507 -0.0677  0.1041 -0.3309
 3017POPC   C1B36597   5.526  20.930   5.024  0.2036  0.0113  0.4455
 3017POPC   C2B36598   5.697  20.869   5.393 -0.2529 -0.1068 -0.0200
 3017POPC   C3B36599   6.072  20.662   5.459 -0.1265 -0.0754 -0.1381
 3017POPC   C4B36600   6.432  20.439   5.482 -0.0372  0.2105 -0.1762
 3018POPC   NC336601  11.551   0.189   3.136  0.3173 -0.0574  0.2860
 3018POPC   PO436602  11.356   0.281   3.469  0.0483  0.3774  0.2259
 3018POPC   GL136603  11.097   0.181   3.865 -0.4055  0.0204 -0.1126
 3018POPC   GL236604  11.313   0.012   3.854 -0.0727  0.3935  0.1092
 3018POPC   C1A36605  11.262   0.386   4.247 -0.1733  0.0484  0.0837
 3018POPC   D2A36606  11.662   0.332   4.520  0.1410  0.0599 -0.0064
 3018POPC   C3A36607  11.586   0.078   4.895 -0.1104  0.0618 -0.0182
 3018POPC   C4A36608  11.556  -0.183   5.278  0.4170 -0.2112 -0.0172
 3018POPC   C1B36609  11.368  -0.149   4.300  0.2224  0.3748  0.1291
 3018POPC   C2B36610  11.133   0.127   4.628  0.1825 -0.0346 -0.1236
 3018POPC   C3B36611  11.154   0.102   5.099 -0.0962  0.1394  0.0125
 3018POPC   C4B36612  11.177   0.334   5.499 -0.0504  0.0380  0.1219
 3019POPC   NC336613   9.080  24.099   3.859 -0.0100  0.2474 -0.2764
 3019POPC   PO436614   9.425  24.182   3.758  0.0069 -0.0592 -0.0281
 3019POPC   GL136615   9.381  24.479   4.006  0.0784  0.0944 -0.1772
 3019POPC   GL236616   9.125  24.565   3.998  0.0549  0.0792 -0.4585
 3019POPC   C1A36617   9.321  24.668   4.427  0.5046  0.1013  0.1534
 3019POPC   D2A36618   9.263  24.483   4.849 -0.0571  0.1254 -0.2598
 3019POPC   C3A36619   9.351  24.701   5.269  0.0288  0.1541  0.3492
 3019POPC   C4A36620   9.285  24.713   5.731  0.0771  0.0986 -0.1701
 3019POPC   C1B36621   8.831  24.645   4.421 -0.1067 -0.3454 -0.1118
 3019POPC   C2B36622   8.829  24.760   4.874  0.0447  0.1513 -0.0504
 3019POPC   C3B36623   8.803  24.613   5.312  0.0239  0.0267 -0.3916
 3019POPC   C4B36624   8.769  24.535   5.744 -0.3738  0.1730 -0.4466
 3020POPC   NC336625  10.444  29.715   4.146  0.1548 -0.0078 -0.0036
 3020POPC   PO436626  10.054  29.741   4.145  0.0600  0.0997  0.2453
 3020POPC   GL136627   9.983  29.873   4.537  0.1679 -0.2246  0.2575
 3020POPC   GL236628   9.754  29.670   4.601 -0.0439  0.1269 -0.3782
 3020POPC   C1A36629   9.784  30.200   4.762 -0.0154 -0.0426  0.2415
 3020POPC   D2A36630   9.708  30.615   4.784 -0.0619 -0.0083 -0.1584
 3020POPC   C3A36631   9.862  30.817   5.198 -0.1431 -0.2016 -0.1411
 3020POPC   C4A36632  10.271  30.861   5.386 -0.1792 -0.1152  0.1399
 3020POPC   C1B36633   9.594  29.744   5.015  0.0100 -0.0692 -0.1543
 3020POPC   C2B36634   9.367  29.628   5.377 -0.1447 -0.2114  0.1926
 3020POPC   C3B36635   9.110  29.774   5.685  0.0353  0.0271 -0.2362
 3020POPC   C4B36636   8.870  29.542   5.985 -0.2472  0.1546  0.2107
 3021POPC   NC336637   1.617  16.676   4.021 -0.0495 -0.0002 -0.1343
 3021POPC   PO436638   1.985  16.570   4.013  0.0265 -0.0885  0.1804
 3021POPC   GL136639   2.091  16.163   4.039 -0.1263  0.0473 -0.1296
 3021POPC   GL236640   2.004  15.952   3.945  0.2701 -0.1124 -0.0579
 3021POPC   C1A36641   2.159  16.111   4.492 -0.0600  0.2832 -0.1687
 3021POPC   D2A36642   2.143  16.073   4.955 -0.1318  0.0843  0.0931
 3021POPC   C3A36643   1.898  16.354   5.154  0.0288 -0.1871 -0.0677
 3021POPC   C4A36644   1.500  16.352   5.416 -0.2045 -0.1983 -0.0465
 3021POPC   C1B36645   2.019  15.613   4.286  0.1807 -0.2257 -0.0397
 3021POPC   C2B36646   1.861  15.647   4.763 -0.1571  0.0420  0.0612
 3021POPC   C3B36647   1.615  16.052   4.795 -0.2618  0.0426 -0.0017
 3021POPC   C4B36648   1.656  16.447   4.746  0.0628 -0.2478 -0.1205
 3022POPC   NC336649  14.469  20.808   3.346 -0.0932  0.0642 -0.2099
 3022POPC   PO436650  14.158  20.882   3.153 -0.0552  0.1185  0.0457
 3022POPC   GL136651  14.050  20.872   3.495  0.2560  0.0936  0.1812
 3022POPC   GL236652  14.123  20.553   3.646 -0.1325 -0.1009  0.1277
 3022POPC   C1A36653  13.655  20.697   3.733 -0.1376  0.1809  0.2312
 3022POPC   D2A36654  13.464  20.486   4.064 -0.0002 -0.1226  0.0989
 3022POPC   C3A36655  13.649  20.126   3.996 -0.0918  0.0198 -0.1385
 3022POPC   C4A36656  13.995  19.883   4.207 -0.1010 -0.1032  0.2283
 3022POPC   C1B36657  14.130  20.578   4.079 -0.2240 -0.0899 -0.1240
 3022POPC   C2B36658  13.902  20.749   4.442  0.0811  0.0030 -0.1350
 3022POPC   C3B36659  13.623  20.922   4.734  0.0928 -0.2247 -0.1316
 3022POPC   C4B36660  13.549  20.986   5.183 -0.1288 -0.0576  0.1163
 3023POPC   NC336661   7.082   8.273   3.768  0.0840 -0.2197  0.1412
 3023POPC   PO436662   7.344   8.019   3.825  0.0520 -0.0982 -0.2369
 3023POPC   GL136663   7.381   7.697   4.141  0.1935 -0.1104 -0.5878
 3023POPC   GL236664   7.161   7.830   4.407  0.2470  0.1632 -0.1049
 3023POPC   C1A36665   7.485   7.520   4.530 -0.1640 -0.1276 -0.1563
 3023POPC   D2A36666   7.195   7.379   4.897  0.0066  0.1249 -0.1151
 3023POPC   C3A36667   7.350   7.284   5.380 -0.1441 -0.0554 -0.0825
 3023POPC   C4A36668   7.427   7.400   5.807 -0.4124 -0.2758 -0.0072
 3023POPC   C1B36669   7.364   8.086   4.751 -0.0367 -0.2219 -0.2343
 3023POPC   C2B36670   7.514   8.277   5.139 -0.0273 -0.0021  0.1453
 3023POPC   C3B36671   7.506   8.157   5.594 -0.0226 -0.4682 -0.1397
 3023POPC   C4B36672   7.675   8.154   6.016  0.0439 -0.2616 -0.3865
 3024POPC   NC336673  10.415   7.116   3.761 -0.1569 -0.1911  0.1301
 3024POPC   PO436674  10.779   6.925   3.663  0.0817 -0.0520 -0.2789
 3024POPC   GL136675  10.696   6.967   4.091  0.3283 -0.3205  0.2946
 3024POPC   GL236676  10.390   6.983   4.284 -0.0023 -0.3205 -0.0391
 3024POPC   C1A36677  10.830   7.080   4.555 -0.1177 -0.1319  0.0574
 3024POPC   D2A36678  11.088   7.043   4.917 -0.1608 -0.2714 -0.0932
 3024POPC   C3A36679  11.423   6.848   5.173  0.2103 -0.2009  0.0558
 3024POPC   C4A36680  11.599   6.501   5.249  0.0105  0.3642 -0.0733
 3024POPC   C1B36681  10.373   6.854   4.737 -0.1350  0.1147  0.3525
 3024POPC   C2B36682  10.611   6.866   5.138 -0.0816 -0.1886 -0.0252
 3024POPC   C3B36683  10.821   6.609   5.503 -0.1752  0.0853  0.0015
 3024POPC   C4B36684  11.148   6.430   5.777  0.1969 -0.1741  0.2659
 3025POPC   NC336685   8.388  12.461   3.683  0.3486  0.2203  0.0714
 3025POPC   PO436686   7.986  12.466   3.592 -0.0294 -0.4856 -0.0826
 3025POPC   GL136687   8.041  12.584   3.994  0.2340 -0.1217  0.4631
 3025POPC   GL236688   7.888  12.762   4.076  0.1231  0.0799 -0.0118
 3025POPC   C1A36689   8.397  12.319   4.191 -0.0633  0.1743  0.2637
 3025POPC   D2A36690   8.695  11.997   4.252 -0.0779  0.0690  0.3128
 3025POPC   C3A36691   8.674  11.697   4.601  0.0394 -0.1509 -0.0517
 3025POPC   C4A36692   8.621  11.328   4.915 -0.3798  0.2861 -0.0495
 3025POPC   C1B36693   8.042  12.921   4.501  0.1802  0.0221 -0.1513
 3025POPC   C2B36694   8.086  13.226   4.834 -0.2603 -0.0708 -0.0710
 3025POPC   C3B36695   8.048  13.487   5.217  0.0668 -0.0217  0.0835
 3025POPC   C4B36696   8.170  13.654   5.609  0.0590  0.0160  0.1078
 3026POPC   NC336697   2.836  16.847   3.732 -0.2522  0.0708 -0.1267
 3026POPC   PO436698   2.961  17.265   3.726  0.1364 -0.3647  0.2087
 3026POPC   GL136699   2.989  17.040   4.133 -0.0908 -0.0567 -0.1341
 3026POPC   GL236700   2.986  17.316   4.247 -0.0045 -0.3775 -0.2554
 3026POPC   C1A36701   3.378  17.081   4.333  0.0657  0.2189  0.0293
 3026POPC   D2A36702   3.473  16.977   4.783 -0.3679  0.2719 -0.0996
 3026POPC   C3A36703   3.445  16.772   5.201  0.2860  0.0751  0.0474
 3026POPC   C4A36704   3.232  16.492   5.524  0.0199  0.1817  0.0561
 3026POPC   C1B36705   2.640  17.442   4.481  0.1071 -0.1847  0.2446
 3026POPC   C2B36706   2.472  17.619   4.851  0.0491  0.1002 -0.0565
 3026POPC   C3B36707   2.415  17.922   5.156  0.0051  0.0562  0.0891
 3026POPC   C4B36708   2.447  17.964   5.634  0.3055 -0.3350  0.1364
 3027POPC   NC336709   1.453   9.766   4.008 -0.1020  0.0405  0.2129
 3027POPC   PO436710   1.786   9.978   3.942  0.0462  0.1151  0.1040
 3027POPC   GL136711   1.931   9.655   4.204  0.4089 -0.0653 -0.1826
 3027POPC   GL236712   2.213   9.519   4.239  0.0471 -0.1684  0.1335
 3027POPC   C1A36713   1.924   9.630   4.643  0.0853 -0.0027 -0.0268
 3027POPC   D2A36714   1.796   9.488   5.080  0.0770  0.0627  0.1853
 3027POPC   C3A36715   1.621   9.654   5.502 -0.0282  0.1494 -0.1932
 3027POPC   C4A36716   1.465  10.036   5.709  0.0776 -0.3769 -0.0138
 3027POPC   C1B36717   2.358   9.271   4.580 -0.0102  0.1050 -0.1085
 3027POPC   C2B36718   2.327   9.267   5.028  0.1975 -0.2215 -0.1446
 3027POPC   C3B36719   2.212   9.199   5.438  0.0140 -0.0757 -0.0040
 3027POPC   C4B36720   2.281   9.169   5.883 -0.2334  0.2906  0.0185
 3028POPC   NC336721   9.297  21.413   3.532  0.0606  0.1808  0.2205
 3028POPC   PO436722   9.039  21.627   3.389  0.2944 -0.1140  0.1439
 3028POPC   GL136723   8.905  21.356   3.745 -0.1707  0.2215 -0.0973
 3028POPC   GL236724   8.797  21.462   3.949 -0.2860 -0.0812 -0.0231
 3028POPC   C1A36725   9.003  21.054   4.069  0.1655 -0.0833 -0.2856
 3028POPC   D2A36726   9.183  20.884   4.470  0.0168  0.1096  0.3559
 3028POPC   C3A36727   9.170  20.854   4.873 -0.1188  0.1480  0.3599
 3028POPC   C4A36728   9.100  21.112   5.257 -0.2886  0.0352  0.0872
 3028POPC   C1B36729   8.882  21.910   4.107  0.1718  0.2495  0.2913
 3028POPC   C2B36730   8.764  22.158   4.457  0.2449 -0.0712 -0.3722
 3028POPC   C3B36731   8.646  22.188   4.958 -0.0609  0.1402  0.0263
 3028POPC   C4B36732   8.457  21.857   5.202  0.1057  0.0950 -0.3452
 3029POPC   NC336733   4.808   3.456   3.826 -0.0178 -0.3113  0.1805
 3029POPC   PO436734   4.672   3.802   3.807  0.1490  0.0601 -0.0740
 3029POPC   GL136735   4.617   3.945   4.190 -0.7038 -0.0845  0.0689
 3029POPC   GL236736   4.560   4.167   4.202  0.0839 -0.0540 -0.1165
 3029POPC   C1A36737   4.773   4.063   4.682  0.1689 -0.2210 -0.0790
 3029POPC   D2A36738   5.048   4.051   4.971  0.1721 -0.2593  0.1554
 3029POPC   C3A36739   5.099   4.199   5.426  0.1759  0.2721  0.2353
 3029POPC   C4A36740   5.296   4.131   5.794 -0.0950 -0.2792 -0.0106
 3029POPC   C1B36741   4.357   4.368   4.524 -0.0208  0.1061 -0.2410
 3029POPC   C2B36742   4.144   4.520   4.895 -0.0184 -0.1656 -0.1274
 3029POPC   C3B36743   4.164   4.792   5.178 -0.0147  0.1605 -0.0181
 3029POPC   C4B36744   4.366   4.955   5.494  0.1967 -0.1254 -0.4667
 3030POPC   NC336745   1.887  24.794   3.304  0.1052  0.2521 -0.2076
 3030POPC   PO436746   1.884  24.860   2.893  0.2726  0.1657 -0.1396
 3030POPC   GL136747   1.905  24.538   2.984 -0.4459  0.4765  0.2306
 3030POPC   GL236748   1.725  24.287   3.042 -0.0058 -0.0491  0.2519
 3030POPC   C1A36749   2.123  24.296   3.368  0.0615 -0.0650 -0.2492
 3030POPC   D2A36750   2.317  24.287   3.745  0.0384  0.2653 -0.3558
 3030POPC   C3A36751   2.271  24.566   4.100 -0.0396 -0.3132  0.0040
 3030POPC   C4A36752   1.918  24.631   4.385  0.1877  0.3323 -0.0105
 3030POPC   C1B36753   2.068  24.072   2.924  0.0357 -0.0184  0.1973
 3030POPC   C2B36754   2.388  23.883   3.128  0.1603 -0.4211 -0.0114
 3030POPC   C3B36755   2.820  23.674   3.041 -0.0214 -0.1773  0.2685
 3030POPC   C4B36756   3.144  23.412   2.913  0.3732  0.1101 -0.0899
 3031POPC   NC336757   7.911  19.522   3.700  0.0811 -0.0821  0.0915
 3031POPC   PO436758   7.628  19.686   3.950 -0.1619  0.3229 -0.1609
 3031POPC   GL136759   7.683  20.006   4.215 -0.0100 -0.0082  0.0798
 3031POPC   GL236760   7.459  20.053   4.300  0.2539 -0.5982 -0.0885
 3031POPC   C1A36761   7.896  20.149   4.609  0.1757  0.4206 -0.1520
 3031POPC   D2A36762   8.326  19.868   4.603  0.2143  0.3180  0.1884
 3031POPC   C3A36763   8.766  19.980   4.477 -0.0276  0.2268 -0.2084
 3031POPC   C4A36764   9.067  20.217   4.178 -0.2067  0.1118  0.1439
 3031POPC   C1B36765   7.416  20.052   4.769 -0.0572 -0.1464 -0.1091
 3031POPC   C2B36766   7.475  19.888   5.224  0.2542  0.3898  0.1327
 3031POPC   C3B36767   7.373  19.693   5.609  0.3380  0.0691 -0.0339
 3031POPC   C4B36768   7.426  19.484   6.004  0.0061  0.1765  0.2074
 3032POPC   NC336769   9.108  29.651   3.758  0.0569  0.1826  0.0425
 3032POPC   PO436770   9.229  30.018   3.658  0.1572 -0.1448  0.3055
 3032POPC   GL136771   9.263  29.996   4.140 -0.2046 -0.2587  0.2918
 3032POPC   GL236772   8.965  29.921   4.308  0.0147 -0.0948 -0.0453
 3032POPC   C1A36773   9.353  29.988   4.609  0.0542  0.1335  0.1862
 3032POPC   D2A36774   9.350  30.256   4.998 -0.0866  0.2387  0.3783
 3032POPC   C3A36775   9.295  30.135   5.439 -0.2018 -0.0193  0.2777
 3032POPC   C4A36776   9.584  29.908   5.766 -0.0512  0.3861  0.0768
 3032POPC   C1B36777   8.951  29.735   4.750 -0.1676  0.1595 -0.0519
 3032POPC   C2B36778   8.914  29.935   5.186 -0.0139  0.2240  0.0866
 3032POPC   C3B36779   8.521  30.013   5.456 -0.0185  0.2193 -0.1330
 3032POPC   C4B36780   8.087  29.970   5.275  0.0585 -0.0043 -0.0303
 3033POPC   NC336781   3.066  19.706   4.060  0.1853 -0.0065 -0.0604
 3033POPC   PO436782   2.736  19.548   3.959 -0.2213 -0.1057 -0.1412
 3033POPC   GL136783   2.781  19.595   4.409  0.0388  0.0882  0.2275
 3033POPC   GL236784   2.598  19.402   4.487  0.0183 -0.1987  0.1843
 3033POPC   C1A36785   2.521  19.800   4.747  0.2629 -0.2605  0.2019
 3033POPC   D2A36786   2.697  20.154   5.061 -0.1069  0.1463 -0.2014
 3033POPC   C3A36787   2.660  20.029   5.553 -0.3013 -0.3240  0.2540
 3033POPC   C4A36788   2.893  19.996   5.938 -0.0128  0.0725 -0.2431
 3033POPC   C1B36789   2.654  19.270   4.917  0.1679 -0.0490  0.0138
 3033POPC   C2B36790   2.784  19.565   5.224 -0.1398 -0.1076  0.0912
 3033POPC   C3B36791   3.119  19.935   5.306 -0.0380  0.0257  0.2296
 3033POPC   C4B36792   3.251  20.184   5.663  0.1309  0.1850 -0.0720
 3034POPC   NC336793   3.658  20.392   3.984 -0.2535  0.1871  0.0909
 3034POPC   PO436794   3.996  20.187   3.864 -0.0423 -0.1476  0.1633
 3034POPC   GL136795   4.080  20.269   4.260  0.5695  0.1228  0.0390
 3034POPC   GL236796   4.294  20.271   4.233 -0.3642  0.0355  0.0615
 3034POPC   C1A36797   3.787  20.273   4.700 -0.0103 -0.3020 -0.2208
 3034POPC   D2A36798   3.508  20.151   5.041  0.3762  0.1472  0.0635
 3034POPC   C3A36799   3.731  19.987   5.450  0.1177  0.0150 -0.1663
 3034POPC   C4A36800   3.744  19.780   5.892 -0.1148 -0.1208 -0.0546
 3034POPC   C1B36801   4.284  19.885   4.531  0.0179  0.0923  0.1882
 3034POPC   C2B36802   4.197  19.501   4.733 -0.4448  0.1540  0.1109
 3034POPC   C3B36803   3.897  19.392   5.096  0.1277  0.2414 -0.1175
 3034POPC   C4B36804   3.818  19.415   5.562 -0.1149  0.1294 -0.1631
 3035POPC   NC336805   1.733  31.383   3.962  0.0790  0.2363 -0.1092
 3035POPC   PO436806   1.402  31.415   4.052 -0.0520 -0.1081  0.4356
 3035POPC   GL136807   1.446  31.503   4.439  0.2897 -0.0559  0.0707
 3035POPC   GL236808   1.739  31.444   4.460 -0.2371  0.1774  0.1442
 3035POPC   C1A36809   1.346  31.749   4.835  0.1232  0.3149 -0.4138
 3035POPC   D2A36810   1.359  32.036   5.219  0.0814  0.1412  0.0609
 3035POPC   C3A36811   1.641  32.386   5.191  0.0541  0.1276 -0.0539
 3035POPC   C4A36812   1.872  32.626   5.591  0.1378 -0.1565  0.2918
 3035POPC   C1B36813   1.740  31.437   4.913 -0.2098  0.0224  0.2079
 3035POPC   C2B36814   1.921  31.383   5.341  0.0995  0.0602 -0.0981
 3035POPC   C3B36815   1.925  31.478   5.775 -0.0510 -0.1758 -0.1610
 3035POPC   C4B36816   1.861  31.628   6.218 -0.2793  0.0726 -0.1275
 3036POPC   NC336817   3.266  16.437   3.345 -0.0480  0.0549  0.2868
 3036POPC   PO436818   3.252  16.810   3.458  0.0688 -0.1208  0.0021
 3036POPC   GL136819   3.252  16.678   3.842  0.3835 -0.1256 -0.1425
 3036POPC   GL236820   3.515  16.799   3.916 -0.0135  0.0761  0.0497
 3036POPC   C1A36821   3.020  16.590   4.266 -0.1855  0.1025  0.0753
 3036POPC   D2A36822   3.011  16.143   4.434 -0.2520  0.0167  0.1217
 3036POPC   C3A36823   3.188  16.036   4.793 -0.0295 -0.0225 -0.2679
 3036POPC   C4A36824   3.135  15.970   5.291  0.2377  0.3217  0.0210
 3036POPC   C1B36825   3.814  17.039   4.188  0.2278 -0.3112  0.1269
 3036POPC   C2B36826   3.892  17.250   4.637  0.0543 -0.4069 -0.1366
 3036POPC   C3B36827   3.703  17.423   5.028 -0.3029  0.2856 -0.4631
 3036POPC   C4B36828   3.764  17.715   5.403  0.2317  0.0511  0.1229
 3037POPC   NC336829   8.725  24.488   3.317 -0.0397 -0.2795  0.3128
 3037POPC   PO436830   8.775  24.549   3.690 -0.0086  0.0171 -0.1276
 3037POPC   GL136831   8.712  24.336   4.087  0.1588 -0.1230 -0.2567
 3037POPC   GL236832   8.476  24.142   4.039 -0.2868 -0.0121 -0.1847
 3037POPC   C1A36833   9.021  24.158   4.349 -0.2739  0.1273 -0.0113
 3037POPC   D2A36834   9.479  24.184   4.459  0.0396 -0.1398 -0.1017
 3037POPC   C3A36835   9.684  23.965   4.798 -0.3734  0.2301  0.2076
 3037POPC   C4A36836   9.806  23.793   5.219  0.0968 -0.1346 -0.0110
 3037POPC   C1B36837   8.492  24.236   4.529 -0.0577 -0.0028 -0.1778
 3037POPC   C2B36838   8.741  24.237   4.874 -0.1033  0.2195  0.0085
 3037POPC   C3B36839   8.813  24.030   5.230  0.1092  0.0142  0.1726
 3037POPC   C4B36840   8.558  24.029   5.598  0.0004  0.0582  0.2288
 3038POPC   NC336841  13.100  25.588   3.529  0.0506  0.2277 -0.0838
 3038POPC   PO436842  12.960  25.319   3.322  0.0059 -0.2928 -0.0279
 3038POPC   GL136843  12.690  25.236   3.532 -0.0846  0.2289 -0.0100
 3038POPC   GL236844  12.653  25.405   3.745  0.1072 -0.0294 -0.0312
 3038POPC   C1A36845  12.710  24.908   3.870  0.1773 -0.4047  0.0567
 3038POPC   D2A36846  12.548  24.589   4.181 -0.1943  0.0623  0.0226
 3038POPC   C3A36847  12.808  24.421   4.499  0.2493  0.3129 -0.1053
 3038POPC   C4A36848  12.975  24.092   4.806 -0.2090 -0.0277  0.0231
 3038POPC   C1B36849  12.752  25.326   4.228 -0.3791 -0.2434 -0.0100
 3038POPC   C2B36850  12.900  25.566   4.594  0.0769  0.1845  0.2710
 3038POPC   C3B36851  12.953  25.675   5.054 -0.0789 -0.0265 -0.1081
 3038POPC   C4B36852  12.781  25.906   5.441 -0.2229  0.1992  0.0060
 3039POPC   NC336853   5.334  17.021   3.448 -0.0691  0.0163 -0.0168
 3039POPC   PO436854   5.008  16.855   3.287 -0.3650  0.1668  0.0761
 3039POPC   GL136855   5.071  16.714   3.681  0.2903  0.2168 -0.0049
 3039POPC   GL236856   4.783  16.715   3.678 -0.0869 -0.1479  0.1030
 3039POPC   C1A36857   5.389  16.906   3.979  0.2013 -0.2219 -0.1410
 3039POPC   D2A36858   5.388  17.000   4.433 -0.0482  0.1903 -0.1206
 3039POPC   C3A36859   5.784  16.957   4.618  0.1039 -0.2332 -0.0477
 3039POPC   C4A36860   6.039  16.707   4.914  0.1077 -0.1212  0.2362
 3039POPC   C1B36861   4.869  16.927   4.100 -0.2817  0.3362 -0.2128
 3039POPC   C2B36862   4.729  17.081   4.559 -0.0457  0.1088  0.1479
 3039POPC   C3B36863   4.688  17.186   5.013 -0.2524  0.2317 -0.0163
 3039POPC   C4B36864   4.557  17.282   5.435 -0.1910 -0.0928  0.1182
 3040POPC   NC336865  10.404   8.894   3.357  0.0936 -0.2432 -0.0632
 3040POPC   PO436866  10.576   9.181   3.522  0.0312 -0.0412  0.2098
 3040POPC   GL136867  10.344   9.175   3.853  0.2737  0.2094 -0.0861
 3040POPC   GL236868  10.063   9.075   3.723  0.0739  0.0664  0.1694
 3040POPC   C1A36869  10.266   8.860   4.171 -0.2680  0.2331 -0.3434
 3040POPC   D2A36870  10.022   8.516   4.396  0.0239 -0.1410  0.1110
 3040POPC   C3A36871   9.992   8.773   4.841  0.0018  0.0938  0.2535
 3040POPC   C4A36872   9.759   8.858   5.258 -0.1898  0.1237 -0.0651
 3040POPC   C1B36873   9.813   9.234   4.033  0.1117  0.1305 -0.1596
 3040POPC   C2B36874   9.672   9.502   4.362 -0.0787 -0.0224 -0.1293
 3040POPC   C3B36875   9.566   9.843   4.669 -0.3565 -0.2606  0.1809
 3040POPC   C4B36876   9.682   9.853   5.073  0.1094  0.0338 -0.2445
 3041POPC   NC336877  12.623   5.305   3.819 -0.0209  0.3009  0.1624
 3041POPC   PO436878  12.792   5.586   3.647 -0.0704 -0.2429 -0.4812
 3041POPC   GL136879  12.820   5.660   4.114  0.2801  0.3701 -0.0049
 3041POPC   GL236880  13.039   5.604   4.189 -0.1846  0.1373 -0.1211
 3041POPC   C1A36881  12.435   5.684   4.397  0.1536  0.0171 -0.0052
 3041POPC   D2A36882  12.238   5.895   4.724  0.2571  0.2245 -0.0293
 3041POPC   C3A36883  12.140   5.749   5.159 -0.2754  0.0043 -0.1952
 3041POPC   C4A36884  11.827   5.563   5.419  0.0821  0.0628 -0.0925
 3041POPC   C1B36885  13.213   5.564   4.558  0.0401 -0.1702 -0.1007
 3041POPC   C2B36886  13.154   5.782   5.018  0.2174 -0.2141  0.2453
 3041POPC   C3B36887  13.207   5.638   5.450 -0.2723 -0.1262 -0.1361
 3041POPC   C4B36888  13.073   5.464   5.907 -0.0247 -0.2560  0.1977
 3042POPC   NC336889  15.686   0.966   3.582  0.3353 -0.1235  0.0743
 3042POPC   PO436890  15.397   0.910   3.828 -0.0516  0.0385  0.1128
 3042POPC   GL136891  15.417   0.764   4.181 -0.0926  0.2876 -0.2368
 3042POPC   GL236892  15.571   0.507   4.130 -0.1660  0.1403 -0.1413
 3042POPC   C1A36893  15.623   0.687   4.584 -0.0876  0.0702  0.2082
 3042POPC   D2A36894  15.955   0.737   4.933  0.4180  0.1891  0.1385
 3042POPC   C3A36895  16.101   0.319   5.139  0.0273 -0.0018 -0.1548
 3042POPC   C4A36896  15.918   0.130   5.495  0.2681 -0.0976 -0.1427
 3042POPC   C1B36897  15.282   0.338   4.473  0.1313 -0.0288  0.0570
 3042POPC   C2B36898  15.266   0.204   4.885  0.3727  0.1005  0.2680
 3042POPC   C3B36899  14.933   0.035   5.135  0.1795 -0.1418  0.0700
 3042POPC   C4B36900  15.062  -0.294   5.436 -0.1007  0.1895  0.2098
 3043POPC   NC336901  13.036  12.291   3.927  0.0668  0.2329 -0.1887
 3043POPC   PO436902  13.349  12.063   3.837 -0.2649  0.2045 -0.1156
 3043POPC   GL136903  13.298  12.064   4.280 -0.0125 -0.0359 -0.2371
 3043POPC   GL236904  13.453  11.863   4.298  0.0428 -0.3079 -0.3792
 3043POPC   C1A36905  12.873  11.924   4.435 -0.1479  0.3307  0.1506
 3043POPC   D2A36906  12.686  11.635   4.710 -0.2007  0.0947 -0.0502
 3043POPC   C3A36907  12.561  11.549   5.140  0.0628 -0.2654  0.1547
 3043POPC   C4A36908  12.617  11.391   5.531  0.0645  0.2025 -0.3647
 3043POPC   C1B36909  13.249  11.717   4.686 -0.2659 -0.1657  0.1473
 3043POPC   C2B36910  13.128  11.717   5.104 -0.1290  0.1489  0.1337
 3043POPC   C3B36911  12.852  11.967   5.355  0.0297 -0.2270 -0.0058
 3043POPC   C4B36912  12.677  12.382   5.235  0.0723 -0.1808 -0.1798
 3044POPC   NC336913   8.558  21.030   3.736 -0.2525 -0.0153 -0.5089
 3044POPC   PO436914   8.322  21.373   3.743  0.0227 -0.2957  0.0502
 3044POPC   GL136915   8.293  21.488   4.086  0.2458  0.1007  0.2276
 3044POPC   GL236916   8.074  21.400   4.191 -0.0428 -0.0423 -0.1232
 3044POPC   C1A36917   8.604  21.626   4.387 -0.1853  0.0592  0.2344
 3044POPC   D2A36918   9.040  21.471   4.423  0.3286  0.2549  0.0049
 3044POPC   C3A36919   9.216  21.454   4.875 -0.1161  0.0734 -0.1142
 3044POPC   C4A36920   9.299  21.561   5.264 -0.2498  0.0114  0.2120
 3044POPC   C1B36921   8.019  21.605   4.539  0.2539 -0.2601  0.0800
 3044POPC   C2B36922   8.356  21.516   4.810 -0.2189 -0.0158  0.1979
 3044POPC   C3B36923   8.785  21.748   4.814  0.1136  0.0593  0.0570
 3044POPC   C4B36924   8.928  21.952   5.232 -0.1123  0.0044  0.1237
 3045POPC   NC336925   2.359  19.126   3.748  0.0870 -0.0019 -0.1964
 3045POPC   PO436926   2.227  19.316   4.048  0.2432 -0.2058 -0.2262
 3045POPC   GL136927   2.310  18.922   4.186  0.0670  0.0449  0.4399
 3045POPC   GL236928   2.191  18.983   4.436 -0.0470  0.0996  0.2147
 3045POPC   C1A36929   2.579  18.824   4.632  0.2332 -0.2311  0.1778
 3045POPC   D2A36930   2.559  18.426   4.849  0.0330  0.2000 -0.1381
 3045POPC   C3A36931   2.278  18.414   5.232  0.1315  0.2556  0.0614
 3045POPC   C4A36932   2.045  18.280   5.675  0.1959  0.3781 -0.0790
 3045POPC   C1B36933   2.122  18.912   4.904 -0.0311  0.3056  0.2648
 3045POPC   C2B36934   2.180  18.882   5.368 -0.0445 -0.2401  0.0710
 3045POPC   C3B36935   2.332  18.752   5.786 -0.2012 -0.0786 -0.0933
 3045POPC   C4B36936   2.244  18.471   6.111  0.2763 -0.0118 -0.2391
 3046POPC   NC336937   7.079  10.293   2.909  0.0638 -0.1897  0.0222
 3046POPC   PO436938   7.192  10.429   3.282 -0.0607  0.0597 -0.0235
 3046POPC   GL136939   7.392  10.375   3.611  0.2758  0.2624  0.2658
 3046POPC   GL236940   7.514  10.139   3.582 -0.2027  0.0035 -0.2330
 3046POPC   C1A36941   7.554  10.316   4.063 -0.0574 -0.0506  0.0735
 3046POPC   D2A36942   7.711  10.350   4.471  0.0389  0.2554 -0.0409
 3046POPC   C3A36943   8.089  10.556   4.647  0.0306 -0.0839 -0.0800
 3046POPC   C4A36944   8.421  10.421   4.905  0.1673  0.1391 -0.0438
 3046POPC   C1B36945   7.970  10.087   3.657 -0.2673  0.5023 -0.0194
 3046POPC   C2B36946   8.288  10.452   3.673  0.0075  0.0229 -0.5134
 3046POPC   C3B36947   8.723  10.556   3.790  0.0426 -0.0532 -0.0387
 3046POPC   C4B36948   9.166  10.606   3.873  0.0928  0.0521 -0.0463
 3047POPC   NC336949   7.818   7.813   3.846  0.2266  0.1772 -0.0357
 3047POPC   PO436950   7.945   8.141   3.710 -0.2213  0.0497 -0.1113
 3047POPC   GL136951   7.970   8.510   3.845 -0.4287  0.1038 -0.0864
 3047POPC   GL236952   7.932   8.463   4.132  0.0133  0.2442  0.1760
 3047POPC   C1A36953   8.235   8.799   4.154  0.4549 -0.0722 -0.2768
 3047POPC   D2A36954   8.524   8.835   4.423 -0.2258  0.1948  0.1905
 3047POPC   C3A36955   8.619   9.217   4.608 -0.2330  0.0266  0.1803
 3047POPC   C4A36956   8.776   9.566   4.814 -0.1171  0.1279  0.1545
 3047POPC   C1B36957   7.974   8.431   4.566  0.2386 -0.5493 -0.1287
 3047POPC   C2B36958   7.901   8.617   4.980  0.1056 -0.2445  0.1469
 3047POPC   C3B36959   7.797   9.112   5.121 -0.1097 -0.1068 -0.0428
 3047POPC   C4B36960   7.935   9.593   5.075  0.1593 -0.0906 -0.1537
 3048POPC   NC336961   1.245   8.653   4.215 -0.4812 -0.3195  0.0939
 3048POPC   PO436962   1.002   8.487   3.942 -0.0577 -0.3156  0.1726
 3048POPC   GL136963   1.115   8.222   4.264  0.0132  0.0635 -0.2617
 3048POPC   GL236964   0.870   8.144   4.244  0.2362 -0.4166 -0.0868
 3048POPC   C1A36965   1.404   7.958   4.427 -0.1056 -0.1196 -0.0831
 3048POPC   D2A36966   1.586   7.911   4.880 -0.0299  0.4310  0.0012
 3048POPC   C3A36967   1.188   7.650   5.094 -0.1397  0.0836 -0.2022
 3048POPC   C4A36968   1.347   7.657   5.492  0.3293 -0.0761  0.1730
 3048POPC   C1B36969   0.985   7.762   4.436 -0.1677 -0.1315 -0.1435
 3048POPC   C2B36970   0.996   7.383   4.756  0.0835 -0.2154  0.1306
 3048POPC   C3B36971   0.839   7.256   5.144  0.5343  0.4625  0.0860
 3048POPC   C4B36972   0.590   7.177   5.537  0.0886 -0.1711 -0.2280
 3049POPC   NC336973   9.424  27.542   3.779  0.3072  0.0137  0.0010
 3049POPC   PO436974   9.688  27.268   3.865 -0.0676  0.0662  0.2161
 3049POPC   GL136975   9.755  27.196   4.303  0.4064  0.0182  0.2350
 3049POPC   GL236976   9.494  27.291   4.410  0.0120 -0.2107  0.2164
 3049POPC   C1A36977  10.027  27.280   4.659  0.0806 -0.0093 -0.4254
 3049POPC   D2A36978  10.260  27.068   4.993 -0.2567 -0.1614 -0.0543
 3049POPC   C3A36979  10.679  26.974   5.180  0.4162 -0.1083  0.0139
 3049POPC   C4A36980  10.686  27.028   5.588 -0.0653  0.1318  0.2600
 3049POPC   C1B36981   9.549  27.163   4.868 -0.1064 -0.2828 -0.0801
 3049POPC   C2B36982   9.470  27.169   5.337  0.1051 -0.1056  0.2452
 3049POPC   C3B36983   9.717  27.175   5.784 -0.1091  0.3194  0.0971
 3049POPC   C4B36984  10.034  27.261   6.122 -0.0531 -0.3318  0.2755
 3050POPC   NC336985  15.293  25.232   3.563 -0.2826  0.0043  0.0258
 3050POPC   PO436986  15.135  24.964   3.795  0.0438 -0.0186 -0.0369
 3050POPC   GL136987  15.047  24.845   4.171 -0.1969 -0.3037  0.2393
 3050POPC   GL236988  14.727  24.830   4.267 -0.0333 -0.2201  0.0114
 3050POPC   C1A36989  15.095  24.574   4.567  0.0514 -0.3287 -0.2571
 3050POPC   D2A36990  14.955  24.528   5.033 -0.1489 -0.0804 -0.2107
 3050POPC   C3A36991  15.108  24.690   5.435 -0.1920  0.2161  0.0000
 3050POPC   C4A36992  15.058  24.613   5.885 -0.1863 -0.0464 -0.2652
 3050POPC   C1B36993  14.692  24.887   4.757  0.1828  0.1808  0.0436
 3050POPC   C2B36994  14.572  24.800   5.202  0.0018 -0.1337 -0.0105
 3050POPC   C3B36995  14.434  25.046   5.570  0.0296 -0.0611  0.1184
 3050POPC   C4B36996  14.025  24.978   5.775 -0.1486 -0.1771 -0.2888
 3051POPC   NC336997   9.518  22.628   3.759  0.0206  0.2320 -0.1963
 3051POPC   PO436998   9.702  22.258   3.623 -0.1577 -0.0039 -0.1649
 3051POPC   GL136999   9.905  22.336   3.965 -0.0092 -0.0360 -0.2967
 3051POPC   GL237000   9.753  22.320   4.203  0.0578 -0.0954  0.1710
 3051POPC   C1A37001  10.297  22.345   4.178 -0.0384  0.0071  0.5305
 3051POPC   D2A37002  10.636  21.982   4.194 -0.2447 -0.0422 -0.0905
 3051POPC   C3A37003  11.102  22.026   4.420  0.0657  0.1022  0.1085
 3051POPC   C4A37004  11.509  22.019   4.427  0.0156  0.2725  0.3210
 3051POPC   C1B37005   9.708  22.281   4.660  0.0868 -0.1670 -0.1964
 3051POPC   C2B37006   9.963  22.037   4.951  0.2368 -0.3540 -0.3233
 3051POPC   C3B37007  10.277  21.932   5.303  0.2645  0.0957  0.3809
 3051POPC   C4B37008  10.088  21.918   5.708 -0.2708 -0.3071  0.0759
 3052POPC   NC337009   2.908  19.821   3.506  0.1337 -0.1902 -0.4980
 3052POPC   PO437010   2.661  20.072   3.784 -0.1547  0.0920 -0.2185
 3052POPC   GL137011   2.705  20.106   4.110  0.1259  0.0004  0.2207
 3052POPC   GL237012   2.893  20.121   4.332  0.1510  0.1489  0.1306
 3052POPC   C1A37013   2.413  20.272   4.453 -0.2270  0.0434  0.0476
 3052POPC   D2A37014   1.988  20.119   4.585 -0.0851  0.1276 -0.2593
 3052POPC   C3A37015   2.087  19.945   5.006  0.0654 -0.0310  0.3934
 3052POPC   C4A37016   2.229  19.830   5.415  0.3241 -0.0054  0.0612
 3052POPC   C1B37017   2.974  20.299   4.699 -0.0169  0.4387 -0.1524
 3052POPC   C2B37018   2.840  20.601   5.055 -0.0086 -0.2640  0.1754
 3052POPC   C3B37019   2.478  20.769   5.203 -0.1898 -0.1214 -0.1616
 3052POPC   C4B37020   2.039  20.863   5.060  0.1092 -0.1331 -0.1230
 3053POPC   NC337021  13.693  22.632   3.584  0.2542  0.0324  0.0237
 3053POPC   PO437022  13.664  23.045   3.662 -0.1551  0.0525  0.0713
 3053POPC   GL137023  13.868  23.022   3.983  0.3463 -0.0612  0.4291
 3053POPC   GL237024  14.077  22.801   3.878 -0.1918  0.0195  0.4248
 3053POPC   C1A37025  13.929  23.325   4.359  0.2356 -0.1385  0.1825
 3053POPC   D2A37026  14.173  23.513   4.735  0.2294 -0.1701  0.2003
 3053POPC   C3A37027  13.917  23.581   5.158  0.0525  0.1419  0.0729
 3053POPC   C4A37028  13.748  23.529   5.525  0.1697  0.2441 -0.0780
 3053POPC   C1B37029  14.174  22.872   4.372  0.0595 -0.1936  0.0874
 3053POPC   C2B37030  14.326  22.564   4.671  0.0052  0.0260  0.0410
 3053POPC   C3B37031  14.355  22.517   5.102 -0.1938 -0.3498  0.1072
 3053POPC   C4B37032  14.355  22.323   5.504  0.0405  0.1584 -0.1629
 3054POPC   NC337033  11.352  14.314   3.910  0.2398  0.0526 -0.1703
 3054POPC   PO437034  11.134  14.655   3.746  0.0936  0.1097  0.2115
 3054POPC   GL137035  11.186  14.753   4.077 -0.0890  0.2401  0.0356
 3054POPC   GL237036  10.941  14.662   4.242 -0.0785 -0.2115  0.0437
 3054POPC   C1A37037  11.597  14.830   4.322  0.2055  0.1467 -0.0242
 3054POPC   D2A37038  11.823  14.493   4.626  0.1262 -0.0715  0.1310
 3054POPC   C3A37039  12.002  14.597   5.004 -0.3671 -0.2577  0.0818
 3054POPC   C4A37040  12.172  14.536   5.445  0.1895 -0.5220 -0.4212
 3054POPC   C1B37041  11.117  14.904   4.567 -0.0229 -0.0260 -0.1051
 3054POPC   C2B37042  11.396  15.264   4.575  0.0098 -0.1022 -0.0252
 3054POPC   C3B37043  11.384  15.648   4.792  0.0917 -0.3253 -0.1336
 3054POPC   C4B37044  11.632  15.926   5.063  0.0955 -0.0770 -0.2271
 3055POPC   NC337045  13.653  12.327   4.117  0.0980  0.2873  0.2540
 3055POPC   PO437046  13.890  12.042   4.043  0.0092 -0.1406 -0.1435
 3055POPC   GL137047  13.899  12.166   4.495 -0.2715 -0.4186  0.1559
 3055POPC   GL237048  14.082  12.435   4.381 -0.0626 -0.1184  0.1337
 3055POPC   C1A37049  14.170  12.133   4.845 -0.0257  0.1637 -0.1771
 3055POPC   D2A37050  14.396  12.037   5.193  0.1292  0.0557 -0.0659
 3055POPC   C3A37051  14.501  12.142   5.670 -0.1262 -0.1036  0.0124
 3055POPC   C4A37052  14.603  12.346   6.132 -0.0586  0.2005  0.2087
 3055POPC   C1B37053  14.484  12.246   4.449 -0.2377  0.1015  0.1556
 3055POPC   C2B37054  14.704  12.182   4.892 -0.0994 -0.0602  0.2330
 3055POPC   C3B37055  14.931  12.255   5.337  0.3858  0.0976 -0.0029
 3055POPC   C4B37056  14.977  12.378   5.779 -0.2353  0.0775  0.3284
 3056POPC   NC337057   9.537  17.855   3.710  0.0948  0.0303 -0.1500
 3056POPC   PO437058   9.522  17.490   3.746 -0.4173  0.1531 -0.1146
 3056POPC   GL137059   9.522  17.428   4.112  0.3684  0.1856 -0.2163
 3056POPC   GL237060   9.336  17.685   4.301  0.1051  0.2890 -0.2747
 3056POPC   C1A37061   9.548  17.298   4.571 -0.3342 -0.0420  0.0401
 3056POPC   D2A37062   9.750  17.325   5.021  0.1456  0.0101  0.0076
 3056POPC   C3A37063   9.702  17.492   5.478 -0.3159  0.0548  0.1155
 3056POPC   C4A37064   9.704  17.429   5.940  0.0976 -0.1420 -0.2083
 3056POPC   C1B37065   9.826  17.728   4.332  0.1967  0.0330 -0.1529
 3056POPC   C2B37066  10.009  17.617   4.754  0.1776  0.0254  0.1939
 3056POPC   C3B37067  10.118  17.811   5.187 -0.0263  0.0603 -0.3086
 3056POPC   C4B37068   9.844  17.955   5.546 -0.2630  0.1862 -0.2367
 3057POPC   NC337069  14.417  17.597   3.682  0.0405  0.1512  0.2057
 3057POPC   PO437070  14.725  17.822   3.581 -0.0912  0.1660  0.3603
 3057POPC   GL137071  14.607  17.883   4.063  0.1034  0.1480 -0.2063
 3057POPC   GL237072  14.497  18.117   3.992  0.0317 -0.0478  0.3473
 3057POPC   C1A37073  14.402  17.547   4.271 -0.0352 -0.0892  0.0469
 3057POPC   D2A37074  14.028  17.251   4.348 -0.2183  0.0175  0.2300
 3057POPC   C3A37075  14.177  17.073   4.695 -0.1571 -0.2107  0.2139
 3057POPC   C4A37076  14.014  17.253   5.056 -0.0712 -0.0144 -0.1213
 3057POPC   C1B37077  14.593  18.203   4.437  0.0275  0.3529  0.5102
 3057POPC   C2B37078  14.353  18.056   4.791 -0.0259 -0.0469 -0.0993
 3057POPC   C3B37079  14.118  18.180   5.210 -0.1207 -0.2850  0.0321
 3057POPC   C4B37080  14.226  18.476   5.592 -0.0471  0.0944 -0.1842
 3058POPC   NC337081   8.045  25.380   4.286 -0.0724  0.3707 -0.1161
 3058POPC   PO437082   8.266  25.056   4.162 -0.2565  0.0287  0.0132
 3058POPC   GL137083   8.410  24.851   4.554 -0.3776  0.3776 -0.3909
 3058POPC   GL237084   8.196  24.692   4.522 -0.0828 -0.0635  0.0468
 3058POPC   C1A37085   8.114  25.133   4.857  0.0951 -0.2411  0.2493
 3058POPC   D2A37086   8.045  25.488   5.076 -0.2319  0.2021  0.1076
 3058POPC   C3A37087   8.439  25.652   5.371 -0.0331  0.0403  0.0659
 3058POPC   C4A37088   8.807  25.504   5.603 -0.1469 -0.0850  0.3366
 3058POPC   C1B37089   8.350  24.675   4.976 -0.0926  0.1743 -0.0353
 3058POPC   C2B37090   8.383  24.442   5.375  0.2736  0.0763  0.2797
 3058POPC   C3B37091   8.193  24.294   5.793 -0.2675 -0.0129 -0.3271
 3058POPC   C4B37092   7.848  24.187   6.041 -0.2059 -0.1860  0.2734
 3059POPC   NC337093   6.120  19.804   3.806  0.3830 -0.2279  0.1642
 3059POPC   PO437094   5.778  19.602   3.792  0.1940 -0.2359 -0.6945
 3059POPC   GL137095   5.578  19.381   4.072 -0.3949 -0.1231  0.0886
 3059POPC   GL237096   5.395  19.221   3.906  0.0505 -0.0971  0.1123
 3059POPC   C1A37097   5.304  19.182   4.445  0.1418  0.4307 -0.0908
 3059POPC   D2A37098   5.095  18.820   4.601 -0.0797  0.2702  0.2460
 3059POPC   C3A37099   4.937  18.735   5.031 -0.0957  0.0492 -0.1414
 3059POPC   C4A37100   4.611  18.770   5.350  0.1507  0.1539 -0.1453
 3059POPC   C1B37101   5.688  18.950   4.190 -0.3390  0.1336  0.1537
 3059POPC   C2B37102   5.611  18.799   4.647 -0.3496  0.1471 -0.4005
 3059POPC   C3B37103   5.794  18.608   5.092  0.1560  0.1803  0.3249
 3059POPC   C4B37104   6.105  18.438   5.339 -0.1415 -0.0550 -0.2238
 3060POPC   NC337105   8.241   4.536   3.752 -0.1973 -0.2176 -0.1489
 3060POPC   PO437106   8.344   4.133   3.740 -0.2820  0.0595  0.0645
 3060POPC   GL137107   8.431   3.999   4.034  0.0583  0.4139  0.0243
 3060POPC   GL237108   8.722   3.902   3.969  0.2477  0.0888 -0.0125
 3060POPC   C1A37109   8.187   3.660   4.276 -0.0807  0.1127  0.2108
 3060POPC   D2A37110   7.864   3.294   4.183  0.0546  0.1352  0.0037
 3060POPC   C3A37111   7.775   3.046   4.590  0.4474 -0.0058 -0.0820
 3060POPC   C4A37112   7.898   2.732   4.941  0.1317  0.0730 -0.2430
 3060POPC   C1B37113   8.693   3.714   4.385 -0.1335 -0.1309  0.1270
 3060POPC   C2B37114   8.536   3.530   4.724 -0.1811  0.2735  0.0138
 3060POPC   C3B37115   8.529   3.483   5.173 -0.2892 -0.4427 -0.1246
 3060POPC   C4B37116   8.730   3.835   5.416  0.1594  0.0785  0.1836
 3061POPC   NC337117  11.109  27.632   3.402 -0.1016  0.1810  0.2452
 3061POPC   PO437118  10.856  27.541   3.688 -0.0660  0.2867  0.1010
 3061POPC   GL137119  10.940  27.761   4.030  0.0234 -0.0982 -0.0727
 3061POPC   GL237120  11.247  27.641   4.115  0.0114  0.1262  0.0835
 3061POPC   C1A37121  10.893  27.682   4.502  0.2129  0.0466  0.0971
 3061POPC   D2A37122  10.804  27.594   4.941 -0.0548 -0.0749 -0.2829
 3061POPC   C3A37123  11.047  27.314   5.248  0.1203  0.0289 -0.0593
 3061POPC   C4A37124  11.184  26.991   5.549 -0.1630 -0.1574 -0.3131
 3061POPC   C1B37125  11.393  27.844   4.525  0.0105 -0.0355  0.3140
 3061POPC   C2B37126  11.565  28.013   4.889  0.1038  0.1810  0.0344
 3061POPC   C3B37127  11.873  28.057   5.319 -0.0544  0.2769 -0.2238
 3061POPC   C4B37128  12.275  27.879   5.368  0.1665 -0.0495  0.1714
 3062POPC   NC337129  11.708  23.140   3.271  0.0752 -0.1376  0.1409
 3062POPC   PO437130  11.724  23.544   3.369  0.0805 -0.1434 -0.0873
 3062POPC   GL137131  12.038  23.446   3.605 -0.0442 -0.1718 -0.2601
 3062POPC   GL237132  12.302  23.416   3.488 -0.0194  0.2626 -0.0319
 3062POPC   C1A37133  12.025  23.242   4.044 -0.1948 -0.0672  0.2141
 3062POPC   D2A37134  11.935  23.245   4.447  0.1499  0.0593 -0.3028
 3062POPC   C3A37135  12.261  23.131   4.718  0.1170 -0.0698 -0.1376
 3062POPC   C4A37136  12.577  23.159   5.049 -0.2963 -0.1539  0.0679
 3062POPC   C1B37137  12.462  23.235   3.882  0.2291  0.1853 -0.0309
 3062POPC   C2B37138  12.443  23.078   4.306 -0.3268  0.2504  0.1845
 3062POPC   C3B37139  12.587  22.794   4.658 -0.3450  0.2779  0.2940
 3062POPC   C4B37140  12.572  22.628   5.057 -0.1100  0.1436  0.2652
 3063POPC   NC337141   8.051  14.009   3.808  0.0208 -0.1415 -0.0079
 3063POPC   PO437142   8.145  14.347   3.724  0.0512  0.0499  0.1339
 3063POPC   GL137143   7.976  14.394   4.082 -0.1981 -0.0405 -0.1234
 3063POPC   GL237144   7.733  14.561   4.136 -0.3110 -0.1494  0.3192
 3063POPC   C1A37145   8.101  14.457   4.514 -0.1093 -0.1452 -0.2125
 3063POPC   D2A37146   7.994  14.834   4.790  0.0720  0.1689  0.0834
 3063POPC   C3A37147   7.981  14.722   5.186 -0.0613  0.1650  0.0672
 3063POPC   C4A37148   7.965  14.321   5.436  0.1208  0.2781 -0.1890
 3063POPC   C1B37149   7.592  14.743   4.484  0.1726  0.4716  0.0723
 3063POPC   C2B37150   7.506  14.877   4.919  0.2212 -0.0561 -0.0034
 3063POPC   C3B37151   7.221  15.104   5.210  0.2616  0.3283 -0.1945
 3063POPC   C4B37152   6.754  15.115   5.218 -0.0903 -0.1436  0.1081
 3064POPC   NC337153  10.215  12.656   3.855 -0.2185 -0.0767 -0.2469
 3064POPC   PO437154  10.371  12.941   3.635  0.1331  0.3036  0.0871
 3064POPC   GL137155  10.537  13.085   3.981 -0.0356  0.0231 -0.1585
 3064POPC   GL237156  10.426  13.356   3.979 -0.0730  0.2829 -0.1792
 3064POPC   C1A37157  10.386  13.176   4.477 -0.1001 -0.3256 -0.1131
 3064POPC   D2A37158  10.286  13.302   4.895 -0.0104 -0.2691  0.2679
 3064POPC   C3A37159  10.009  13.054   5.084  0.1375 -0.0708 -0.0290
 3064POPC   C4A37160   9.845  12.595   5.159  0.0858 -0.2007  0.1779
 3064POPC   C1B37161   9.999  13.536   4.104 -0.2624  0.0767 -0.2158
 3064POPC   C2B37162   9.609  13.712   4.272  0.1859  0.1265  0.5247
 3064POPC   C3B37163   9.202  13.798   4.488 -0.1911 -0.1712 -0.2661
 3064POPC   C4B37164   8.906  13.498   4.706  0.2067  0.1710  0.0255
 3065POPC   NC337165   0.356  25.754   3.708  0.0939 -0.0074  0.0091
 3065POPC   PO437166   0.440  25.714   4.077 -0.1367 -0.1619 -0.0100
 3065POPC   GL137167   0.525  25.790   4.390 -0.1603  0.0261  0.0802
 3065POPC   GL237168   0.736  25.999   4.455  0.0499 -0.0233  0.3230
 3065POPC   C1A37169   0.563  25.542   4.764 -0.1616 -0.1394  0.2613
 3065POPC   D2A37170   0.456  25.184   4.997  0.1094 -0.3002  0.1535
 3065POPC   C3A37171   0.554  24.884   5.366 -0.1736 -0.0337  0.2962
 3065POPC   C4A37172   0.554  24.520   5.603  0.1374  0.0775 -0.1849
 3065POPC   C1B37173   0.596  26.027   4.893 -0.2327 -0.2966  0.1669
 3065POPC   C2B37174   0.597  26.164   5.358  0.2225  0.1136  0.0881
 3065POPC   C3B37175   0.340  26.484   5.521  0.0920  0.0744  0.1244
 3065POPC   C4B37176  -0.084  26.589   5.685 -0.0361  0.2159  0.3202
 3066POPC   NC337177   5.596  27.759   3.751  0.0281  0.0140 -0.0048
 3066POPC   PO437178   5.223  27.779   3.803 -0.0008  0.0059  0.0130
 3066POPC   GL137179   5.241  28.015   4.184  0.4999  0.0373  0.3758
 3066POPC   GL237180   5.419  27.844   4.351  0.1381 -0.0201  0.1875
 3066POPC   C1A37181   5.017  28.303   4.514 -0.2840 -0.0878 -0.1290
 3066POPC   D2A37182   5.033  28.292   4.988 -0.1243  0.1654 -0.2665
 3066POPC   C3A37183   4.971  27.990   5.306 -0.0110 -0.0741  0.0062
 3066POPC   C4A37184   4.829  27.781   5.708  0.2193  0.3433  0.1008
 3066POPC   C1B37185   5.295  27.865   4.792  0.2980 -0.2092 -0.2045
 3066POPC   C2B37186   5.264  27.541   5.173 -0.0171  0.1092 -0.0828
 3066POPC   C3B37187   5.132  27.347   5.626 -0.1115  0.2473  0.0932
 3066POPC   C4B37188   5.082  27.408   6.045 -0.2936 -0.1754  0.0725
 3067POPC   NC337189   6.100  23.967   3.987  0.0028 -0.4151 -0.1085
 3067POPC   PO437190   5.929  24.245   3.727 -0.1391  0.0093  0.0813
 3067POPC   GL137191   5.759  24.266   4.142  0.1375  0.1860  0.0826
 3067POPC   GL237192   5.719  23.980   4.302  0.1890 -0.2030 -0.0168
 3067POPC   C1A37193   5.317  24.197   4.324  0.1853 -0.2280 -0.2728
 3067POPC   D2A37194   4.935  24.361   4.527  0.3222  0.1523 -0.0851
 3067POPC   C3A37195   4.660  24.255   4.912 -0.1262 -0.1602  0.1470
 3067POPC   C4A37196   4.629  24.354   5.334 -0.1706  0.3287  0.3118
 3067POPC   C1B37197   5.615  24.033   4.736 -0.1828 -0.1013  0.2332
 3067POPC   C2B37198   5.686  24.148   5.134 -0.2405 -0.4830 -0.2629
 3067POPC   C3B37199   5.952  24.362   5.499  0.0538  0.3014 -0.0509
 3067POPC   C4B37200   5.843  24.652   5.831 -0.0705 -0.1248  0.3410
 3068POPC   NC337201  13.861  21.931   3.465 -0.1096 -0.2019  0.1022
 3068POPC   PO437202  14.084  22.252   3.507 -0.1316 -0.3518 -0.0136
 3068POPC   GL137203  13.976  22.314   3.906 -0.2996 -0.0775 -0.2974
 3068POPC   GL237204  13.719  22.197   3.886 -0.1928  0.2109 -0.1704
 3068POPC   C1A37205  13.903  22.287   4.365  0.1345  0.1703 -0.4598
 3068POPC   D2A37206  13.874  22.536   4.739 -0.0701 -0.0086  0.2390
 3068POPC   C3A37207  13.861  22.478   5.200 -0.0706  0.1424 -0.1920
 3068POPC   C4A37208  13.958  22.638   5.611  0.1856  0.1867  0.3078
 3068POPC   C1B37209  13.677  22.583   4.137  0.2340  0.1284 -0.0920
 3068POPC   C2B37210  13.659  22.932   4.456 -0.3276  0.0252 -0.2159
 3068POPC   C3B37211  13.926  23.033   4.833 -0.0342  0.1136 -0.3399
 3068POPC   C4B37212  14.105  22.939   5.238  0.0883 -0.1131  0.0504
 3069POPC   NC337213  12.180  15.617   3.859  0.1369  0.0995 -0.0551
 3069POPC   PO437214  12.400  15.925   3.872 -0.1036  0.2919 -0.1269
 3069POPC   GL137215  12.467  15.779   4.267 -0.0807  0.2530 -0.1240
 3069POPC   GL237216  12.246  15.655   4.338  0.2437 -0.1725 -0.0074
 3069POPC   C1A37217  12.440  15.931   4.696  0.0948  0.0288  0.0802
 3069POPC   D2A37218  12.532  16.080   5.082  0.0399  0.2918  0.3687
 3069POPC   C3A37219  12.675  15.823   5.535 -0.0003  0.0364 -0.0460
 3069POPC   C4A37220  12.921  15.501   5.797  0.2296 -0.1170 -0.1785
 3069POPC   C1B37221  11.981  15.687   4.746  0.2875 -0.1685  0.0922
 3069POPC   C2B37222  11.727  15.424   5.017  0.0932  0.2755  0.1303
 3069POPC   C3B37223  11.521  15.337   5.379 -0.1559  0.0015  0.1549
 3069POPC   C4B37224  11.077  15.398   5.591 -0.0698 -0.3587  0.1730
 3070POPC   NC337225  13.498  17.500   3.737 -0.1466 -0.0263 -0.0253
 3070POPC   PO437226  13.332  17.582   3.369 -0.0244 -0.0968  0.1335
 3070POPC   GL137227  13.105  17.808   3.510 -0.0965  0.2383 -0.2814
 3070POPC   GL237228  13.002  17.527   3.799 -0.1781 -0.2566  0.0224
 3070POPC   C1A37229  13.047  18.111   3.914 -0.1324 -0.0863  0.1721
 3070POPC   D2A37230  13.127  18.438   4.210  0.0030 -0.0594 -0.1919
 3070POPC   C3A37231  13.278  18.313   4.618 -0.0482 -0.2858 -0.5723
 3070POPC   C4A37232  13.114  18.082   4.938 -0.0061 -0.0619 -0.0640
 3070POPC   C1B37233  13.036  17.622   4.244 -0.0588 -0.1745  0.0715
 3070POPC   C2B37234  13.156  17.560   4.717 -0.1389  0.1151 -0.2911
 3070POPC   C3B37235  12.988  17.482   5.173  0.0564  0.1141 -0.1687
 3070POPC   C4B37236  13.268  17.440   5.554  0.3405  0.0540  0.0497
 3071POPC   NC337237   2.870   8.409   3.755 -0.0171 -0.0695  0.0232
 3071POPC   PO437238   3.232   8.556   3.849 -0.0589  0.0734  0.1463
 3071POPC   GL137239   3.110   8.493   4.154 -0.1224 -0.2414 -0.6057
 3071POPC   GL237240   3.247   8.641   4.365 -0.0044  0.0393 -0.0817
 3071POPC   C1A37241   2.986   8.257   4.552  0.1891  0.1250  0.0390
 3071POPC   D2A37242   3.093   7.876   4.819 -0.1549  0.0013 -0.2056
 3071POPC   C3A37243   2.923   7.784   5.222  0.2919 -0.2262  0.0673
 3071POPC   C4A37244   2.792   7.777   5.662 -0.0585 -0.5151 -0.2448
 3071POPC   C1B37245   3.312   8.489   4.834 -0.1984  0.0073  0.0952
 3071POPC   C2B37246   3.197   8.389   5.282  0.1033  0.0662 -0.0231
 3071POPC   C3B37247   2.835   8.326   5.540  0.2730 -0.1328  0.0135
 3071POPC   C4B37248   2.490   8.054   5.438 -0.0477 -0.0099  0.0807
 3072POPC   NC337249  14.664   5.338   3.728  0.3544  0.0360  0.3814
 3072POPC   PO437250  14.994   5.390   3.954  0.1223 -0.0241 -0.0211
 3072POPC   GL137251  15.006   5.319   4.311  0.1407  0.2210 -0.0094
 3072POPC   GL237252  14.781   5.115   4.369  0.2300 -0.1290  0.2353
 3072POPC   C1A37253  14.956   5.563   4.660  0.0606 -0.0169  0.1468
 3072POPC   D2A37254  14.886   5.503   5.091 -0.1303  0.0694  0.1404
 3072POPC   C3A37255  14.669   5.779   5.443  0.1251  0.2171  0.1041
 3072POPC   C4A37256  14.629   5.799   5.881 -0.1351 -0.1154 -0.2188
 3072POPC   C1B37257  14.583   5.203   4.792 -0.1526 -0.1920  0.0126
 3072POPC   C2B37258  14.454   5.353   5.188  0.2313  0.2485  0.1096
 3072POPC   C3B37259  14.320   5.432   5.625  0.5352 -0.0451  0.0585
 3072POPC   C4B37260  14.275   5.463   6.100 -0.1757  0.3487 -0.1114
 3073POPC   NC337261  14.151  18.580   3.603  0.0727  0.0875 -0.0813
 3073POPC   PO437262  14.511  18.627   3.618  0.0180  0.0397 -0.2194
 3073POPC   GL137263  14.449  18.631   4.011  0.0821  0.1628  0.3019
 3073POPC   GL237264  14.744  18.599   4.078  0.0590 -0.4127  0.1570
 3073POPC   C1A37265  14.208  18.508   4.404 -0.0282  0.0196  0.2284
 3073POPC   D2A37266  14.146  18.550   4.863  0.0437 -0.0751 -0.1272
 3073POPC   C3A37267  13.883  18.592   5.251 -0.1819  0.3149  0.3405
 3073POPC   C4A37268  13.840  18.779   5.653  0.1293 -0.0457  0.4027
 3073POPC   C1B37269  14.687  18.801   4.512  0.2752 -0.1809 -0.0524
 3073POPC   C2B37270  14.521  18.886   4.906  0.0260  0.1813  0.1227
 3073POPC   C3B37271  14.294  18.877   5.286  0.0217  0.1067 -0.3176
 3073POPC   C4B37272  14.407  19.122   5.713  0.2403  0.0820 -0.0170
 3074POPC   NC337273   8.713   7.840   4.038 -0.0931 -0.3802  0.0508
 3074POPC   PO437274   8.543   8.082   3.782 -0.0139  0.0287 -0.2104
 3074POPC   GL137275   8.345   8.234   4.007  0.3172  0.1130  0.1715
 3074POPC   GL237276   8.540   8.361   4.189 -0.0280  0.0283 -0.0897
 3074POPC   C1A37277   8.225   8.050   4.444 -0.0267 -0.4064 -0.4011
 3074POPC   D2A37278   8.241   8.087   4.882 -0.0946 -0.2758 -0.1219
 3074POPC   C3A37279   8.602   8.220   5.173 -0.1899 -0.0193  0.1806
 3074POPC   C4A37280   8.903   8.556   5.266  0.1462 -0.0555  0.0673
 3074POPC   C1B37281   8.656   8.368   4.618  0.0441 -0.0754  0.0637
 3074POPC   C2B37282   8.501   8.669   4.972 -0.1236 -0.1003  0.0111
 3074POPC   C3B37283   8.236   8.754   5.368 -0.2246 -0.3251 -0.0118
 3074POPC   C4B37284   7.943   8.997   5.611  0.0018 -0.1370  0.0221
 3075POPC   NC337285   8.231   6.333   3.100  0.2638 -0.1801 -0.1580
 3075POPC   PO437286   8.109   6.379   3.467 -0.4419 -0.1639 -0.0292
 3075POPC   GL137287   8.078   6.388   3.897 -0.0841 -0.0467 -0.0554
 3075POPC   GL237288   7.803   6.351   3.901 -0.2223 -0.2710  0.0373
 3075POPC   C1A37289   8.097   6.176   4.337  0.2208  0.1198  0.0926
 3075POPC   D2A37290   7.995   6.003   4.724 -0.0295 -0.1616 -0.2175
 3075POPC   C3A37291   7.860   5.926   5.145 -0.1208 -0.0951  0.0756
 3075POPC   C4A37292   7.512   6.102   5.367  0.0756  0.1526  0.0938
 3075POPC   C1B37293   7.868   6.692   4.209 -0.1075  0.1071 -0.0137
 3075POPC   C2B37294   8.009   6.566   4.656 -0.1548 -0.3280 -0.3395
 3075POPC   C3B37295   8.005   6.575   5.089 -0.2094 -0.2195  0.2519
 3075POPC   C4B37296   8.185   6.652   5.491  0.0804 -0.0551 -0.2231
 3076POPC   NC337297  12.281  12.340   3.791 -0.2336 -0.0971 -0.1658
 3076POPC   PO437298  12.636  12.558   3.770  0.1642 -0.0148 -0.1646
 3076POPC   GL137299  12.601  12.689   4.131  0.0475 -0.0075  0.4137
 3076POPC   GL237300  12.628  12.396   4.248 -0.0125 -0.0732 -0.0710
 3076POPC   C1A37301  12.403  12.732   4.510  0.5503  0.1114  0.3857
 3076POPC   D2A37302  12.077  12.504   4.694  0.0365 -0.0138  0.1198
 3076POPC   C3A37303  11.566  12.587   4.731 -0.0166 -0.0193  0.2232
 3076POPC   C4A37304  11.140  12.611   4.839  0.0040  0.1903 -0.2612
 3076POPC   C1B37305  12.603  12.265   4.659  0.2857  0.3878  0.1202
 3076POPC   C2B37306  12.993  12.176   4.841  0.1937  0.0714  0.0161
 3076POPC   C3B37307  13.296  12.195   5.117  0.0084 -0.1474  0.0590
 3076POPC   C4B37308  13.415  12.047   5.499 -0.3241  0.1978 -0.0907
 3077POPC   NC337309   4.386  24.060   2.825 -0.1045  0.1069 -0.0222
 3077POPC   PO437310   4.178  24.293   2.977 -0.0095  0.0010 -0.0605
 3077POPC   GL137311   3.901  24.414   3.234 -0.0811 -0.0948  0.1914
 3077POPC   GL237312   3.678  24.528   3.102 -0.2528 -0.1572 -0.1472
 3077POPC   C1A37313   3.617  24.329   3.601 -0.1234  0.2207  0.0297
 3077POPC   D2A37314   3.300  24.477   3.916  0.4169 -0.2352 -0.1624
 3077POPC   C3A37315   3.146  24.310   4.380 -0.3237 -0.0251 -0.1192
 3077POPC   C4A37316   2.808  24.117   4.677 -0.0486  0.3281  0.3965
 3077POPC   C1B37317   3.501  24.133   3.106 -0.0403 -0.1817 -0.1073
 3077POPC   C2B37318   3.270  23.995   3.463  0.0867 -0.3076 -0.0973
 3077POPC   C3B37319   3.174  24.016   3.933  0.0241  0.0992  0.2161
 3077POPC   C4B37320   3.021  23.762   4.360  0.0878  0.1311 -0.0359
 3078POPC   NC337321  15.681   8.712   3.628  0.1417 -0.0879  0.2907
 3078POPC   PO437322  15.729   8.927   3.947 -0.3620 -0.1014 -0.0622
 3078POPC   GL137323  15.978   9.008   4.234  0.1584 -0.2351 -0.2467
 3078POPC   GL237324  16.083   8.760   4.346 -0.0919 -0.2667  0.0830
 3078POPC   C1A37325  15.934   9.379   4.540 -0.1308  0.5983 -0.0293
 3078POPC   D2A37326  16.249   9.623   4.767  0.0918  0.3787  0.2142
 3078POPC   C3A37327  16.461   9.442   5.112 -0.1404  0.1653  0.0109
 3078POPC   C4A37328  16.576   9.091   5.452 -0.4587 -0.0475 -0.0023
 3078POPC   C1B37329  15.826   8.891   4.816  0.0749  0.1960  0.0402
 3078POPC   C2B37330  15.487   8.903   5.175  0.2125 -0.3435  0.2850
 3078POPC   C3B37331  15.266   9.023   5.542  0.0937 -0.1648  0.1255
 3078POPC   C4B37332  15.050   9.213   5.933  0.0812  0.0462  0.0636
 3079POPC   NC337333   8.374  30.076   3.523  0.0816  0.0677 -0.0835
 3079POPC   PO437334   8.299  29.753   3.736  0.2172  0.0014 -0.0988
 3079POPC   GL137335   8.226  29.673   4.153 -0.2176 -0.5302  0.1663
 3079POPC   GL237336   7.993  29.571   4.178 -0.0231 -0.2118 -0.0961
 3079POPC   C1A37337   8.469  29.792   4.540  0.2441  0.1893 -0.1168
 3079POPC   D2A37338   8.395  29.702   5.030  0.0500  0.0242 -0.0011
 3079POPC   C3A37339   8.225  29.357   5.222  0.0160  0.1408 -0.1105
 3079POPC   C4A37340   7.775  29.223   5.313 -0.1750  0.2028  0.4385
 3079POPC   C1B37341   8.148  29.369   4.599  0.1918  0.1893 -0.0437
 3079POPC   C2B37342   8.083  29.031   4.918  0.0867  0.0161 -0.1106
 3079POPC   C3B37343   8.025  28.783   5.374  0.1076  0.0372 -0.1590
 3079POPC   C4B37344   7.724  28.642   5.779  0.0898  0.1836 -0.1432
 3080POPC   NC337345   6.834  10.611   3.558 -0.0025 -0.0598  0.0811
 3080POPC   PO437346   6.425  10.658   3.601 -0.0340 -0.0733  0.0336
 3080POPC   GL137347   6.576  10.691   4.003 -0.1221 -0.0185  0.2068
 3080POPC   GL237348   6.628  10.948   3.994 -0.3357  0.3492 -0.1945
 3080POPC   C1A37349   6.695  10.496   4.392  0.0334 -0.1035 -0.5116
 3080POPC   D2A37350   6.560  10.054   4.514  0.0844  0.1885  0.1143
 3080POPC   C3A37351   6.436   9.881   4.946  0.0396 -0.1550 -0.5612
 3080POPC   C4A37352   6.248   9.950   5.352 -0.0929 -0.1789  0.1021
 3080POPC   C1B37353   6.964  10.995   4.244 -0.1515 -0.1161 -0.1373
 3080POPC   C2B37354   7.240  11.009   4.618  0.1683 -0.0526 -0.1492
 3080POPC   C3B37355   7.523  10.710   4.822 -0.0710 -0.0228 -0.1684
 3080POPC   C4B37356   7.744  10.551   5.208 -0.0058  0.5086  0.2531
 3081POPC   NC337357   2.905   2.155   3.914  0.0175  0.0431 -0.0887
 3081POPC   PO437358   2.939   1.796   3.761  0.0891  0.1710 -0.0082
 3081POPC   GL137359   2.991   1.776   4.197 -0.1311 -0.2610  0.4346
 3081POPC   GL237360   2.763   1.766   4.296  0.0202 -0.2624 -0.2224
 3081POPC   C1A37361   3.124   1.483   4.475 -0.0002 -0.0248  0.1975
 3081POPC   D2A37362   3.236   1.501   4.911  0.0130 -0.0311 -0.0661
 3081POPC   C3A37363   2.962   1.775   5.116 -0.1795 -0.0543 -0.0000
 3081POPC   C4A37364   2.865   2.098   5.343 -0.1376 -0.0478  0.0265
 3081POPC   C1B37365   2.691   1.707   4.753 -0.0281 -0.0950  0.0453
 3081POPC   C2B37366   2.485   1.804   5.149 -0.0421  0.0471  0.0093
 3081POPC   C3B37367   2.267   1.968   5.518 -0.4436 -0.2028  0.0980
 3081POPC   C4B37368   2.165   2.216   5.928 -0.0351 -0.1139 -0.5219
 3082POPC   NC337369   7.915  12.274   3.165  0.0312 -0.1218 -0.0550
 3082POPC   PO437370   7.985  11.887   3.195  0.0533 -0.0681 -0.3979
 3082POPC   GL137371   8.078  12.012   3.532 -0.1129  0.1495 -0.4613
 3082POPC   GL237372   7.852  11.962   3.671 -0.0606  0.1864  0.2253
 3082POPC   C1A37373   8.358  11.871   3.906  0.2434 -0.3978  0.0052
 3082POPC   D2A37374   8.269  11.706   4.345 -0.0131  0.0927  0.1067
 3082POPC   C3A37375   8.131  11.523   4.713 -0.1429  0.1640 -0.0126
 3082POPC   C4A37376   8.212  11.456   5.203 -0.2231  0.0175  0.3018
 3082POPC   C1B37377   7.812  11.859   4.177 -0.1936  0.2040 -0.1240
 3082POPC   C2B37378   7.861  11.903   4.580 -0.1822 -0.1864  0.1292
 3082POPC   C3B37379   7.738  11.766   5.028 -0.1122  0.0954 -0.0893
 3082POPC   C4B37380   7.721  11.607   5.462 -0.1678 -0.1954 -0.1376
 3083POPC   NC337381   9.668  25.941   4.034  0.0725 -0.2892 -0.1210
 3083POPC   PO437382   9.939  26.231   3.968 -0.2299 -0.1489  0.2479
 3083POPC   GL137383   9.988  26.247   4.331  0.0717  0.2471  0.0831
 3083POPC   GL237384  10.296  26.317   4.404 -0.2225 -0.2015 -0.0583
 3083POPC   C1A37385   9.920  26.343   4.775 -0.1133 -0.2969  0.0455
 3083POPC   D2A37386   9.663  26.260   5.159 -0.1945  0.0046  0.0613
 3083POPC   C3A37387   9.790  26.137   5.602  0.1703 -0.2769 -0.2646
 3083POPC   C4A37388   9.985  26.197   6.063  0.0973 -0.0540 -0.0390
 3083POPC   C1B37389  10.491  26.178   4.845  0.2044  0.1524  0.1471
 3083POPC   C2B37390  10.841  25.996   5.058  0.1201 -0.0395 -0.0444
 3083POPC   C3B37391  11.186  25.890   5.267 -0.0665 -0.2216 -0.1475
 3083POPC   C4B37392  11.576  25.600   5.326  0.3399 -0.0641 -0.4406
 3084POPC   NC337393   2.103  10.937   3.881  0.2576 -0.2315 -0.0248
 3084POPC   PO437394   1.764  11.109   3.799 -0.0007 -0.1531 -0.0878
 3084POPC   GL137395   1.762  11.149   4.200 -0.1212  0.0362 -0.1632
 3084POPC   GL237396   1.591  11.357   4.261 -0.2136 -0.0709 -0.3215
 3084POPC   C1A37397   2.077  10.905   4.413  0.1214  0.2193 -0.3720
 3084POPC   D2A37398   2.141  10.557   4.663  0.4528 -0.0642  0.0688
 3084POPC   C3A37399   2.077  10.636   5.133  0.2819  0.2581 -0.0928
 3084POPC   C4A37400   2.191  10.628   5.632 -0.1506  0.3861 -0.3915
 3084POPC   C1B37401   1.579  11.080   4.619 -0.0261 -0.2598  0.1260
 3084POPC   C2B37402   1.801  11.011   4.994 -0.1508  0.1363  0.1710
 3084POPC   C3B37403   1.836  10.942   5.414  0.1494 -0.1541  0.0352
 3084POPC   C4B37404   1.645  11.162   5.768 -0.2160 -0.0602  0.2075
 3085POPC   NC337405  10.264  18.010   3.752  0.0062 -0.0199  0.0479
 3085POPC   PO437406  10.572  18.170   3.668 -0.3245 -0.1436  0.0000
 3085POPC   GL137407  10.565  18.181   4.062 -0.0764  0.1052  0.0692
 3085POPC   GL237408  10.272  18.342   4.124  0.1995 -0.0849 -0.1036
 3085POPC   C1A37409  10.595  18.416   4.438  0.0745 -0.0681 -0.1792
 3085POPC   D2A37410  10.702  18.631   4.791  0.0833  0.1544 -0.0038
 3085POPC   C3A37411  10.711  19.095   4.935  0.2392  0.1600  0.0777
 3085POPC   C4A37412  11.006  19.354   5.132  0.1737 -0.0088 -0.2792
 3085POPC   C1B37413  10.020  18.194   4.531  0.0845  0.2873  0.1271
 3085POPC   C2B37414   9.847  18.169   5.002 -0.1191 -0.0730  0.1176
 3085POPC   C3B37415   9.501  18.257   5.300 -0.1067  0.1745 -0.2194
 3085POPC   C4B37416   9.302  18.482   5.676  0.1909 -0.0933 -0.0081
 3086POPC   NC337417   5.692   8.234   4.127 -0.0126 -0.1736 -0.0825
 3086POPC   PO437418   5.913   8.423   3.881  0.0829 -0.0376  0.0297
 3086POPC   GL137419   6.086   8.543   4.206  0.1184 -0.2806 -0.0834
 3086POPC   GL237420   5.925   8.489   4.464 -0.1105 -0.3371  0.1046
 3086POPC   C1A37421   6.503   8.516   4.434 -0.1179 -0.1337 -0.1499
 3086POPC   D2A37422   6.963   8.644   4.470  0.2864  0.1181  0.2952
 3086POPC   C3A37423   7.151   8.969   4.658 -0.0681 -0.0034 -0.2294
 3086POPC   C4A37424   7.460   9.264   4.833 -0.0309 -0.3066  0.2775
 3086POPC   C1B37425   5.967   8.557   4.894  0.1585  0.0578 -0.1526
 3086POPC   C2B37426   5.970   8.289   5.335  0.0376 -0.0260  0.2779
 3086POPC   C3B37427   6.123   8.346   5.753  0.2954  0.1974  0.2605
 3086POPC   C4B37428   5.980   8.345   6.181  0.0391 -0.2325  0.1955
 3087POPC   NC337429  14.211   6.716   4.095 -0.1617 -0.0142 -0.2283
 3087POPC   PO437430  14.244   6.302   4.052 -0.3753 -0.1050 -0.2369
 3087POPC   GL137431  14.223   6.323   4.468 -0.3990  0.1964 -0.1527
 3087POPC   GL237432  14.025   6.520   4.625 -0.2029 -0.0067  0.0351
 3087POPC   C1A37433  14.439   6.284   4.884 -0.0778 -0.2589  0.0497
 3087POPC   D2A37434  14.746   6.557   5.076 -0.2725  0.1282 -0.2169
 3087POPC   C3A37435  15.045   6.649   5.350  0.0390  0.0021 -0.0266
 3087POPC   C4A37436  15.177   6.480   5.776 -0.0796 -0.4490 -0.3606
 3087POPC   C1B37437  13.738   6.627   4.926 -0.3020  0.2036 -0.0761
 3087POPC   C2B37438  13.815   6.573   5.398  0.0394 -0.2454  0.2579
 3087POPC   C3B37439  13.884   6.342   5.768 -0.4590  0.1969  0.0553
 3087POPC   C4B37440  13.984   5.943   5.971  0.0349  0.1223 -0.0889
 3088POPC   NC337441   8.559  30.878   3.703 -0.2501 -0.0623 -0.2402
 3088POPC   PO437442   8.472  30.528   3.717 -0.1717  0.1405  0.1703
 3088POPC   GL137443   8.475  30.561   4.073 -0.0739  0.3823 -0.5152
 3088POPC   GL237444   8.522  30.829   4.196 -0.2144 -0.3141 -0.1236
 3088POPC   C1A37445   8.453  30.321   4.482  0.2331  0.0018  0.0668
 3088POPC   D2A37446   8.498  30.189   4.970  0.1367 -0.0489 -0.0410
 3088POPC   C3A37447   8.324  30.455   5.300 -0.1365 -0.1823  0.1281
 3088POPC   C4A37448   8.355  30.795   5.580 -0.0913  0.4610  0.1215
 3088POPC   C1B37449   8.364  31.138   4.479 -0.0672  0.0483  0.1288
 3088POPC   C2B37450   8.150  31.479   4.659 -0.1281  0.1417  0.1292
 3088POPC   C3B37451   7.944  31.432   5.056 -0.0293 -0.0580  0.1120
 3088POPC   C4B37452   7.922  31.696   5.460 -0.1452  0.0202 -0.0178
 3089POPC   NC337453  11.475   4.008   3.641  0.1521  0.0912  0.1435
 3089POPC   PO437454  11.327   4.344   3.598  0.5713  0.0066 -0.2120
 3089POPC   GL137455  11.167   4.278   3.983  0.2500  0.4008 -0.1744
 3089POPC   GL237456  11.431   4.163   4.116 -0.2416  0.1034  0.0109
 3089POPC   C1A37457  11.029   4.470   4.362 -0.1145  0.3249  0.0916
 3089POPC   D2A37458  10.956   4.351   4.827 -0.1191 -0.1942  0.2103
 3089POPC   C3A37459  10.617   4.314   5.118 -0.4377  0.2133  0.0526
 3089POPC   C4A37460  10.624   4.399   5.533  0.0298  0.1746 -0.0253
 3089POPC   C1B37461  11.517   4.425   4.489 -0.0137 -0.0477  0.0164
 3089POPC   C2B37462  11.791   4.394   4.845 -0.1367 -0.2048  0.2579
 3089POPC   C3B37463  12.233   4.349   4.941  0.1013 -0.3670 -0.2040
 3089POPC   C4B37464  12.484   4.011   5.063  0.0121  0.0705 -0.1232
 3090POPC   NC337465  10.794  15.711   3.737 -0.2234 -0.1872 -0.2750
 3090POPC   PO437466  10.473  15.891   3.752 -0.0789 -0.0813  0.3023
 3090POPC   GL137467  10.357  16.020   4.094 -0.1422 -0.1445 -0.1637
 3090POPC   GL237468  10.648  16.119   4.225  0.0366  0.3352 -0.0782
 3090POPC   C1A37469  10.201  15.865   4.488  0.2800 -0.0103  0.2647
 3090POPC   D2A37470   9.988  15.594   4.844 -0.2105 -0.3043  0.1270
 3090POPC   C3A37471  10.325  15.361   5.018  0.1743  0.1162 -0.1495
 3090POPC   C4A37472  10.693  15.410   5.345  0.0390  0.1392  0.2561
 3090POPC   C1B37473  10.551  16.172   4.675 -0.2353  0.3420 -0.1205
 3090POPC   C2B37474  10.319  16.073   5.053  0.1182  0.2672 -0.0457
 3090POPC   C3B37475  10.036  15.741   5.300 -0.1009 -0.2666 -0.0791
 3090POPC   C4B37476   9.772  15.596   5.582 -0.2973 -0.0655 -0.1337
 3091POPC   NC337477   7.425  18.704   3.345 -0.1145 -0.0479 -0.3164
 3091POPC   PO437478   7.457  18.907   3.708  0.2462  0.1095  0.0869
 3091POPC   GL137479   7.187  18.869   4.063  0.2289 -0.0185 -0.1271
 3091POPC   GL237480   7.480  18.827   4.225  0.2264  0.1082 -0.1031
 3091POPC   C1A37481   7.105  19.092   4.458 -0.1695 -0.1951 -0.0110
 3091POPC   D2A37482   6.760  19.323   4.734  0.1309  0.0020 -0.1399
 3091POPC   C3A37483   6.776  19.186   5.185  0.0549  0.3830 -0.0843
 3091POPC   C4A37484   6.815  19.226   5.674  0.3014  0.2077  0.3289
 3091POPC   C1B37485   7.381  18.736   4.654 -0.0318 -0.0078  0.1929
 3091POPC   C2B37486   7.417  18.721   5.103 -0.1544  0.1886  0.1307
 3091POPC   C3B37487   7.582  18.664   5.521  0.0076  0.1080 -0.1253
 3091POPC   C4B37488   7.619  18.647   5.994 -0.1490  0.1097  0.0763
 3092POPC   NC337489   3.940  28.411   3.782 -0.2196 -0.0688  0.1927
 3092POPC   PO437490   3.649  28.645   3.829 -0.0375  0.0359  0.0345
 3092POPC   GL137491   3.551  28.439   4.177  0.1000 -0.0001  0.3318
 3092POPC   GL237492   3.588  28.171   4.109 -0.0512 -0.1208  0.0401
 3092POPC   C1A37493   3.336  28.306   4.562 -0.2163 -0.1815  0.1163
 3092POPC   D2A37494   3.150  28.320   4.972  0.0584  0.0375  0.1080
 3092POPC   C3A37495   3.316  28.047   5.302  0.1579  0.1203 -0.0089
 3092POPC   C4A37496   3.543  27.727   5.622  0.1515  0.2565  0.0497
 3092POPC   C1B37497   3.778  28.161   4.561  0.3021  0.1514 -0.2841
 3092POPC   C2B37498   3.739  28.369   4.981  0.1733 -0.2479  0.1674
 3092POPC   C3B37499   3.670  28.583   5.392 -0.2225  0.3694  0.1684
 3092POPC   C4B37500   3.534  28.737   5.789 -0.1424  0.1395  0.0873
 3093POPC   NC337501  14.070  23.451   3.853  0.0100  0.2145  0.0907
 3093POPC   PO437502  13.834  23.719   3.792  0.0903  0.0808 -0.1279
 3093POPC   GL137503  13.828  23.760   4.256 -0.2656 -0.0756 -0.1090
 3093POPC   GL237504  13.517  23.798   4.231 -0.2939 -0.0880  0.2392
 3093POPC   C1A37505  13.720  23.854   4.697  0.1602 -0.1198 -0.0505
 3093POPC   D2A37506  13.449  23.830   5.111 -0.2271 -0.1105  0.1008
 3093POPC   C3A37507  13.221  24.159   5.403 -0.2771  0.1961  0.0462
 3093POPC   C4A37508  13.225  24.499   5.730 -0.2005  0.1336  0.0008
 3093POPC   C1B37509  13.338  24.145   4.453 -0.0353 -0.1535  0.1234
 3093POPC   C2B37510  13.264  24.467   4.777 -0.0017  0.0262 -0.0463
 3093POPC   C3B37511  13.090  24.768   5.125  0.1888  0.1162 -0.3426
 3093POPC   C4B37512  12.893  24.800   5.556  0.0091 -0.3713  0.2249
 3094POPC   NC337513  10.918   4.242   3.306 -0.0818 -0.0111 -0.1482
 3094POPC   PO437514  10.979   3.989   3.607 -0.0686  0.0090 -0.0803
 3094POPC   GL137515  10.809   3.973   3.947  0.2626 -0.1186  0.2877
 3094POPC   GL237516  10.699   4.235   4.025  0.0198  0.1437  0.0281
 3094POPC   C1A37517  10.633   3.733   4.290  0.0604 -0.0748 -0.1731
 3094POPC   D2A37518  10.437   3.386   4.539 -0.2834  0.1432  0.1877
 3094POPC   C3A37519  10.614   3.435   4.997 -0.1794 -0.4406 -0.1005
 3094POPC   C4A37520  10.719   3.365   5.457  0.0137  0.2467 -0.0295
 3094POPC   C1B37521  10.628   4.179   4.508  0.2240  0.1334 -0.0148
 3094POPC   C2B37522  10.433   3.911   4.852 -0.3054 -0.3411  0.1889
 3094POPC   C3B37523  10.585   3.860   5.262 -0.0538  0.0311 -0.2025
 3094POPC   C4B37524  10.769   3.811   5.740  0.2498 -0.0099 -0.0917
 3095POPC   NC337525   4.705  29.216   3.407 -0.2214 -0.1398 -0.0328
 3095POPC   PO437526   4.855  28.850   3.422  0.2297  0.2421 -0.2719
 3095POPC   GL137527   4.730  28.864   3.803  0.1826  0.1488  0.2290
 3095POPC   GL237528   4.662  29.105   3.892 -0.0725 -0.1932 -0.0348
 3095POPC   C1A37529   4.939  28.875   4.238  0.1956 -0.1623  0.0586
 3095POPC   D2A37530   4.985  28.992   4.697  0.1567  0.0662 -0.1351
 3095POPC   C3A37531   5.085  28.857   5.117  0.0615 -0.0206  0.3813
 3095POPC   C4A37532   4.966  28.548   5.448  0.0528  0.0272 -0.2776
 3095POPC   C1B37533   4.913  29.380   4.243 -0.2057 -0.0049 -0.0386
 3095POPC   C2B37534   4.708  29.728   4.432  0.0813 -0.3421 -0.0970
 3095POPC   C3B37535   4.852  30.115   4.668  0.3734  0.1121 -0.0752
 3095POPC   C4B37536   5.083  30.289   5.041 -0.2704 -0.0197  0.1716
 3096POPC   NC337537   1.351  12.963   3.706 -0.1146  0.0905 -0.0868
 3096POPC   PO437538   0.955  13.056   3.710  0.1517  0.1368  0.1894
 3096POPC   GL137539   0.865  13.091   4.085  0.0836 -0.0200 -0.1406
 3096POPC   GL237540   0.644  13.144   4.268 -0.0991 -0.0786 -0.1339
 3096POPC   C1A37541   1.050  13.299   4.452 -0.0984 -0.1656 -0.1019
 3096POPC   D2A37542   1.379  13.101   4.677  0.1785  0.1269 -0.1052
 3096POPC   C3A37543   1.639  13.131   5.050 -0.0215 -0.2387 -0.1806
 3096POPC   C4A37544   1.739  12.974   5.506 -0.0941  0.0568  0.1424
 3096POPC   C1B37545   0.564  13.122   4.778 -0.1278 -0.1982 -0.0460
 3096POPC   C2B37546   0.509  12.792   5.108  0.1902 -0.1692  0.1477
 3096POPC   C3B37547   0.148  12.628   5.374  0.0571 -0.2049 -0.0891
 3096POPC   C4B37548  -0.090  12.612   5.777 -0.0861 -0.0404 -0.0768
 3097POPC   NC337549   7.397  30.191   2.914 -0.2554  0.2459 -0.2172
 3097POPC   PO437550   7.086  30.417   2.909 -0.0157  0.0989  0.3665
 3097POPC   GL137551   6.996  30.661   3.305  0.1158 -0.0797 -0.2111
 3097POPC   GL237552   6.990  30.965   3.381 -0.0627  0.1377  0.0097
 3097POPC   C1A37553   6.546  30.654   3.490 -0.3995  0.1008  0.0550
 3097POPC   D2A37554   6.068  30.657   3.624  0.0369 -0.0167  0.0813
 3097POPC   C3A37555   5.943  30.738   4.041 -0.4778  0.0271  0.0201
 3097POPC   C4A37556   5.982  31.147   4.330  0.1480  0.1435  0.3648
 3097POPC   C1B37557   6.751  31.072   3.725  0.0606  0.0045 -0.0014
 3097POPC   C2B37558   6.363  31.082   3.938  0.2414 -0.2130  0.1192
 3097POPC   C3B37559   5.991  31.229   3.737  0.2396  0.2826 -0.0275
 3097POPC   C4B37560   5.833  31.520   3.452 -0.0904  0.1058 -0.0753
 3098POPC   NC337561   6.733  20.629   4.065  0.3978 -0.0902 -0.1102
 3098POPC   PO437562   7.088  20.425   4.015 -0.1336 -0.1028 -0.1789
 3098POPC   GL137563   7.208  20.543   4.292  0.0294 -0.7245  0.2068
 3098POPC   GL237564   7.184  20.419   4.542  0.5825  0.1000 -0.0866
 3098POPC   C1A37565   6.875  20.787   4.564  0.1265  0.1973  0.0245
 3098POPC   D2A37566   6.778  21.104   4.902  0.0482 -0.0866  0.1034
 3098POPC   C3A37567   7.026  21.106   5.284 -0.3292 -0.1284 -0.0808
 3098POPC   C4A37568   7.331  21.259   5.591  0.2773  0.3361  0.0628
 3098POPC   C1B37569   7.175  20.572   4.982  0.0632 -0.2490  0.1436
 3098POPC   C2B37570   7.452  20.376   5.257  0.3033 -0.1152 -0.1165
 3098POPC   C3B37571   7.847  20.188   5.085 -0.3790 -0.2293  0.0624
 3098POPC   C4B37572   8.118  19.850   5.079  0.0340  0.1228 -0.1903
 3099POPC   NC337573   7.066  29.479   3.025 -0.2207  0.0744 -0.0032
 3099POPC   PO437574   6.931  29.660   3.374 -0.5057  0.0584 -0.1133
 3099POPC   GL137575   7.041  29.793   3.668 -0.1797 -0.1326  0.3161
 3099POPC   GL237576   7.143  29.604   3.878  0.2796  0.1442  0.0561
 3099POPC   C1A37577   6.850  30.034   4.019 -0.0844  0.0253 -0.1109
 3099POPC   D2A37578   6.475  30.144   4.285  0.0973 -0.0708 -0.0335
 3099POPC   C3A37579   6.503  30.134   4.786  0.0756 -0.2074 -0.1193
 3099POPC   C4A37580   6.726  30.093   5.183  0.0900  0.1331 -0.0627
 3099POPC   C1B37581   7.391  29.573   4.216 -0.2334 -0.0623 -0.4989
 3099POPC   C2B37582   7.527  29.816   4.600 -0.0074 -0.0023  0.1326
 3099POPC   C3B37583   7.641  30.047   5.026 -0.1776  0.1383 -0.0964
 3099POPC   C4B37584   7.537  30.175   5.452  0.1356  0.0223  0.0707
 3100POPC   NC337585   0.263  27.413   3.691 -0.0495 -0.2752 -0.0534
 3100POPC   PO437586   0.352  27.091   3.903 -0.0037 -0.0566  0.2654
 3100POPC   GL137587   0.243  27.275   4.260  0.1524  0.0691 -0.1456
 3100POPC   GL237588   0.152  27.489   4.295 -0.2163  0.2319  0.1196
 3100POPC   C1A37589   0.492  27.212   4.723 -0.0460  0.0738 -0.2529
 3100POPC   D2A37590   0.467  27.507   5.134  0.1756 -0.1494 -0.0324
 3100POPC   C3A37591   0.589  27.344   5.531  0.2932  0.3712  0.0460
 3100POPC   C4A37592   0.653  26.945   5.714 -0.0323 -0.2330  0.0233
 3100POPC   C1B37593   0.054  27.502   4.727 -0.1694  0.1391  0.0256
 3100POPC   C2B37594  -0.212  27.572   5.108 -0.0076  0.0186  0.0482
 3100POPC   C3B37595  -0.494  27.523   5.444 -0.1663  0.1094  0.2580
 3100POPC   C4B37596  -0.922  27.588   5.702  0.0512  0.0191 -0.3536
 3101POPC   NC337597   6.751   9.764   3.845 -0.0888  0.1444  0.0082
 3101POPC   PO437598   6.651  10.093   3.659  0.2703  0.1888  0.2802
 3101POPC   GL137599   7.017  10.197   3.742  0.1961  0.6340  0.2055
 3101POPC   GL237600   7.192   9.991   3.986  0.1303 -0.1884 -0.0882
 3101POPC   C1A37601   7.132  10.533   4.027 -0.0081 -0.1202 -0.1106
 3101POPC   D2A37602   7.192  10.476   4.451 -0.0928 -0.3677 -0.1805
 3101POPC   C3A37603   6.911  10.461   4.860  0.2404 -0.1158  0.2613
 3101POPC   C4A37604   6.772  10.331   5.256  0.0985  0.3712  0.0441
 3101POPC   C1B37605   7.034   9.962   4.397 -0.0645 -0.1484 -0.1173
 3101POPC   C2B37606   6.895  10.003   4.870 -0.0733 -0.1035 -0.0150
 3101POPC   C3B37607   6.862   9.855   5.319 -0.0580  0.0337 -0.0991
 3101POPC   C4B37608   6.576   9.565   5.541 -0.0407 -0.0067  0.1385
 3102POPC   NC337609  12.109  10.857   3.889 -0.1626  0.0420  0.2629
 3102POPC   PO437610  12.332  10.997   3.618  0.1459  0.1997  0.2347
 3102POPC   GL137611  12.539  10.983   3.995  0.0411  0.3637 -0.3977
 3102POPC   GL237612  12.391  11.187   4.155  0.1136 -0.1259 -0.2179
 3102POPC   C1A37613  12.402  10.774   4.366  0.0571 -0.0690  0.2395
 3102POPC   D2A37614  12.445  10.664   4.836 -0.0801 -0.2202 -0.1616
 3102POPC   C3A37615  12.476  10.858   5.265  0.2850  0.2045  0.2018
 3102POPC   C4A37616  12.361  11.001   5.703 -0.0931  0.1957  0.1925
 3102POPC   C1B37617  12.410  11.660   4.315 -0.0527  0.2182 -0.2924
 3102POPC   C2B37618  12.251  11.859   4.718  0.1387 -0.0416 -0.0979
 3102POPC   C3B37619  12.187  12.144   5.120 -0.1824  0.0988 -0.2566
 3102POPC   C4B37620  12.232  12.453   5.503 -0.0323  0.1233 -0.0137
 3103POPC   NC337621   1.819   0.481   3.956 -0.0394  0.0134 -0.2781
 3103POPC   PO437622   1.658   0.123   3.829 -0.2428  0.1247  0.2476
 3103POPC   GL137623   1.497   0.204   4.242 -0.0649 -0.1249 -0.1583
 3103POPC   GL237624   1.677   0.229   4.504  0.0165 -0.0969  0.0118
 3103POPC   C1A37625   1.308   0.507   4.616 -0.0973  0.1592  0.0725
 3103POPC   D2A37626   1.089   0.607   5.010 -0.0685 -0.3070  0.1215
 3103POPC   C3A37627   1.004   1.035   5.210 -0.0298 -0.1351 -0.0160
 3103POPC   C4A37628   0.777   1.427   5.407  0.1433  0.1622 -0.2010
 3103POPC   C1B37629   1.830   0.200   4.973 -0.0465 -0.1061 -0.2358
 3103POPC   C2B37630   1.809   0.203   5.464 -0.2332  0.0115 -0.0535
 3103POPC   C3B37631   1.900   0.320   5.923 -0.0785 -0.0346  0.1549
 3103POPC   C4B37632   1.927   0.756   6.145  0.0741 -0.1989 -0.0428
 3104POPC   NC337633   3.418  29.117   3.666 -0.0038 -0.2372  0.2438
 3104POPC   PO437634   3.080  29.268   3.786 -0.1032  0.2757  0.1507
 3104POPC   GL137635   2.956  29.276   4.197  0.1002 -0.3970  0.0242
 3104POPC   GL237636   3.108  29.248   4.466 -0.2678 -0.3289  0.2603
 3104POPC   C1A37637   2.624  29.559   4.449 -0.0640 -0.3885  0.0154
 3104POPC   D2A37638   2.318  29.538   4.862 -0.2679  0.1622  0.0859
 3104POPC   C3A37639   2.237  29.814   5.199  0.2600  0.2104 -0.1092
 3104POPC   C4A37640   2.179  29.753   5.666  0.3211  0.0331 -0.3498
 3104POPC   C1B37641   2.994  29.496   4.881 -0.1047  0.1427  0.0296
 3104POPC   C2B37642   2.997  29.343   5.359 -0.1720 -0.0975 -0.1151
 3104POPC   C3B37643   3.111  29.113   5.784  0.1664  0.0386  0.2676
 3104POPC   C4B37644   3.118  29.105   6.256  0.2547  0.0397 -0.0470
 3105POPC   NC337645  15.388  17.383   3.935 -0.2671 -0.1703 -0.0718
 3105POPC   PO437646  15.331  16.997   3.812 -0.1218  0.0162  0.0398
 3105POPC   GL137647  15.530  16.994   4.126 -0.1041  0.0162 -0.1394
 3105POPC   GL237648  15.743  16.801   3.989  0.0903 -0.1488  0.0368
 3105POPC   C1A37649  15.331  17.327   4.453 -0.1390  0.1743 -0.0508
 3105POPC   D2A37650  15.317  17.719   4.712 -0.2689  0.1265  0.1188
 3105POPC   C3A37651  15.243  17.576   5.103 -0.2424 -0.3188  0.0355
 3105POPC   C4A37652  15.071  17.261   5.371 -0.1799 -0.0643  0.1106
 3105POPC   C1B37653  15.892  16.875   4.448  0.0662  0.1972  0.0114
 3105POPC   C2B37654  15.901  16.905   4.920 -0.5148  0.1113 -0.1246
 3105POPC   C3B37655  15.755  16.807   5.343  0.6175  0.1038 -0.2606
 3105POPC   C4B37656  15.620  16.868   5.779 -0.2499  0.1361 -0.0059
 3106POPC   NC337657   6.171  21.215   4.036 -0.1070  0.0141 -0.1764
 3106POPC   PO437658   6.410  20.946   3.821 -0.0847 -0.3251 -0.2156
 3106POPC   GL137659   6.223  20.755   4.162 -0.0722 -0.2580  0.2883
 3106POPC   GL237660   6.131  20.454   4.271 -0.1478 -0.0328 -0.1394
 3106POPC   C1A37661   6.361  20.814   4.579 -0.0217  0.2979  0.0313
 3106POPC   D2A37662   6.266  20.675   5.014  0.0566 -0.2184  0.1388
 3106POPC   C3A37663   6.645  20.840   5.276 -0.2110  0.3040  0.1565
 3106POPC   C4A37664   7.036  20.640   5.512  0.1250  0.0693 -0.1047
 3106POPC   C1B37665   6.233  20.284   4.685  0.1315  0.0376  0.2899
 3106POPC   C2B37666   6.298  20.143   5.096  0.0828 -0.3185  0.0741
 3106POPC   C3B37667   6.504  19.936   5.440 -0.2453  0.1678  0.0269
 3106POPC   C4B37668   6.601  20.094   5.896  0.1226  0.1220  0.0169
 3107POPC   NC337669   5.177  15.172   3.683 -0.0423 -0.6135  0.0812
 3107POPC   PO437670   4.881  14.993   3.855  0.0778  0.1166 -0.0012
 3107POPC   GL137671   4.767  15.076   4.191 -0.0141  0.2293 -0.1084
 3107POPC   GL237672   4.565  14.867   4.298 -0.0037 -0.2945  0.0847
 3107POPC   C1A37673   4.820  15.197   4.676 -0.1247 -0.3675 -0.0478
 3107POPC   D2A37674   5.002  14.991   5.014  0.0206  0.0283 -0.1326
 3107POPC   C3A37675   4.992  15.396   5.252 -0.2520 -0.3110 -0.2077
 3107POPC   C4A37676   5.082  15.730   5.461 -0.0550  0.0037  0.2768
 3107POPC   C1B37677   4.600  14.762   4.717 -0.0798  0.0657  0.1120
 3107POPC   C2B37678   4.427  14.708   5.090 -0.0042 -0.0764  0.0207
 3107POPC   C3B37679   4.410  14.563   5.540  0.0006  0.0001 -0.0153
 3107POPC   C4B37680   4.459  14.502   5.951  0.1295 -0.2588  0.0073
 3108POPC   NC337681  14.945   4.065   3.754 -0.2214 -0.0627  0.0097
 3108POPC   PO437682  15.044   4.141   4.137  0.0988  0.0631 -0.0818
 3108POPC   GL137683  15.101   3.892   4.411  0.0122  0.0206  0.1912
 3108POPC   GL237684  15.354   4.028   4.530  0.0391  0.2580  0.0741
 3108POPC   C1A37685  15.152   3.462   4.597  0.2205  0.1222 -0.1772
 3108POPC   D2A37686  15.101   3.055   4.487 -0.0847  0.1850 -0.1527
 3108POPC   C3A37687  14.938   3.100   4.949  0.2892  0.2800 -0.3357
 3108POPC   C4A37688  15.144   3.061   5.344  0.1880 -0.0893 -0.0515
 3108POPC   C1B37689  15.189   3.975   4.999 -0.0110 -0.1550  0.1485
 3108POPC   C2B37690  15.204   4.098   5.430  0.1792 -0.2272 -0.0736
 3108POPC   C3B37691  15.189   4.140   5.925  0.0010 -0.0898  0.0477
 3108POPC   C4B37692  15.278   3.938   6.355 -0.3452  0.1561  0.1899
 3109POPC   NC337693   6.962   7.126   2.966 -0.0923 -0.1295  0.0394
 3109POPC   PO437694   6.851   6.841   3.226 -0.2621 -0.2928  0.3859
 3109POPC   GL137695   6.787   6.759   3.733 -0.0392 -0.1894  0.2775
 3109POPC   GL237696   6.777   6.558   3.905 -0.1366 -0.0766 -0.1923
 3109POPC   C1A37697   7.034   7.066   3.960 -0.1228  0.0107  0.0064
 3109POPC   D2A37698   7.272   7.113   4.367  0.0402  0.1956 -0.0061
 3109POPC   C3A37699   7.460   6.681   4.441 -0.5055  0.1442 -0.2558
 3109POPC   C4A37700   7.120   6.331   4.477  0.0849  0.1605  0.0103
 3109POPC   C1B37701   6.939   6.755   4.364 -0.0104  0.4191  0.0780
 3109POPC   C2B37702   7.127   6.828   4.755 -0.0329 -0.0694  0.1394
 3109POPC   C3B37703   7.138   6.786   5.223  0.0420 -0.0524 -0.0385
 3109POPC   C4B37704   7.017   6.443   5.554 -0.1109 -0.0183 -0.1555
 3110POPC   NC337705  14.030  24.080   3.462 -0.1242 -0.3828  0.0979
 3110POPC   PO437706  14.167  24.274   3.787 -0.1435  0.0479  0.1196
 3110POPC   GL137707  14.089  24.103   4.187 -0.2801 -0.1941  0.1292
 3110POPC   GL237708  14.267  23.870   4.081 -0.2276 -0.1964 -0.0035
 3110POPC   C1A37709  14.155  24.115   4.627 -0.1827  0.0295 -0.2144
 3110POPC   D2A37710  14.197  23.993   5.106 -0.0282  0.3610  0.4331
 3110POPC   C3A37711  13.878  24.049   5.429 -0.0220 -0.2764  0.2413
 3110POPC   C4A37712  13.565  24.048   5.764 -0.2315 -0.1385 -0.0332
 3110POPC   C1B37713  14.563  23.896   4.454 -0.2347  0.0679  0.2035
 3110POPC   C2B37714  14.637  23.649   4.871  0.1444  0.0101 -0.0338
 3110POPC   C3B37715  14.615  23.765   5.295  0.0998  0.0326 -0.2340
 3110POPC   C4B37716  14.718  23.733   5.752 -0.3109 -0.0074 -0.0348
 3111POPC   NC337717   5.967  17.407   2.965  0.0755 -0.1611  0.0598
 3111POPC   PO437718   5.583  17.349   3.093 -0.0716  0.0182 -0.0202
 3111POPC   GL137719   5.496  17.478   3.485 -0.2766 -0.2544  0.0299
 3111POPC   GL237720   5.663  17.430   3.686 -0.2268  0.2668 -0.0610
 3111POPC   C1A37721   5.150  17.498   3.826  0.0519 -0.1359 -0.0279
 3111POPC   D2A37722   5.160  17.389   4.230  0.2366 -0.1723  0.0805
 3111POPC   C3A37723   5.032  17.495   4.710  0.0889  0.0875 -0.1230
 3111POPC   C4A37724   5.225  17.862   4.963  0.1696 -0.1025  0.1967
 3111POPC   C1B37725   5.644  17.337   4.122  0.0341 -0.0817  0.0252
 3111POPC   C2B37726   5.597  17.481   4.606 -0.1371  0.0107  0.0619
 3111POPC   C3B37727   5.564  17.479   5.083 -0.0046 -0.1139  0.1400
 3111POPC   C4B37728   5.795  17.416   5.405 -0.0087 -0.1680  0.1057
 3112POPC   NC337729   2.617  21.761   3.371 -0.2886 -0.1779 -0.0357
 3112POPC   PO437730   2.918  21.948   3.528 -0.3772  0.0775 -0.0430
 3112POPC   GL137731   2.757  22.124   3.783 -0.0561  0.0793 -0.0123
 3112POPC   GL237732   2.448  22.091   3.696  0.0638  0.0272 -0.2106
 3112POPC   C1A37733   2.606  22.266   4.242 -0.0223  0.3238  0.1291
 3112POPC   D2A37734   2.396  22.195   4.651 -0.0667  0.0014 -0.0599
 3112POPC   C3A37735   2.490  22.359   5.072  0.1673  0.3607 -0.1100
 3112POPC   C4A37736   2.737  22.341   5.429  0.1568 -0.1562 -0.0916
 3112POPC   C1B37737   2.354  22.543   3.683 -0.4685  0.1659 -0.2768
 3112POPC   C2B37738   2.235  22.848   4.015  0.0433  0.1708 -0.2023
 3112POPC   C3B37739   2.273  23.021   4.496  0.0280 -0.0652  0.0128
 3112POPC   C4B37740   2.598  23.195   4.783 -0.1293 -0.1419 -0.0226
 3113POPC   NC337741   0.103  18.246   3.598 -0.1233  0.1218  0.0225
 3113POPC   PO437742  -0.026  18.260   3.989  0.2123  0.1556  0.0947
 3113POPC   GL137743  -0.351  18.151   4.131  0.3378 -0.2806  0.0117
 3113POPC   GL237744  -0.358  17.923   4.249 -0.0043 -0.0344  0.0166
 3113POPC   C1A37745  -0.473  18.249   4.580 -0.2457  0.2188 -0.0669
 3113POPC   D2A37746  -0.351  18.162   5.030 -0.0472 -0.1961  0.0406
 3113POPC   C3A37747  -0.709  18.088   5.345 -0.1373 -0.4218 -0.1161
 3113POPC   C4A37748  -0.790  18.066   5.799 -0.3681 -0.0589  0.0694
 3113POPC   C1B37749  -0.112  17.960   4.602 -0.1035  0.1444 -0.1941
 3113POPC   C2B37750   0.124  18.094   4.981  0.0557  0.2255 -0.0990
 3113POPC   C3B37751   0.149  18.063   5.408  0.2865 -0.2796 -0.2578
 3113POPC   C4B37752   0.105  17.917   5.867  0.2292 -0.3156  0.0629
 3114POPC   NC337753   4.353  28.249   3.080 -0.0829  0.1310  0.0108
 3114POPC   PO437754   4.429  28.292   3.465  0.2473 -0.0268  0.3165
 3114POPC   GL137755   4.425  28.269   3.917  0.1885 -0.0317  0.2677
 3114POPC   GL237756   4.476  28.560   4.057  0.0477  0.0838  0.2717
 3114POPC   C1A37757   4.711  28.106   4.197  0.0495  0.0109  0.0463
 3114POPC   D2A37758   4.643  28.073   4.661 -0.1201  0.2731 -0.2279
 3114POPC   C3A37759   4.723  27.724   4.985  0.0206 -0.0279  0.3326
 3114POPC   C4A37760   4.790  27.313   5.191  0.0844  0.0197  0.2691
 3114POPC   C1B37761   4.615  28.561   4.478 -0.0476 -0.0202  0.0341
 3114POPC   C2B37762   4.653  28.622   4.911 -0.1242 -0.0048 -0.0085
 3114POPC   C3B37763   4.500  28.989   5.240  0.0861  0.4176 -0.1881
 3114POPC   C4B37764   4.425  29.472   5.376 -0.0042 -0.0402 -0.0066
 3115POPC   NC337765  14.432  26.545   3.238 -0.0908  0.1079 -0.0686
 3115POPC   PO437766  14.404  26.771   3.581 -0.0617  0.0277  0.1012
 3115POPC   GL137767  14.696  26.854   3.869  0.1589 -0.0423  0.6152
 3115POPC   GL237768  14.520  26.657   4.069  0.1470 -0.0887 -0.4132
 3115POPC   C1A37769  14.633  27.146   4.228  0.0070  0.1306 -0.0739
 3115POPC   D2A37770  14.645  27.392   4.657  0.2343 -0.1942  0.1504
 3115POPC   C3A37771  14.547  27.804   4.797  0.0026 -0.2902 -0.2212
 3115POPC   C4A37772  14.304  28.047   5.088 -0.0089 -0.2571 -0.2971
 3115POPC   C1B37773  14.489  26.625   4.559  0.0351  0.2604  0.0005
 3115POPC   C2B37774  14.526  26.582   4.984 -0.1180 -0.1790 -0.2728
 3115POPC   C3B37775  14.292  26.594   5.426 -0.1731  0.2584  0.1270
 3115POPC   C4B37776  13.980  26.317   5.564  0.1905  0.2585 -0.0861
 3116POPC   NC337777   5.335  17.881   3.357 -0.3547  0.1474 -0.0843
 3116POPC   PO437778   5.103  18.121   3.154 -0.0493 -0.2694  0.0558
 3116POPC   GL137779   4.820  18.098   3.406 -0.1502  0.1383  0.2802
 3116POPC   GL237780   4.749  17.854   3.349  0.0427  0.3199  0.0671
 3116POPC   C1A37781   4.706  18.172   3.860  0.3427 -0.0558  0.0730
 3116POPC   D2A37782   4.897  18.392   4.198 -0.1737  0.4542  0.0905
 3116POPC   C3A37783   4.902  18.365   4.611  0.1332 -0.1118 -0.0523
 3116POPC   C4A37784   4.700  18.296   5.000  0.2086  0.0741 -0.0772
 3116POPC   C1B37785   4.620  17.702   3.798  0.2190  0.0320  0.2929
 3116POPC   C2B37786   4.565  17.445   4.202  0.2411 -0.0527 -0.0007
 3116POPC   C3B37787   4.394  17.446   4.573  0.1278  0.2184  0.1032
 3116POPC   C4B37788   4.256  17.376   5.029  0.0185 -0.1515 -0.1882
 3117POPC   NC337789   7.261   1.614   2.671  0.0433  0.0386 -0.0850
 3117POPC   PO437790   7.313   1.285   2.907  0.0580 -0.1383  0.1921
 3117POPC   GL137791   7.363   1.055   3.299  0.1304 -0.0540  0.1853
 3117POPC   GL237792   7.122   1.087   3.530  0.2340 -0.2567 -0.1389
 3117POPC   C1A37793   7.627   0.919   3.666  0.1804  0.0219 -0.4517
 3117POPC   D2A37794   7.824   0.816   4.045 -0.0327  0.0367 -0.1716
 3117POPC   C3A37795   7.609   1.037   4.403  0.1032 -0.0932 -0.2106
 3117POPC   C4A37796   7.426   1.419   4.642 -0.1219 -0.0509 -0.2489
 3117POPC   C1B37797   6.744   1.060   3.782  0.1201 -0.0015  0.2356
 3117POPC   C2B37798   6.711   0.888   4.203  0.0374  0.0411  0.1742
 3117POPC   C3B37799   6.653   0.532   4.390 -0.1428 -0.1775 -0.1182
 3117POPC   C4B37800   6.383   0.250   4.150  0.0535  0.3920 -0.0604
 3118POPC   NC337801   1.619  30.560   4.185  0.1917  0.2913 -0.1676
 3118POPC   PO437802   1.765  30.879   3.998 -0.4404  0.0920 -0.2705
 3118POPC   GL137803   1.714  31.058   4.305  0.1089 -0.0333  0.0428
 3118POPC   GL237804   1.550  30.962   4.518 -0.1189 -0.1764  0.1856
 3118POPC   C1A37805   2.054  31.084   4.689  0.1129 -0.2118  0.3142
 3118POPC   D2A37806   2.360  30.832   4.937 -0.0996  0.0341  0.1520
 3118POPC   C3A37807   2.287  30.696   5.381  0.0371  0.1565  0.0509
 3118POPC   C4A37808   2.194  30.891   5.819 -0.2430 -0.1096  0.0824
 3118POPC   C1B37809   1.363  30.638   4.804  0.2793 -0.0258 -0.1555
 3118POPC   C2B37810   1.096  30.710   5.193  0.0117 -0.3750 -0.0787
 3118POPC   C3B37811   1.149  30.913   5.583 -0.1981 -0.0863 -0.3415
 3118POPC   C4B37812   1.281  31.327   5.681 -0.1170 -0.3647 -0.0920
 3119POPC   NC337813   2.935  30.542   3.737  0.1200 -0.1065 -0.1024
 3119POPC   PO437814   2.564  30.448   3.765  0.1249 -0.3144 -0.0203
 3119POPC   GL137815   2.523  30.547   4.156 -0.0559  0.0038 -0.1573
 3119POPC   GL237816   2.820  30.494   4.250 -0.1330 -0.0161 -0.0834
 3119POPC   C1A37817   2.334  30.424   4.610  0.1876 -0.1911 -0.3482
 3119POPC   D2A37818   2.496  30.305   5.012  0.2053 -0.2382  0.4014
 3119POPC   C3A37819   2.543  30.234   5.484 -0.2688  0.1833  0.0383
 3119POPC   C4A37820   2.524  29.987   5.899 -0.1704 -0.0880  0.0723
 3119POPC   C1B37821   2.825  30.595   4.711  0.1040 -0.0257  0.1268
 3119POPC   C2B37822   2.936  30.486   5.179  0.0834  0.0481 -0.1245
 3119POPC   C3B37823   3.011  30.502   5.649 -0.3704  0.3516  0.0287
 3119POPC   C4B37824   3.360  30.441   5.956 -0.2290  0.3670 -0.0376
 3120POPC   NC337825   4.187   3.654   4.186  0.2309 -0.0063 -0.1481
 3120POPC   PO437826   3.831   3.530   3.996  0.1972 -0.0972 -0.0851
 3120POPC   GL137827   3.773   3.608   4.378  0.1178 -0.0624  0.0494
 3120POPC   GL237828   3.584   3.840   4.396 -0.0909 -0.3947  0.1472
 3120POPC   C1A37829   3.816   3.636   4.817  0.0850  0.0027 -0.1664
 3120POPC   D2A37830   3.870   3.378   5.248 -0.0424  0.0405  0.2150
 3120POPC   C3A37831   3.657   3.409   5.677 -0.1408 -0.2077  0.3169
 3120POPC   C4A37832   3.583   3.413   6.119 -0.0499 -0.1325 -0.1945
 3120POPC   C1B37833   3.230   3.776   4.740  0.0891 -0.0706 -0.1521
 3120POPC   C2B37834   3.156   3.860   5.238 -0.4594 -0.1174  0.0273
 3120POPC   C3B37835   2.943   3.862   5.629 -0.1817 -0.2806  0.4982
 3120POPC   C4B37836   3.088   4.045   6.015  0.1188 -0.0939  0.0364
 3121POPC   NC337837   5.678  16.181   3.236  0.0072  0.1193  0.0865
 3121POPC   PO437838   5.775  15.836   3.396 -0.0203 -0.2810  0.0919
 3121POPC   GL137839   5.677  15.765   3.809  0.1451  0.3031  0.0049
 3121POPC   GL237840   5.450  15.627   3.910 -0.2893 -0.2334  0.0842
 3121POPC   C1A37841   5.870  15.919   4.191 -0.1490 -0.2423  0.1079
 3121POPC   D2A37842   6.205  15.695   4.403 -0.3563 -0.1445 -0.1377
 3121POPC   C3A37843   6.221  15.921   4.756  0.1819  0.3331 -0.1517
 3121POPC   C4A37844   5.996  15.883   5.143  0.4127  0.0806 -0.0879
 3121POPC   C1B37845   5.346  15.956   4.233 -0.2439 -0.2922 -0.0899
 3121POPC   C2B37846   5.344  16.197   4.650  0.2186  0.0446  0.3044
 3121POPC   C3B37847   5.440  16.623   4.833 -0.2285  0.1944  0.0400
 3121POPC   C4B37848   5.277  17.035   5.051  0.1928 -0.3857 -0.0019
 3122POPC   NC337849   8.026  28.193   3.852  0.0039  0.1039  0.2233
 3122POPC   PO437850   8.262  28.521   3.957 -0.2487 -0.1489 -0.0479
 3122POPC   GL137851   8.191  28.553   4.403  0.1225  0.4030 -0.0790
 3122POPC   GL237852   8.146  28.249   4.499  0.1701  0.0370  0.0031
 3122POPC   C1A37853   8.118  28.542   4.897 -0.4029 -0.1115 -0.2917
 3122POPC   D2A37854   8.393  28.389   5.239 -0.0071  0.1323  0.1208
 3122POPC   C3A37855   8.336  28.470   5.667 -0.1961  0.3798  0.0453
 3122POPC   C4A37856   8.351  28.637   6.083  0.0664 -0.2284 -0.0913
 3122POPC   C1B37857   8.509  28.332   4.729  0.0399 -0.2154 -0.0186
 3122POPC   C2B37858   8.831  28.572   4.937  0.2055  0.0650 -0.0551
 3122POPC   C3B37859   8.881  28.512   5.366  0.0341  0.2025 -0.3480
 3122POPC   C4B37860   8.777  28.255   5.755 -0.0583 -0.1857 -0.0354
 3123POPC   NC337861  10.294   1.739   3.569 -0.0879  0.2249 -0.1441
 3123POPC   PO437862  10.334   1.927   3.901  0.3443  0.0335 -0.3777
 3123POPC   GL137863  10.576   2.034   4.181 -0.0469 -0.0676 -0.1038
 3123POPC   GL237864  10.523   2.210   4.354  0.3938  0.5594 -0.1520
 3123POPC   C1A37865  10.562   1.737   4.541  0.0105 -0.0584  0.2566
 3123POPC   D2A37866  10.472   1.329   4.677  0.1647  0.0015 -0.3973
 3123POPC   C3A37867  10.321   1.422   5.114 -0.0087  0.1685  0.0946
 3123POPC   C4A37868  10.057   1.632   5.430 -0.0750 -0.0648  0.0136
 3123POPC   C1B37869  10.240   2.263   4.707 -0.0833 -0.2664  0.2575
 3123POPC   C2B37870   9.882   2.136   5.031 -0.1258 -0.2531  0.3314
 3123POPC   C3B37871   9.648   2.032   5.419  0.3845 -0.2105  0.0287
 3123POPC   C4B37872   9.359   2.167   5.774  0.0251 -0.0379 -0.1175
 3124POPC   NC337873   0.804  21.953   3.625 -0.1549 -0.1170  0.1779
 3124POPC   PO437874   1.157  21.990   3.478  0.0237  0.0194  0.1713
 3124POPC   GL137875   1.212  22.048   3.774 -0.2559 -0.0441 -0.2053
 3124POPC   GL237876   1.112  21.844   4.028 -0.2391  0.0347  0.2623
 3124POPC   C1A37877   1.040  22.308   4.155  0.0441 -0.2431 -0.1643
 3124POPC   D2A37878   0.847  22.471   4.564  0.1322  0.1881  0.3323
 3124POPC   C3A37879   0.721  22.512   5.045  0.4757 -0.1287 -0.0477
 3124POPC   C4A37880   0.813  22.608   5.477 -0.2861  0.1412 -0.1061
 3124POPC   C1B37881   1.054  21.596   4.409 -0.0014  0.0743  0.3552
 3124POPC   C2B37882   1.131  21.618   4.850 -0.0081  0.2243 -0.0404
 3124POPC   C3B37883   1.412  21.830   5.126 -0.0007  0.1487  0.3548
 3124POPC   C4B37884   1.757  22.140   5.255  0.1247 -0.0085 -0.1896
 3125POPC   NC337885   9.868  24.882   3.496 -0.2324  0.1863 -0.0131
 3125POPC   PO437886   9.553  24.848   3.691 -0.1030 -0.0598 -0.0961
 3125POPC   GL137887   9.667  24.949   4.040 -0.0954 -0.1801 -0.2279
 3125POPC   GL237888   9.890  24.983   4.113 -0.2711 -0.0834 -0.2223
 3125POPC   C1A37889   9.809  24.544   4.255  0.1377  0.1674 -0.1952
 3125POPC   D2A37890   9.771  24.554   4.700  0.0739 -0.1139  0.4097
 3125POPC   C3A37891   9.742  24.406   5.102 -0.0774  0.3788  0.0184
 3125POPC   C4A37892   9.690  24.348   5.561  0.2042  0.4483  0.0238
 3125POPC   C1B37893  10.137  24.840   4.479  0.1220 -0.3037  0.1409
 3125POPC   C2B37894  10.139  24.776   4.959 -0.0528  0.0903  0.0216
 3125POPC   C3B37895  10.183  24.677   5.381 -0.3164  0.0997  0.0581
 3125POPC   C4B37896  10.406  24.544   5.791  0.4688  0.1749 -0.2181
 3126POPC   NC337897   4.287   8.164   3.987 -0.3716  0.0417 -0.1208
 3126POPC   PO437898   4.265   8.500   3.843 -0.0709  0.0044 -0.0225
 3126POPC   GL137899   4.258   8.691   4.175 -0.0628 -0.0947  0.1124
 3126POPC   GL237900   4.620   8.741   4.115 -0.1616  0.2000 -0.0913
 3126POPC   C1A37901   4.348   8.795   4.604  0.0067  0.0085  0.1279
 3126POPC   D2A37902   4.295   8.724   5.081  0.1605  0.2152 -0.0911
 3126POPC   C3A37903   4.026   8.755   5.465  0.0851  0.1230 -0.0589
 3126POPC   C4A37904   3.947   8.596   5.870 -0.0300  0.0651  0.0691
 3126POPC   C1B37905   4.640   8.415   4.423  0.0057  0.0649  0.0102
 3126POPC   C2B37906   4.596   8.390   4.820 -0.0531 -0.3981 -0.1951
 3126POPC   C3B37907   4.744   8.335   5.283 -0.0234 -0.2445  0.0059
 3126POPC   C4B37908   5.028   8.097   5.583 -0.2859 -0.3696  0.1330
 3127POPC   NC337909  12.301  30.157   3.531  0.0174 -0.0915  0.1349
 3127POPC   PO437910  12.463  30.502   3.506  0.3343  0.0531 -0.0160
 3127POPC   GL137911  12.595  30.368   3.855 -0.2351  0.0375  0.0899
 3127POPC   GL237912  12.860  30.537   3.948 -0.0153 -0.1540 -0.0281
 3127POPC   C1A37913  12.485  30.035   4.151  0.1196  0.0195  0.1233
 3127POPC   D2A37914  12.474  29.929   4.569  0.0274  0.3531  0.0259
 3127POPC   C3A37915  12.647  29.628   4.894 -0.1553 -0.1529 -0.0846
 3127POPC   C4A37916  12.901  29.247   4.932 -0.3534 -0.0699 -0.1798
 3127POPC   C1B37917  12.883  30.391   4.404 -0.1692 -0.0241 -0.0845
 3127POPC   C2B37918  12.902  30.146   4.779 -0.2502 -0.0208 -0.1280
 3127POPC   C3B37919  13.209  30.197   5.155  0.0073 -0.1019 -0.1459
 3127POPC   C4B37920  13.472  29.951   5.423  0.0875 -0.0754 -0.0184
 3128POPC   NC337921  11.935   4.948   3.641 -0.2188 -0.1605  0.0153
 3128POPC   PO437922  12.339   4.978   3.591  0.1747 -0.2189 -0.0137
 3128POPC   GL137923  12.330   4.926   3.994  0.4002 -0.0879  0.1000
 3128POPC   GL237924  12.405   4.647   4.035  0.0466  0.0520 -0.1450
 3128POPC   C1A37925  12.290   5.157   4.367 -0.2593  0.2439  0.2233
 3128POPC   D2A37926  12.124   5.297   4.740  0.2496 -0.0607 -0.0511
 3128POPC   C3A37927  11.680   5.335   4.745  0.0836 -0.1396  0.2326
 3128POPC   C4A37928  11.221   5.479   4.641 -0.2080  0.0230  0.0510
 3128POPC   C1B37929  12.286   4.628   4.478 -0.1394  0.1412  0.0178
 3128POPC   C2B37930  12.310   4.867   4.851  0.2350 -0.0632  0.3246
 3128POPC   C3B37931  12.221   5.035   5.262 -0.1393  0.0997  0.4631
 3128POPC   C4B37932  11.982   5.116   5.619  0.0971  0.3281  0.2301
 3129POPC   NC337933   2.136  12.731   3.371  0.0234 -0.0608  0.1737
 3129POPC   PO437934   2.367  13.071   3.393  0.0941  0.1062  0.2962
 3129POPC   GL137935   2.601  13.155   3.720 -0.0444  0.0625 -0.0665
 3129POPC   GL237936   2.485  13.341   3.899  0.0335  0.1317  0.0253
 3129POPC   C1A37937   3.051  13.112   3.897 -0.5227 -0.0253 -0.0731
 3129POPC   D2A37938   3.421  13.357   3.962 -0.2744 -0.1048  0.0606
 3129POPC   C3A37939   3.636  13.764   4.025  0.0517  0.1202  0.1534
 3129POPC   C4A37940   3.835  14.091   4.280 -0.0969  0.0394 -0.1482
 3129POPC   C1B37941   2.601  13.524   4.300 -0.0553  0.1183 -0.3684
 3129POPC   C2B37942   2.414  13.700   4.646  0.0991  0.1171 -0.0503
 3129POPC   C3B37943   2.319  13.947   5.004  0.1634  0.0600  0.1634
 3129POPC   C4B37944   2.130  13.858   5.390 -0.2429 -0.2764 -0.1882
 3130POPC   NC337945   7.041  15.784   3.905 -0.0136 -0.0581  0.1024
 3130POPC   PO437946   7.018  16.088   3.628 -0.1218  0.2349 -0.2179
 3130POPC   GL137947   7.168  16.310   3.877 -0.2502 -0.1013 -0.1838
 3130POPC   GL237948   7.154  16.260   4.157  0.3210 -0.4165  0.1704
 3130POPC   C1A37949   7.165  16.758   4.028  0.1939 -0.0204  0.1630
 3130POPC   D2A37950   6.859  17.064   4.159  0.1910 -0.3324 -0.1033
 3130POPC   C3A37951   6.768  17.263   4.566 -0.1833 -0.1665  0.0226
 3130POPC   C4A37952   6.669  17.406   5.050  0.1027  0.1567 -0.1256
 3130POPC   C1B37953   6.969  16.497   4.550  0.1418  0.3860  0.3174
 3130POPC   C2B37954   6.774  16.748   4.912 -0.0749 -0.1404 -0.1230
 3130POPC   C3B37955   6.458  16.974   5.116  0.1090  0.1090  0.2995
 3130POPC   C4B37956   6.303  17.340   5.321 -0.2234 -0.1204 -0.3379
 3131POPC   NC337957   2.219  25.730   3.393 -0.0141 -0.0944  0.1246
 3131POPC   PO437958   2.398  26.030   3.276 -0.3731 -0.1020  0.0265
 3131POPC   GL137959   2.477  26.094   3.669  0.1304 -0.1551  0.1090
 3131POPC   GL237960   2.479  25.887   3.875 -0.1286 -0.0335 -0.2867
 3131POPC   C1A37961   2.681  26.380   3.995  0.0497  0.0940  0.0013
 3131POPC   D2A37962   2.852  26.387   4.371 -0.1792 -0.3399 -0.2177
 3131POPC   C3A37963   2.779  26.155   4.771 -0.0779 -0.1536  0.1037
 3131POPC   C4A37964   2.630  25.733   4.796  0.3616  0.0568 -0.2194
 3131POPC   C1B37965   2.443  25.553   4.219  0.0790 -0.0266 -0.1432
 3131POPC   C2B37966   2.716  25.276   4.438 -0.3383  0.0689 -0.0412
 3131POPC   C3B37967   3.076  25.014   4.484  0.1544  0.0226  0.1637
 3131POPC   C4B37968   3.405  24.843   4.234 -0.3202 -0.3511 -0.0747
 3132POPC   NC337969   5.345   3.048   4.112  0.4701  0.0406 -0.1183
 3132POPC   PO437970   5.022   3.026   3.924  0.2447  0.1179  0.0190
 3132POPC   GL137971   4.859   2.932   4.318 -0.1295  0.0047 -0.1059
 3132POPC   GL237972   4.956   3.205   4.434  0.1371 -0.1824 -0.1260
 3132POPC   C1A37973   4.723   2.900   4.773  0.0193  0.0135  0.0333
 3132POPC   D2A37974   4.653   3.189   5.164 -0.0434  0.0858  0.1851
 3132POPC   C3A37975   4.718   2.853   5.450 -0.1086  0.0274  0.0663
 3132POPC   C4A37976   4.551   2.477   5.658 -0.1428 -0.0196 -0.0638
 3132POPC   C1B37977   5.136   3.154   4.889 -0.0436 -0.1331 -0.0754
 3132POPC   C2B37978   5.157   3.243   5.309 -0.1168  0.1122  0.1686
 3132POPC   C3B37979   5.449   3.327   5.586 -0.1273 -0.1797 -0.2200
 3132POPC   C4B37980   5.435   3.648   5.921  0.1728 -0.1915 -0.0161
 3133POPC   NC337981  15.474  27.681   2.456  0.2214  0.0236 -0.0741
 3133POPC   PO437982  15.278  27.579   2.783 -0.1377 -0.3787  0.1817
 3133POPC   GL137983  14.936  27.679   2.820 -0.1159 -0.1438 -0.4184
 3133POPC   GL237984  14.683  27.549   2.901  0.2594  0.2936 -0.0578
 3133POPC   C1A37985  14.933  28.090   3.114  0.6113 -0.3393  0.1751
 3133POPC   D2A37986  14.827  27.915   3.553 -0.2403  0.1984  0.0443
 3133POPC   C3A37987  14.495  27.856   3.808 -0.0706  0.1304  0.0024
 3133POPC   C4A37988  14.059  27.911   3.952  0.3079  0.0773 -0.1152
 3133POPC   C1B37989  14.505  27.798   3.252  0.3058 -0.1261 -0.1088
 3133POPC   C2B37990  14.410  28.202   3.437 -0.0658 -0.1430 -0.2139
 3133POPC   C3B37991  14.292  28.616   3.244 -0.1070  0.1250 -0.2464
 3133POPC   C4B37992  14.418  28.822   2.824  0.0414  0.0762  0.1400
 3134POPC   NC337993  10.832  20.222   3.672 -0.1351  0.1124 -0.1375
 3134POPC   PO437994  10.486  19.996   3.683 -0.3402  0.2168 -0.0085
 3134POPC   GL137995  10.547  19.859   4.001  0.1879  0.0237  0.4156
 3134POPC   GL237996  10.347  19.682   4.051  0.0881  0.0777  0.2207
 3134POPC   C1A37997  10.446  19.993   4.432 -0.0139 -0.0019 -0.0434
 3134POPC   D2A37998  10.489  20.253   4.829 -0.2300 -0.2191 -0.1464
 3134POPC   C3A37999  10.664  19.948   5.148  0.0640 -0.1095 -0.2299
 3134POPC   C4A38000  10.733  19.635   5.461  0.3296 -0.0063 -0.2358
 3134POPC   C1B38001  10.168  19.314   4.187 -0.2411  0.0113  0.2439
 3134POPC   C2B38002  10.006  19.214   4.629  0.1650  0.1616  0.1089
 3134POPC   C3B38003  10.162  19.148   5.028  0.0579  0.1687  0.0383
 3134POPC   C4B38004  10.333  19.348   5.388 -0.2556 -0.0822  0.1233
 3135POPC   NC338005   4.342  18.185   3.426 -0.1021  0.0021  0.2447
 3135POPC   PO438006   3.975  18.134   3.332  0.0051 -0.3195  0.1921
 3135POPC   GL138007   3.976  18.021   3.735  0.0734  0.1579  0.3030
 3135POPC   GL238008   4.083  17.789   3.692 -0.0015 -0.1365  0.2125
 3135POPC   C1A38009   3.815  17.962   4.191 -0.0168  0.3179  0.2054
 3135POPC   D2A38010   3.801  17.801   4.635  0.2455  0.0026  0.2779
 3135POPC   C3A38011   4.088  17.797   4.961 -0.1612  0.0768 -0.0291
 3135POPC   C4A38012   4.299  17.781   5.313 -0.1446  0.2839 -0.1916
 3135POPC   C1B38013   4.286  17.897   4.155 -0.0745 -0.1909 -0.3788
 3135POPC   C2B38014   4.540  17.965   4.559 -0.2805 -0.2972 -0.1032
 3135POPC   C3B38015   4.624  17.742   4.983 -0.0534 -0.0065  0.1294
 3135POPC   C4B38016   4.994  17.559   5.238  0.2166  0.1359 -0.2286
 3136POPC   NC338017   9.855  22.673   3.344  0.1418  0.1492 -0.2670
 3136POPC   PO438018   9.849  22.952   3.594 -0.1601  0.1579 -0.1089
 3136POPC   GL138019   9.930  22.862   3.965  0.4499  0.0622 -0.0046
 3136POPC   GL238020  10.095  23.105   3.994 -0.0295 -0.2067  0.1882
 3136POPC   C1A38021   9.771  22.769   4.383 -0.2309 -0.0238 -0.1668
 3136POPC   D2A38022   9.800  22.788   4.868  0.0960 -0.1730 -0.0404
 3136POPC   C3A38023   9.581  23.073   5.175  0.3359  0.2217  0.3523
 3136POPC   C4A38024   9.760  23.187   5.545  0.1065 -0.0931  0.0410
 3136POPC   C1B38025  10.257  22.788   4.315 -0.0686 -0.2118  0.3880
 3136POPC   C2B38026  10.156  22.467   4.624 -0.1361 -0.2395 -0.3233
 3136POPC   C3B38027  10.208  22.436   5.068  0.1397  0.2175 -0.1363
 3136POPC   C4B38028  10.245  22.500   5.535 -0.2224 -0.0482  0.0756
 3137POPC   NC338029  13.654  24.190   3.926 -0.0727  0.2408 -0.0333
 3137POPC   PO438030  13.454  24.517   3.793  0.0505  0.1249  0.2653
 3137POPC   GL138031  13.583  24.705   4.122  0.1556 -0.1295  0.1343
 3137POPC   GL238032  13.845  24.654   4.112 -0.1004  0.3618  0.0172
 3137POPC   C1A38033  13.636  24.869   4.531 -0.1240 -0.3859  0.2973
 3137POPC   D2A38034  13.855  24.791   4.890 -0.0954  0.0214 -0.3943
 3137POPC   C3A38035  13.867  25.019   5.300  0.2126 -0.2419  0.0140
 3137POPC   C4A38036  13.745  25.344   5.631  0.1853  0.0634 -0.0866
 3137POPC   C1B38037  13.751  24.393   4.502 -0.3832  0.1332  0.6041
 3137POPC   C2B38038  13.742  24.289   4.915  0.0571 -0.0645 -0.3204
 3137POPC   C3B38039  13.563  24.571   5.287  0.0864  0.0508 -0.2421
 3137POPC   C4B38040  13.500  24.895   5.607 -0.0677 -0.1546  0.2442
 3138POPC   NC338041   5.318  22.007   3.995  0.0920  0.2236  0.0746
 3138POPC   PO438042   5.111  22.355   4.039 -0.0600  0.0830  0.0372
 3138POPC   GL138043   5.299  22.324   4.432 -0.0908 -0.3441  0.0642
 3138POPC   GL238044   5.486  22.516   4.460 -0.1431 -0.4314  0.2234
 3138POPC   C1A38045   5.228  22.176   4.863 -0.1951  0.1937 -0.2483
 3138POPC   D2A38046   5.130  21.935   5.239 -0.1215  0.0224 -0.0444
 3138POPC   C3A38047   5.414  21.935   5.526  0.0379  0.1556 -0.0450
 3138POPC   C4A38048   5.682  21.707   5.823 -0.0204  0.0298  0.0710
 3138POPC   C1B38049   5.313  22.730   4.841  0.1220 -0.2747 -0.2284
 3138POPC   C2B38050   5.588  23.031   5.080 -0.1265 -0.0079  0.1872
 3138POPC   C3B38051   5.639  23.376   5.337  0.1473 -0.2070 -0.2237
 3138POPC   C4B38052   5.746  23.773   5.508 -0.2362 -0.0809 -0.0442
 3139POPC   NC338053   7.670  31.705   3.164  0.2274 -0.0034  0.0140
 3139POPC   PO438054   8.060  31.822   3.066  0.1850  0.0283  0.0013
 3139POPC   GL138055   8.090  31.943   3.449 -0.2800  0.1165  0.0310
 3139POPC   GL238056   7.967  31.727   3.587  0.1196  0.2100  0.0945
 3139POPC   C1A38057   8.234  31.927   3.890 -0.0566  0.0582  0.0421
 3139POPC   D2A38058   7.924  32.060   4.244 -0.0027 -0.0179  0.1410
 3139POPC   C3A38059   7.995  31.929   4.683  0.2573 -0.1578  0.0380
 3139POPC   C4A38060   8.050  32.018   5.137  0.1446  0.1043 -0.2692
 3139POPC   C1B38061   7.562  31.654   3.654  0.4933  0.1309 -0.3349
 3139POPC   C2B38062   7.200  31.824   3.925  0.2096 -0.0455  0.2141
 3139POPC   C3B38063   6.886  32.131   3.993 -0.0811 -0.0447 -0.1075
 3139POPC   C4B38064   6.498  32.360   3.856  0.1829  0.0116 -0.2776
 3140POPC   NC338065   3.096  28.359   4.039  0.0514  0.0758  0.0635
 3140POPC   PO438066   3.121  28.582   3.756  0.3122 -0.2612 -0.0537
 3140POPC   GL138067   3.320  28.861   4.068  0.1298  0.5517  0.1513
 3140POPC   GL238068   3.551  28.922   4.212 -0.2938  0.3602  0.0197
 3140POPC   C1A38069   3.200  28.821   4.527 -0.0001 -0.0296  0.0738
 3140POPC   D2A38070   3.139  29.023   4.937 -0.2951 -0.2222  0.0140
 3140POPC   C3A38071   3.126  28.743   5.345 -0.2343 -0.2941 -0.2732
 3140POPC   C4A38072   3.008  28.566   5.681  0.0147  0.1240 -0.1628
 3140POPC   C1B38073   3.705  28.718   4.593 -0.1713  0.0619 -0.0119
 3140POPC   C2B38074   3.677  28.899   5.006  0.1667  0.0994  0.0353
 3140POPC   C3B38075   3.521  29.104   5.402  0.1589 -0.0530 -0.0850
 3140POPC   C4B38076   3.703  29.281   5.771  0.0367  0.1370  0.0564
 3141POPC   NC338077   2.564   0.885   4.287 -0.0918  0.2816 -0.2134
 3141POPC   PO438078   2.185   0.836   4.148  0.0006  0.0035 -0.1161
 3141POPC   GL138079   2.082   0.964   4.532 -0.2583 -0.1884 -0.0286
 3141POPC   GL238080   1.952   1.229   4.544  0.1917 -0.0032  0.0535
 3141POPC   C1A38081   2.073   0.881   4.990  0.0472  0.2420 -0.1116
 3141POPC   D2A38082   2.155   0.507   5.306  0.3015 -0.1485 -0.0578
 3141POPC   C3A38083   2.254   0.612   5.754 -0.3839 -0.0650 -0.3545
 3141POPC   C4A38084   2.423   0.779   6.201 -0.2379  0.1396 -0.0784
 3141POPC   C1B38085   1.739   1.519   4.818  0.2850  0.2654 -0.1041
 3141POPC   C2B38086   1.678   1.926   5.025 -0.1482  0.1233 -0.2678
 3141POPC   C3B38087   1.819   2.164   5.352 -0.1602 -0.0211  0.0924
 3141POPC   C4B38088   2.081   2.517   5.512  0.1912  0.1496  0.2434
 3142POPC   NC338089   1.796   2.287   3.607 -0.0208  0.0918  0.0652
 3142POPC   PO438090   2.104   2.167   3.475  0.1158  0.2615 -0.1192
 3142POPC   GL138091   2.095   1.993   3.959 -0.0487  0.0115  0.1500
 3142POPC   GL238092   2.441   1.961   3.924  0.1019 -0.0562  0.3702
 3142POPC   C1A38093   1.779   1.672   4.156 -0.2333  0.2162 -0.3522
 3142POPC   D2A38094   1.417   1.366   4.325 -0.2944 -0.2904  0.0770
 3142POPC   C3A38095   1.209   1.313   4.743 -0.0785  0.0544 -0.1251
 3142POPC   C4A38096   1.252   1.456   5.191  0.0806 -0.0908  0.1930
 3142POPC   C1B38097   2.391   2.095   4.363 -0.2582 -0.4303 -0.0859
 3142POPC   C2B38098   2.563   2.227   4.783  0.0970 -0.0635 -0.0048
 3142POPC   C3B38099   2.384   2.285   5.177 -0.0002  0.0194  0.0431
 3142POPC   C4B38100   2.615   2.574   5.469 -0.1650  0.0487  0.1754
 3143POPC   NC338101  12.388  28.297   3.534  0.0020 -0.0063  0.1501
 3143POPC   PO438102  12.223  27.922   3.559  0.1083 -0.0357 -0.0672
 3143POPC   GL138103  12.606  27.871   3.426  0.0233  0.0987 -0.1300
 3143POPC   GL238104  12.781  27.685   3.566 -0.1456 -0.0562 -0.0874
 3143POPC   C1A38105  12.933  28.169   3.304 -0.1269  0.0047 -0.4384
 3143POPC   D2A38106  13.252  28.549   3.348  0.1582 -0.4109  0.1553
 3143POPC   C3A38107  13.777  28.651   3.337 -0.1493  0.0500  0.1713
 3143POPC   C4A38108  13.946  28.941   3.636  0.1855 -0.0050  0.1697
 3143POPC   C1B38109  13.044  27.976   3.826 -0.0543  0.3251  0.1108
 3143POPC   C2B38110  13.229  28.293   4.077 -0.1619 -0.0850  0.0803
 3143POPC   C3B38111  13.278  28.325   4.527 -0.0894  0.3205  0.0553
 3143POPC   C4B38112  13.153  28.444   5.006  0.3111  0.0164  0.0726
 3144POPC   NC338113   6.286  11.172   3.717 -0.2083 -0.0636  0.1584
 3144POPC   PO438114   6.591  11.425   3.853  0.0431 -0.0891 -0.1878
 3144POPC   GL138115   6.436  11.363   4.145  0.0483  0.1629  0.2193
 3144POPC   GL238116   6.093  11.384   4.126 -0.2776  0.2503 -0.2461
 3144POPC   C1A38117   6.619  11.256   4.543  0.1031  0.0503 -0.2252
 3144POPC   D2A38118   6.681  10.889   4.733  0.2731 -0.1149 -0.2374
 3144POPC   C3A38119   7.093  10.853   5.032  0.4540 -0.1387  0.0894
 3144POPC   C4A38120   7.309  10.785   5.448  0.2102  0.5002 -0.1100
 3144POPC   C1B38121   6.155  11.529   4.596 -0.1043 -0.0035  0.0472
 3144POPC   C2B38122   6.430  11.425   5.000 -0.1301  0.1085 -0.0131
 3144POPC   C3B38123   6.615  11.546   5.410 -0.1136 -0.1153 -0.0618
 3144POPC   C4B38124   6.810  11.284   5.774  0.3051  0.1588 -0.1791
 3145POPC   NC338125   7.955  15.973   4.032  0.0625  0.1901 -0.2576
 3145POPC   PO438126   7.605  16.016   3.945 -0.0057 -0.0831  0.1901
 3145POPC   GL138127   7.709  15.853   4.371  0.1435  0.1086 -0.2304
 3145POPC   GL238128   7.631  16.071   4.522  0.0854 -0.0966  0.0359
 3145POPC   C1A38129   7.953  15.759   4.699  0.1228 -0.1303 -0.3740
 3145POPC   D2A38130   8.016  15.882   5.131  0.1994  0.2506  0.1481
 3145POPC   C3A38131   8.143  15.787   5.565 -0.0485  0.0479  0.0243
 3145POPC   C4A38132   8.440  15.657   5.930 -0.1121  0.2595 -0.1916
 3145POPC   C1B38133   7.549  15.929   4.963  0.0612 -0.1523  0.0446
 3145POPC   C2B38134   7.399  16.099   5.359  0.0959  0.2143 -0.2918
 3145POPC   C3B38135   7.113  16.414   5.611 -0.0202  0.2886 -0.1013
 3145POPC   C4B38136   6.818  16.667   5.830  0.1929 -0.3098  0.2275
 3146POPC   NC338137   7.432  14.202   3.407  0.1666  0.0062  0.2472
 3146POPC   PO438138   7.598  14.103   3.779 -0.0570  0.1644  0.0255
 3146POPC   GL138139   7.720  14.024   4.151  0.3200 -0.0123  0.1656
 3146POPC   GL238140   7.704  13.717   4.141 -0.1118 -0.0078  0.3543
 3146POPC   C1A38141   7.653  14.239   4.489  0.3117  0.0304 -0.0634
 3146POPC   D2A38142   7.834  14.358   4.929  0.1462  0.0225  0.1614
 3146POPC   C3A38143   7.552  14.422   5.210 -0.1638 -0.2051  0.0600
 3146POPC   C4A38144   7.397  14.467   5.609  0.0779  0.0120 -0.0117
 3146POPC   C1B38145   7.607  13.427   4.489 -0.1541  0.2392 -0.2471
 3146POPC   C2B38146   7.570  13.513   4.974  0.0805 -0.0692 -0.0234
 3146POPC   C3B38147   7.572  13.292   5.407  0.0630 -0.5483  0.0689
 3146POPC   C4B38148   7.525  13.098   5.857  0.4747 -0.0419 -0.3883
 3147POPC   NC338149   1.262   8.116   3.679 -0.1998 -0.1862  0.1909
 3147POPC   PO438150   1.565   7.858   3.676 -0.3506  0.0451 -0.1240
 3147POPC   GL138151   1.525   7.772   4.030  0.0683 -0.1419  0.0671
 3147POPC   GL238152   1.222   7.629   3.998 -0.1589 -0.0082 -0.1889
 3147POPC   C1A38153   1.890   7.889   4.316  0.0720  0.3210 -0.1539
 3147POPC   D2A38154   2.125   7.759   4.702  0.2221 -0.1694  0.4381
 3147POPC   C3A38155   2.458   7.988   4.970  0.0796  0.0605  0.0798
 3147POPC   C4A38156   2.790   8.247   5.043 -0.0049 -0.0521 -0.1783
 3147POPC   C1B38157   1.353   7.453   4.415 -0.3583  0.0485  0.2114
 3147POPC   C2B38158   1.503   7.453   4.785 -0.1736  0.1705  0.3309
 3147POPC   C3B38159   1.608   7.384   5.223 -0.1135  0.2762  0.1281
 3147POPC   C4B38160   2.041   7.350   5.391 -0.1821 -0.2630  0.1102
 3148POPC   NC338161   4.852  14.436   4.081 -0.2699 -0.2017 -0.1582
 3148POPC   PO438162   4.912  14.082   3.967 -0.0342 -0.1342  0.1812
 3148POPC   GL138163   4.890  14.001   4.252 -0.0220  0.0467 -0.1996
 3148POPC   GL238164   5.146  13.901   4.424  0.0042  0.0557  0.1831
 3148POPC   C1A38165   4.748  14.114   4.620  0.0709  0.2222  0.3113
 3148POPC   D2A38166   4.500  14.242   4.996 -0.0003 -0.1681 -0.1072
 3148POPC   C3A38167   4.189  14.199   5.292 -0.0938  0.1897  0.1940
 3148POPC   C4A38168   4.109  14.076   5.661  0.1461  0.2004  0.0817
 3148POPC   C1B38169   5.155  13.982   4.879 -0.0003 -0.2318 -0.1509
 3148POPC   C2B38170   5.265  14.290   5.160 -0.0991  0.1000  0.0647
 3148POPC   C3B38171   5.424  14.606   5.522 -0.2410  0.1395 -0.3213
 3148POPC   C4B38172   5.566  14.502   5.944 -0.0252  0.2213  0.1180
 3149POPC   NC338173  13.178  21.976   3.005 -0.1506  0.2058 -0.2192
 3149POPC   PO438174  12.855  22.062   3.242  0.2593 -0.1520  0.0206
 3149POPC   GL138175  12.830  22.012   3.629 -0.1740 -0.0787  0.1024
 3149POPC   GL238176  12.630  22.072   3.753  0.0101 -0.0922  0.2338
 3149POPC   C1A38177  13.044  21.872   3.951  0.0619 -0.3593  0.1941
 3149POPC   D2A38178  12.999  21.744   4.339  0.0260  0.0623  0.2873
 3149POPC   C3A38179  12.751  21.695   4.741  0.0742  0.2632  0.4691
 3149POPC   C4A38180  12.745  21.537   5.174  0.1116  0.0282 -0.0796
 3149POPC   C1B38181  12.505  21.846   4.089  0.2545 -0.0714 -0.0615
 3149POPC   C2B38182  12.536  21.479   4.279 -0.0577 -0.2935 -0.0124
 3149POPC   C3B38183  12.610  21.145   4.578  0.1395 -0.2973  0.4033
 3149POPC   C4B38184  12.792  21.010   4.969  0.2851 -0.2948 -0.3884
 3150POPC   NC338185   2.050  14.746   3.163 -0.0987 -0.1714 -0.1776
 3150POPC   PO438186   1.709  14.697   3.353 -0.0031 -0.1722 -0.2828
 3150POPC   GL138187   1.902  14.717   3.686  0.0013  0.3484  0.2931
 3150POPC   GL238188   2.190  14.753   3.687  0.2787  0.0295  0.0770
 3150POPC   C1A38189   1.791  14.901   4.089 -0.1759 -0.2244  0.1650
 3150POPC   D2A38190   1.395  15.007   4.322 -0.1868 -0.2188  0.0993
 3150POPC   C3A38191   1.436  14.977   4.778  0.0501 -0.2508  0.3501
 3150POPC   C4A38192   1.453  15.005   5.231 -0.0639  0.0628 -0.4580
 3150POPC   C1B38193   2.292  14.725   4.128 -0.3192  0.3904 -0.2915
 3150POPC   C2B38194   2.415  14.523   4.544 -0.0519 -0.0043  0.0240
 3150POPC   C3B38195   2.429  14.431   5.033  0.1449 -0.1666  0.3780
 3150POPC   C4B38196   2.391  14.312   5.491 -0.0406 -0.0195 -0.0920
 3151POPC   NC338197  11.569   7.207   3.905  0.1015  0.2908 -0.2196
 3151POPC   PO438198  11.197   7.159   3.763 -0.2503 -0.0787  0.1565
 3151POPC   GL138199  11.130   7.148   4.152 -0.2345  0.0330 -0.3368
 3151POPC   GL238200  11.137   6.846   4.168 -0.2043  0.0056  0.0898
 3151POPC   C1A38201  11.289   7.432   4.474  0.3585 -0.0082 -0.0151
 3151POPC   D2A38202  11.325   7.599   4.885  0.3150 -0.0495 -0.1096
 3151POPC   C3A38203  11.274   7.317   5.267 -0.1544  0.0817 -0.0795
 3151POPC   C4A38204  11.290   6.966   5.622  0.0746  0.1264  0.0649
 3151POPC   C1B38205  11.382   6.959   4.515 -0.1636  0.0529 -0.1472
 3151POPC   C2B38206  11.619   7.198   4.865 -0.0081  0.1416  0.2033
 3151POPC   C3B38207  11.785   7.110   5.305  0.0395  0.0827  0.0733
 3151POPC   C4B38208  11.686   7.245   5.782  0.0278 -0.1706 -0.1635
 3152POPC   NC338209   4.081  11.332   3.664  0.1598 -0.0990 -0.1195
 3152POPC   PO438210   4.140  11.002   3.848  0.2240  0.2084 -0.2103
 3152POPC   GL138211   4.019  10.922   4.223  0.4310 -0.3491  0.0970
 3152POPC   GL238212   4.222  10.685   4.295  0.4831  0.2705 -0.0026
 3152POPC   C1A38213   4.093  11.048   4.607 -0.1248 -0.1170 -0.2576
 3152POPC   D2A38214   4.448  11.095   4.929  0.0501 -0.3348  0.0444
 3152POPC   C3A38215   4.449  11.482   5.267 -0.0342  0.0494 -0.1027
 3152POPC   C4A38216   4.633  11.812   5.593  0.0415  0.1914 -0.0287
 3152POPC   C1B38217   3.964  10.385   4.564 -0.0052 -0.2171 -0.1156
 3152POPC   C2B38218   3.814  10.018   4.853  0.0110  0.1003 -0.2231
 3152POPC   C3B38219   3.484   9.963   5.181  0.2067  0.0861 -0.3208
 3152POPC   C4B38220   3.076  10.020   5.286 -0.0076  0.0795 -0.0767
 3153POPC   NC338221  13.188   1.051   3.972 -0.0320  0.1522  0.3011
 3153POPC   PO438222  12.782   1.123   4.107  0.0829 -0.1899  0.2428
 3153POPC   GL138223  13.073   1.098   4.407  0.0610 -0.1455 -0.0332
 3153POPC   GL238224  13.224   1.333   4.396  0.0751 -0.0599 -0.1422
 3153POPC   C1A38225  13.158   1.121   4.899 -0.1558  0.1014 -0.0825
 3153POPC   D2A38226  13.255   0.963   5.342 -0.0937  0.2350  0.0315
 3153POPC   C3A38227  12.860   0.879   5.597 -0.1573 -0.1754 -0.0957
 3153POPC   C4A38228  12.777   0.577   5.929 -0.5360 -0.0019 -0.3628
 3153POPC   C1B38229  13.432   1.547   4.770  0.1298 -0.0934  0.0040
 3153POPC   C2B38230  13.478   1.968   4.944  0.0353  0.1175  0.0963
 3153POPC   C3B38231  13.536   2.305   5.230  0.0544 -0.2407 -0.1232
 3153POPC   C4B38232  13.525   2.734   5.496 -0.2182  0.0554 -0.0440
 3154POPC   NC338233   8.703   1.384   3.109 -0.1831  0.0830  0.1015
 3154POPC   PO438234   8.494   1.552   3.385  0.0773  0.3162 -0.2920
 3154POPC   GL138235   8.493   1.198   3.598 -0.2875  0.2271 -0.0154
 3154POPC   GL238236   8.854   1.274   3.620  0.1647 -0.3717  0.1761
 3154POPC   C1A38237   8.296   1.104   4.016  0.0762 -0.5403 -0.1268
 3154POPC   D2A38238   8.146   1.044   4.469  0.0980 -0.0074  0.0053
 3154POPC   C3A38239   8.027   0.693   4.748 -0.1317  0.1763  0.0374
 3154POPC   C4A38240   7.656   0.608   5.004 -0.0147  0.0810 -0.0119
 3154POPC   C1B38241   8.786   0.979   3.979 -0.0497  0.0992 -0.2518
 3154POPC   C2B38242   8.627   0.886   4.379 -0.1872 -0.0851  0.0101
 3154POPC   C3B38243   8.551   0.864   4.841 -0.0698  0.2055 -0.1198
 3154POPC   C4B38244   8.272   0.716   5.155  0.0254  0.0834  0.4199
 3155POPC   NC338245   1.695   8.941   3.953 -0.0830  0.0340 -0.1867
 3155POPC   PO438246   1.784   9.304   3.901 -0.1660 -0.4265 -0.1261
 3155POPC   GL138247   1.774   9.268   4.332 -0.1994 -0.3476  0.1312
 3155POPC   GL238248   1.540   9.422   4.352 -0.2445 -0.1410 -0.1639
 3155POPC   C1A38249   1.806   9.139   4.726  0.2559  0.2076 -0.2932
 3155POPC   D2A38250   1.618   9.038   5.236  0.1055 -0.0810  0.5107
 3155POPC   C3A38251   1.223   8.794   5.453  0.1083 -0.0747  0.0550
 3155POPC   C4A38252   0.790   8.686   5.665  0.2876 -0.2402 -0.0439
 3155POPC   C1B38253   1.279   9.319   4.737  0.0297 -0.1130 -0.0659
 3155POPC   C2B38254   0.934   9.124   4.962  0.0901  0.2244 -0.0158
 3155POPC   C3B38255   0.835   8.688   5.106 -0.0824  0.0533  0.0429
 3155POPC   C4B38256   0.894   8.283   5.356  0.0387 -0.0961 -0.1758
 3156POPC   NC338257  10.096  15.680   3.940 -0.0837 -0.0590 -0.1263
 3156POPC   PO438258   9.973  16.033   3.794  0.6434  0.3466 -0.1234
 3156POPC   GL138259   9.849  16.054   4.173 -0.2038  0.2318 -0.0227
 3156POPC   GL238260   9.989  16.279   4.259  0.0481 -0.0445 -0.2494
 3156POPC   C1A38261   9.407  16.055   4.269  0.2359  0.0194  0.1005
 3156POPC   D2A38262   8.938  15.975   4.273  0.1177 -0.0443  0.0867
 3156POPC   C3A38263   8.608  15.861   4.615  0.0788  0.3445  0.4772
 3156POPC   C4A38264   8.469  16.069   4.965  0.1007  0.1198  0.0652
 3156POPC   C1B38265   9.914  16.324   4.740  0.1183 -0.2165  0.1610
 3156POPC   C2B38266   9.787  16.197   5.181 -0.1011 -0.0615  0.4539
 3156POPC   C3B38267  10.133  16.347   5.534  0.0454 -0.4506  0.1790
 3156POPC   C4B38268  10.367  16.393   6.003  0.0494 -0.0534  0.0389
 3157POPC   NC338269   6.795  20.134   3.699 -0.3455  0.3402 -0.0872
 3157POPC   PO438270   6.509  20.182   3.929  0.1487 -0.1475 -0.2664
 3157POPC   GL138271   6.756  20.215   4.275  0.4162 -0.3514  0.1430
 3157POPC   GL238272   6.694  20.338   4.435  0.0619 -0.0151 -0.1300
 3157POPC   C1A38273   7.006  19.941   4.542  0.0582 -0.1881 -0.0760
 3157POPC   D2A38274   7.154  19.653   4.824 -0.0912 -0.0892 -0.1870
 3157POPC   C3A38275   7.014  19.683   5.282 -0.0150 -0.1698 -0.2336
 3157POPC   C4A38276   6.878  19.741   5.781  0.0131 -0.0181  0.2027
 3157POPC   C1B38277   6.731  20.317   4.882 -0.4331  0.0597 -0.0157
 3157POPC   C2B38278   6.856  20.231   5.307 -0.1319  0.0678 -0.0091
 3157POPC   C3B38279   7.214  20.144   5.597 -0.2207  0.0264 -0.0439
 3157POPC   C4B38280   7.638  20.158   5.836  0.0845 -0.3858 -0.0531
 3158POPC   NC338281  15.588  23.702   3.881  0.0658  0.2295  0.2963
 3158POPC   PO438282  15.387  24.045   3.860 -0.1167 -0.1557 -0.0526
 3158POPC   GL138283  15.283  23.837   4.228  0.4652 -0.1455 -0.4506
 3158POPC   GL238284  14.980  23.802   4.120  0.1993  0.0144 -0.0221
 3158POPC   C1A38285  15.431  23.538   4.596 -0.1819 -0.4099  0.0408
 3158POPC   D2A38286  15.430  23.392   5.015 -0.2685 -0.1810 -0.0411
 3158POPC   C3A38287  15.822  23.333   5.196 -0.1072 -0.0663  0.1495
 3158POPC   C4A38288  16.049  23.225   5.537 -0.3467 -0.0173  0.3116
 3158POPC   C1B38289  14.930  23.536   4.486 -0.2984  0.1000 -0.2294
 3158POPC   C2B38290  14.956  23.300   4.898 -0.1311 -0.3423  0.0629
 3158POPC   C3B38291  14.999  23.451   5.342 -0.2594  0.0634 -0.2325
 3158POPC   C4B38292  15.267  23.769   5.594  0.6119  0.0433  0.4245
 3159POPC   NC338293   5.309  20.732   3.533  0.0685  0.1794  0.1271
 3159POPC   PO438294   5.219  20.809   3.914  0.1441  0.1695  0.0598
 3159POPC   GL138295   5.389  20.733   4.363  0.0178 -0.1541 -0.1634
 3159POPC   GL238296   5.601  20.617   4.234 -0.0679 -0.2583 -0.2316
 3159POPC   C1A38297   5.224  20.663   4.787 -0.1369  0.1621  0.0961
 3159POPC   D2A38298   5.344  20.385   5.061 -0.0332  0.0878 -0.0024
 3159POPC   C3A38299   5.201  20.638   5.424  0.2979 -0.1266  0.3095
 3159POPC   C4A38300   5.353  20.837   5.818  0.2905 -0.2580 -0.0800
 3159POPC   C1B38301   5.849  20.653   4.677  0.1096  0.0335  0.1480
 3159POPC   C2B38302   5.838  20.451   5.115 -0.0535  0.3726 -0.1329
 3159POPC   C3B38303   5.613  20.399   5.465 -0.2544 -0.3597  0.0036
 3159POPC   C4B38304   5.288  20.238   5.677  0.2869 -0.0802  0.1406
 3160POPC   NC338305   3.717   5.973   3.427  0.0467 -0.1140  0.2022
 3160POPC   PO438306   4.074   6.061   3.509  0.0981  0.1770 -0.1506
 3160POPC   GL138307   3.794   6.282   3.796 -0.1450  0.0518  0.0836
 3160POPC   GL238308   3.511   6.428   3.718 -0.0238 -0.2034 -0.1321
 3160POPC   C1A38309   3.746   6.472   4.216 -0.1992  0.1462  0.3889
 3160POPC   D2A38310   3.883   6.665   4.616  0.1544  0.0821 -0.1697
 3160POPC   C3A38311   3.618   6.757   4.935  0.3949  0.1003 -0.1877
 3160POPC   C4A38312   3.483   7.046   5.257 -0.2832 -0.0505  0.0216
 3160POPC   C1B38313   3.377   6.184   4.044 -0.0752  0.2681  0.0757
 3160POPC   C2B38314   3.345   5.813   4.309  0.3737  0.2001 -0.1957
 3160POPC   C3B38315   3.332   5.682   4.726  0.1885  0.0985 -0.2888
 3160POPC   C4B38316   2.987   5.794   5.078 -0.0601 -0.1359  0.0175
 3161POPC   NC338317  11.011  11.166   4.312 -0.0236  0.2155  0.0234
 3161POPC   PO438318  10.902  10.965   3.973  0.2901  0.2567  0.1770
 3161POPC   GL138319  10.815  10.719   4.292 -0.1315  0.0468  0.1557
 3161POPC   GL238320  11.057  10.704   4.475 -0.0241  0.0035 -0.1491
 3161POPC   C1A38321  10.669  10.756   4.750  0.0414  0.0232 -0.3248
 3161POPC   D2A38322  10.737  10.873   5.160  0.0190  0.0971 -0.1689
 3161POPC   C3A38323  11.120  10.742   5.360 -0.0693  0.0986 -0.0149
 3161POPC   C4A38324  11.600  10.625   5.259  0.0048  0.0409 -0.1173
 3161POPC   C1B38325  11.136  10.547   4.865 -0.0233 -0.0477 -0.4104
 3161POPC   C2B38326  11.441  10.274   5.045  0.1089 -0.0115 -0.0560
 3161POPC   C3B38327  11.548   9.968   5.405  0.0039  0.1163 -0.1061
 3161POPC   C4B38328  11.581   9.646   5.629 -0.2061 -0.1553 -0.2742
 3162POPC   NC338329  11.654  19.523   3.420 -0.1845  0.0649 -0.1112
 3162POPC   PO438330  12.010  19.390   3.286  0.1966 -0.2885 -0.6123
 3162POPC   GL138331  12.169  19.335   3.694 -0.0609 -0.0885  0.0057
 3162POPC   GL238332  12.227  19.029   3.798 -0.3616 -0.0399 -0.1346
 3162POPC   C1A38333  11.902  19.369   4.069 -0.3862  0.1712  0.2299
 3162POPC   D2A38334  11.856  19.579   4.437  0.4333 -0.0544 -0.1038
 3162POPC   C3A38335  12.100  19.905   4.602  0.0662  0.0678 -0.1491
 3162POPC   C4A38336  12.266  20.369   4.597 -0.0390  0.0791  0.1639
 3162POPC   C1B38337  12.357  19.197   4.222 -0.2132  0.0720 -0.1051
 3162POPC   C2B38338  12.311  19.321   4.693  0.3151  0.2440 -0.0224
 3162POPC   C3B38339  12.489  19.275   5.078 -0.1765 -0.3970  0.4760
 3162POPC   C4B38340  12.568  19.200   5.550 -0.1429  0.0640  0.1402
 3163POPC   NC338341   4.398   2.905   4.292  0.0430  0.0995  0.0645
 3163POPC   PO438342   4.518   3.182   4.109  0.0299  0.4499 -0.1909
 3163POPC   GL138343   4.574   3.434   4.390 -0.2161  0.0633 -0.2648
 3163POPC   GL238344   4.416   3.335   4.646  0.0402  0.2872 -0.4404
 3163POPC   C1A38345   4.360   3.826   4.601 -0.0093  0.0823  0.0014
 3163POPC   D2A38346   4.316   4.068   5.015  0.2609 -0.0759  0.3030
 3163POPC   C3A38347   3.976   4.241   5.263 -0.0466  0.0179  0.0431
 3163POPC   C4A38348   3.766   4.493   5.565  0.2495 -0.1992  0.1425
 3163POPC   C1B38349   4.283   3.529   5.057 -0.1486 -0.0987 -0.0150
 3163POPC   C2B38350   4.174   3.761   5.487  0.1840 -0.0269 -0.0927
 3163POPC   C3B38351   4.114   4.114   5.743  0.0764 -0.0197  0.2558
 3163POPC   C4B38352   4.116   4.554   5.885 -0.2247  0.2434 -0.0644
 3164POPC   NC338353   6.674  12.969   3.653  0.1607  0.0693  0.1322
 3164POPC   PO438354   6.895  12.678   3.762  0.2459 -0.0487  0.0154
 3164POPC   GL138355   7.100  12.583   3.972  0.0133 -0.0543 -0.0149
 3164POPC   GL238356   7.094  12.265   4.079  0.1950 -0.2939  0.2217
 3164POPC   C1A38357   7.098  12.652   4.419 -0.1749 -0.2520 -0.3685
 3164POPC   D2A38358   7.234  12.670   4.897  0.0511 -0.0697 -0.0366
 3164POPC   C3A38359   7.447  12.389   5.201  0.0391 -0.3334 -0.0513
 3164POPC   C4A38360   7.704  12.243   5.589  0.2435  0.0597  0.0608
 3164POPC   C1B38361   7.395  12.242   4.430  0.0656  0.1512 -0.2463
 3164POPC   C2B38362   7.669  12.309   4.827  0.0037 -0.1929 -0.1074
 3164POPC   C3B38363   8.003  12.521   5.022 -0.0294  0.0186 -0.1511
 3164POPC   C4B38364   8.188  12.895   5.177 -0.0957 -0.0019  0.0824
 3165POPC   NC338365   7.115   9.485   4.085  0.4350  0.2900 -0.1373
 3165POPC   PO438366   6.807   9.213   3.961  0.1180 -0.2639 -0.1002
 3165POPC   GL138367   6.885   9.152   4.310  0.1572  0.0977 -0.0223
 3165POPC   GL238368   6.685   9.046   4.462 -0.1024  0.0167 -0.0981
 3165POPC   C1A38369   7.083   9.512   4.563 -0.1516  0.1274  0.1649
 3165POPC   D2A38370   7.241   9.679   4.923 -0.0425 -0.1852 -0.2213
 3165POPC   C3A38371   7.496   9.597   5.316 -0.0596 -0.1102  0.1114
 3165POPC   C4A38372   7.814   9.523   5.602 -0.0182  0.1053 -0.0373
 3165POPC   C1B38373   6.660   8.795   4.818  0.1207  0.1116 -0.0649
 3165POPC   C2B38374   6.791   8.736   5.242 -0.0769 -0.0088  0.0041
 3165POPC   C3B38375   6.874   8.914   5.656 -0.1162 -0.1868  0.0528
 3165POPC   C4B38376   6.645   9.144   5.951  0.0077 -0.2222 -0.1543
 3166POPC   NC338377  11.284  18.835   3.517 -0.1304  0.3223  0.0684
 3166POPC   PO438378  11.352  18.777   3.888  0.1178  0.1751 -0.5997
 3166POPC   GL138379  11.270  18.827   4.256 -0.2206 -0.0900 -0.2869
 3166POPC   GL238380  11.002  18.896   4.246 -0.1292 -0.2532  0.0811
 3166POPC   C1A38381  11.213  18.841   4.753  0.2144  0.1374  0.0419
 3166POPC   D2A38382  11.477  18.720   5.144 -0.4358  0.2590 -0.1605
 3166POPC   C3A38383  11.589  18.755   5.642  0.2324  0.2165 -0.1282
 3166POPC   C4A38384  11.783  18.863   6.065 -0.0909 -0.1962  0.0058
 3166POPC   C1B38385  11.087  19.268   4.472 -0.1131 -0.1282 -0.0685
 3166POPC   C2B38386  11.422  19.398   4.802 -0.1589 -0.3171 -0.2664
 3166POPC   C3B38387  11.800  19.610   4.934  0.0600 -0.0710 -0.3823
 3166POPC   C4B38388  12.212  19.676   5.069  0.0850  0.0114  0.3207
 3167POPC   NC338389  15.359   4.903   3.384 -0.0318  0.0936 -0.0012
 3167POPC   PO438390  15.305   5.075   3.773  0.2017  0.0101  0.0427
 3167POPC   GL138391  15.227   4.938   4.194 -0.1650  0.0143  0.0021
 3167POPC   GL238392  15.437   4.965   4.241 -0.1187 -0.0465 -0.0942
 3167POPC   C1A38393  15.147   4.969   4.658  0.1532  0.1677  0.2556
 3167POPC   D2A38394  14.912   4.996   5.106  0.3431  0.1181  0.2934
 3167POPC   C3A38395  14.917   5.058   5.544 -0.0114 -0.0071 -0.0020
 3167POPC   C4A38396  14.987   4.923   5.982 -0.0542 -0.1429 -0.0999
 3167POPC   C1B38397  15.511   5.332   4.532 -0.2950  0.0647  0.0825
 3167POPC   C2B38398  15.422   5.233   4.970  0.0233  0.3821  0.0083
 3167POPC   C3B38399  15.334   5.363   5.414 -0.2642 -0.0048  0.0489
 3167POPC   C4B38400  15.142   5.560   5.773  0.2974 -0.1563  0.0303
 3168POPC   NC338401   9.658   4.091   3.255  0.0656 -0.3937 -0.0261
 3168POPC   PO438402   9.916   3.971   3.517 -0.3612  0.0630  0.1164
 3168POPC   GL138403   9.891   3.948   3.871 -0.0073 -0.1064 -0.1341
 3168POPC   GL238404   9.686   4.215   3.908 -0.1101  0.0365 -0.1682
 3168POPC   C1A38405   9.652   3.626   4.097 -0.0508  0.3106  0.1854
 3168POPC   D2A38406   9.344   3.645   4.407  0.2558  0.0676 -0.0124
 3168POPC   C3A38407   9.461   3.805   4.790 -0.0017 -0.2199  0.1152
 3168POPC   C4A38408   9.428   3.949   5.231 -0.1663  0.1164 -0.1489
 3168POPC   C1B38409   9.676   4.058   4.343 -0.0921 -0.0454  0.2708
 3168POPC   C2B38410   9.706   4.319   4.709 -0.0066 -0.1487  0.1334
 3168POPC   C3B38411   9.561   4.406   5.116  0.0095 -0.2798 -0.1201
 3168POPC   C4B38412   9.438   4.372   5.548 -0.1371  0.1732  0.0891
 3169POPC   NC338413   9.796  28.462   4.358  0.1913  0.0044  0.0758
 3169POPC   PO438414  10.102  28.332   4.170 -0.1100  0.0713  0.5236
 3169POPC   GL138415  10.271  28.374   4.496 -0.0184  0.4283 -0.2552
 3169POPC   GL238416  10.087  28.106   4.655  0.1415 -0.0780 -0.0654
 3169POPC   C1A38417  10.212  28.493   4.933  0.2328  0.2332  0.3273
 3169POPC   D2A38418  10.258  28.411   5.409 -0.3114 -0.0200  0.1115
 3169POPC   C3A38419  10.049  28.284   5.785 -0.2744  0.1667 -0.0806
 3169POPC   C4A38420   9.788  28.098   6.164 -0.0650  0.0193  0.2270
 3169POPC   C1B38421   9.998  28.036   5.077 -0.1273 -0.0614  0.0836
 3169POPC   C2B38422   9.772  28.056   5.488  0.1347  0.0162  0.2305
 3169POPC   C3B38423   9.462  28.189   5.812  0.1758  0.1968 -0.1659
 3169POPC   C4B38424   9.281  28.392   6.186  0.0458 -0.3235  0.0159
 3170POPC   NC338425   2.074  29.519   3.388 -0.1436  0.0146 -0.1121
 3170POPC   PO438426   2.256  29.516   3.759  0.3110 -0.0031  0.0670
 3170POPC   GL138427   2.299  29.729   4.143 -0.0114  0.2236 -0.4276
 3170POPC   GL238428   2.108  29.859   4.206 -0.0594  0.0146 -0.5243
 3170POPC   C1A38429   2.551  30.026   4.378 -0.1628 -0.0532  0.0357
 3170POPC   D2A38430   2.872  29.964   4.687 -0.1313  0.1778  0.3634
 3170POPC   C3A38431   2.703  29.873   5.116 -0.0662 -0.0734  0.3425
 3170POPC   C4A38432   2.714  29.710   5.513  0.5059 -0.1770  0.0079
 3170POPC   C1B38433   1.934  30.201   4.414 -0.0200  0.0929  0.0042
 3170POPC   C2B38434   2.023  30.122   4.820  0.1042 -0.1673  0.1557
 3170POPC   C3B38435   2.005  30.295   5.261  0.0364 -0.2507  0.1756
 3170POPC   C4B38436   2.131  30.315   5.769 -0.1584  0.0903 -0.3303
 3171POPC   NC338437   9.181   4.868   3.662 -0.0199 -0.0914 -0.1049
 3171POPC   PO438438   8.931   5.129   3.851  0.0060  0.1483 -0.0561
 3171POPC   GL138439   8.809   5.171   4.207 -0.0083 -0.0092 -0.0337
 3171POPC   GL238440   8.776   4.941   4.292 -0.3642 -0.0324  0.1210
 3171POPC   C1A38441   8.773   5.393   4.622 -0.0159  0.0592 -0.1461
 3171POPC   D2A38442   8.914   5.293   5.081 -0.0345 -0.0994 -0.1492
 3171POPC   C3A38443   8.692   5.184   5.489  0.2407 -0.0887  0.2121
 3171POPC   C4A38444   8.349   4.941   5.579  0.2416  0.1842  0.2667
 3171POPC   C1B38445   8.841   4.864   4.736 -0.1849 -0.1922 -0.0222
 3171POPC   C2B38446   9.194   4.857   5.028 -0.1508  0.3031  0.0427
 3171POPC   C3B38447   9.444   4.829   5.413  0.0011 -0.2639  0.2877
 3171POPC   C4B38448   9.815   4.764   5.669  0.1712 -0.1983  0.5289
 3172POPC   NC338449  10.295  22.695   3.727 -0.0094  0.2149  0.3607
 3172POPC   PO438450  10.621  22.873   3.742 -0.1551  0.1241  0.0627
 3172POPC   GL138451  10.830  22.854   4.126  0.1293 -0.1433  0.4200
 3172POPC   GL238452  11.106  22.790   4.137  0.0377 -0.1097  0.0503
 3172POPC   C1A38453  10.738  22.529   4.416 -0.1749  0.2649  0.0269
 3172POPC   D2A38454  10.678  22.498   4.834 -0.2320  0.1179 -0.1730
 3172POPC   C3A38455  10.738  22.677   5.246  0.2652  0.1266 -0.1774
 3172POPC   C4A38456  10.675  22.798   5.685  0.1225  0.3156 -0.0816
 3172POPC   C1B38457  11.325  22.503   4.450 -0.1143  0.2383 -0.0433
 3172POPC   C2B38458  11.303  22.326   4.843  0.0030 -0.1408 -0.0666
 3172POPC   C3B38459  11.308  22.077   5.253  0.0444 -0.0839 -0.2144
 3172POPC   C4B38460  11.288  21.741   5.516  0.1629 -0.1323  0.0045
 3173POPC   NC338461  15.030  27.464   3.269  0.0569  0.2677  0.1836
 3173POPC   PO438462  14.975  27.170   3.476  0.1448  0.0957 -0.1611
 3173POPC   GL138463  15.037  27.168   3.946 -0.1366 -0.2077 -0.0511
 3173POPC   GL238464  14.897  27.458   3.926  0.0998  0.3298  0.1918
 3173POPC   C1A38465  15.077  27.392   4.379 -0.1178  0.0512 -0.2310
 3173POPC   D2A38466  15.249  27.300   4.779 -0.0193 -0.2485 -0.4135
 3173POPC   C3A38467  15.004  27.457   5.151  0.0080  0.3385 -0.1217
 3173POPC   C4A38468  14.681  27.649   5.316  0.0785  0.1947 -0.0452
 3173POPC   C1B38469  14.642  27.632   4.238  0.0909  0.4312 -0.1023
 3173POPC   C2B38470  14.327  27.929   4.358  0.0130 -0.3364 -0.2200
 3173POPC   C3B38471  14.311  28.313   4.636  0.2376 -0.1480  0.2456
 3173POPC   C4B38472  14.124  28.546   5.044  0.0938 -0.1193  0.1022
 3174POPC   NC338473  14.432   0.649   3.457 -0.0734  0.1629  0.0542
 3174POPC   PO438474  14.732   0.876   3.622  0.3088 -0.2439  0.1083
 3174POPC   GL138475  14.875   0.907   4.038 -0.2680  0.0951 -0.0203
 3174POPC   GL238476  15.071   1.081   4.131  0.0024 -0.1727  0.1464
 3174POPC   C1A38477  14.880   0.630   4.437  0.1706 -0.0371 -0.2401
 3174POPC   D2A38478  14.848   0.513   4.835  0.1995  0.0220 -0.2172
 3174POPC   C3A38479  14.903   0.869   5.154 -0.0737 -0.1997  0.1111
 3174POPC   C4A38480  14.566   0.761   5.482  0.0884 -0.0679 -0.0564
 3174POPC   C1B38481  15.280   1.004   4.526  0.4815 -0.1592  0.2532
 3174POPC   C2B38482  15.328   0.860   4.895  0.0212  0.2373  0.2069
 3174POPC   C3B38483  15.535   0.906   5.278 -0.1608 -0.0541 -0.4355
 3174POPC   C4B38484  15.705   0.641   5.638  0.2572 -0.0703  0.1264
 3175POPC   NC338485  12.214   0.110   3.671  0.4070 -0.1479 -0.1233
 3175POPC   PO438486  12.568   0.213   3.755  0.0662 -0.0548  0.0086
 3175POPC   GL138487  12.783   0.225   4.121 -0.0793 -0.1294  0.3225
 3175POPC   GL238488  12.664   0.440   4.284 -0.2519 -0.3163 -0.4987
 3175POPC   C1A38489  13.025   0.208   4.539 -0.3339  0.0588 -0.2045
 3175POPC   D2A38490  13.044   0.289   4.984 -0.3814  0.1485 -0.0669
 3175POPC   C3A38491  13.261   0.447   5.339 -0.2789 -0.2313  0.0238
 3175POPC   C4A38492  13.499   0.267   5.680 -0.0112  0.1894  0.0549
 3175POPC   C1B38493  12.402   0.131   4.469 -0.1204 -0.1800  0.0579
 3175POPC   C2B38494  12.085  -0.039   4.767  0.0413 -0.0437  0.0240
 3175POPC   C3B38495  12.013   0.085   5.164  0.0833  0.0889  0.0970
 3175POPC   C4B38496  12.159  -0.014   5.567 -0.0293  0.2511 -0.1673
 3176POPC   NC338497  11.368  24.272   3.735 -0.1301 -0.2384  0.2157
 3176POPC   PO438498  10.984  24.169   3.716  0.3046  0.2621 -0.1503
 3176POPC   GL138499  11.027  23.874   3.963 -0.0679 -0.0948  0.2520
 3176POPC   GL238500  11.225  23.644   3.845 -0.0932  0.0933  0.2245
 3176POPC   C1A38501  11.082  23.761   4.467  0.1258  0.1504 -0.1108
 3176POPC   D2A38502  11.021  23.427   4.795  0.0694 -0.1813 -0.0545
 3176POPC   C3A38503  11.252  23.444   5.180 -0.0689 -0.0124 -0.4505
 3176POPC   C4A38504  11.314  23.553   5.611 -0.1807  0.1838 -0.0543
 3176POPC   C1B38505  11.228  23.360   4.238 -0.0229 -0.1191  0.0447
 3176POPC   C2B38506  11.469  23.236   4.612  0.1689 -0.1734  0.0457
 3176POPC   C3B38507  11.751  23.348   4.954  0.1625  0.1838 -0.0926
 3176POPC   C4B38508  11.783  23.528   5.321  0.1769 -0.2414 -0.0330
 3177POPC   NC338509   8.830   5.554   3.694 -0.3056  0.0867  0.2227
 3177POPC   PO438510   8.771   5.981   3.640  0.0199  0.0909  0.1740
 3177POPC   GL138511   8.731   6.014   4.064  0.0944 -0.4515 -0.0871
 3177POPC   GL238512   8.739   6.303   4.137 -0.1447 -0.2015  0.1212
 3177POPC   C1A38513   8.990   5.999   4.443  0.1094  0.3554 -0.0648
 3177POPC   D2A38514   9.419   6.119   4.536  0.1442 -0.0330 -0.0186
 3177POPC   C3A38515   9.449   6.258   5.020  0.0658 -0.2223 -0.2598
 3177POPC   C4A38516   9.420   6.478   5.387  0.3100  0.2657 -0.2339
 3177POPC   C1B38517   8.571   6.361   4.541  0.1847  0.0519 -0.0167
 3177POPC   C2B38518   8.389   6.269   4.959  0.0941 -0.0357 -0.0265
 3177POPC   C3B38519   8.340   6.204   5.357 -0.3098  0.4029 -0.0375
 3177POPC   C4B38520   8.030   6.182   5.661 -0.3328 -0.1174  0.0063
 3178POPC   NC338521   3.391   5.424   3.728  0.0638 -0.2495 -0.1602
 3178POPC   PO438522   3.087   5.203   3.664 -0.0469  0.1297 -0.0992
 3178POPC   GL138523   2.958   5.161   4.085 -0.1766 -0.0231 -0.0901
 3178POPC   GL238524   2.965   5.422   4.186 -0.0506 -0.1334  0.1089
 3178POPC   C1A38525   3.057   4.790   4.378  0.1115  0.0509  0.1163
 3178POPC   D2A38526   3.246   4.841   4.794 -0.3881  0.1481 -0.2282
 3178POPC   C3A38527   3.340   5.212   5.048  0.0399  0.3612 -0.1649
 3178POPC   C4A38528   3.042   5.361   5.352  0.1375  0.1138  0.1897
 3178POPC   C1B38529   3.016   5.265   4.646  0.1517  0.0463  0.0990
 3178POPC   C2B38530   2.866   4.951   5.009  0.0651 -0.0411 -0.0751
 3178POPC   C3B38531   2.723   4.681   5.365  0.0278 -0.0523 -0.0515
 3178POPC   C4B38532   2.637   4.222   5.361 -0.1203 -0.1299 -0.1999
 3179POPC   NC338533   4.428  15.410   3.906  0.0938  0.0720 -0.1235
 3179POPC   PO438534   4.811  15.506   3.762 -0.2068  0.0501 -0.0089
 3179POPC   GL138535   5.001  15.403   4.099 -0.0922  0.0523 -0.2448
 3179POPC   GL238536   4.885  15.576   4.267  0.2200 -0.4747  0.0422
 3179POPC   C1A38537   5.330  15.325   4.458 -0.0758 -0.0804 -0.1524
 3179POPC   D2A38538   5.559  15.207   4.819 -0.0613  0.2049 -0.1073
 3179POPC   C3A38539   5.709  15.459   5.195 -0.0372 -0.0315 -0.2289
 3179POPC   C4A38540   6.007  15.564   5.482 -0.0055 -0.0472  0.0074
 3179POPC   C1B38541   5.026  15.736   4.627 -0.0794 -0.0102 -0.4440
 3179POPC   C2B38542   5.179  15.912   5.012  0.0784  0.3173 -0.1538
 3179POPC   C3B38543   5.544  15.943   5.252  0.1279  0.0486 -0.0514
 3179POPC   C4B38544   5.796  16.279   5.450 -0.2244  0.1251  0.0424
 3180POPC   NC338545   9.984  26.698   4.179 -0.2442  0.0199 -0.0951
 3180POPC   PO438546  10.304  26.572   3.970  0.1400 -0.2144 -0.0133
 3180POPC   GL138547  10.431  26.790   4.349  0.0913 -0.1147  0.0853
 3180POPC   GL238548  10.381  27.053   4.417 -0.2417  0.0346 -0.0122
 3180POPC   C1A38549  10.281  26.665   4.735  0.1482  0.2382  0.1960
 3180POPC   D2A38550  10.314  26.577   5.194 -0.0922 -0.3017 -0.0309
 3180POPC   C3A38551  10.260  26.131   5.295  0.1738  0.1738 -0.2209
 3180POPC   C4A38552  10.300  25.659   5.276  0.1337 -0.0512  0.1767
 3180POPC   C1B38553  10.667  27.206   4.729  0.1174  0.4418  0.2006
 3180POPC   C2B38554  11.044  27.090   4.838 -0.6028 -0.1178 -0.1758
 3180POPC   C3B38555  11.370  26.889   5.102 -0.1055 -0.3141  0.4223
 3180POPC   C4B38556  11.825  26.830   5.161 -0.1628  0.1415  0.4000
 3181POPC   NC338557   7.749   8.914   3.889 -0.2324  0.0707 -0.1623
 3181POPC   PO438558   7.487   9.171   3.743 -0.0759 -0.0315 -0.0185
 3181POPC   GL138559   7.550   9.288   4.091 -0.0936 -0.1138 -0.1987
 3181POPC   GL238560   7.403   9.096   4.274  0.1098  0.0711 -0.0780
 3181POPC   C1A38561   7.974   9.372   4.268  0.0226  0.2952 -0.0146
 3181POPC   D2A38562   8.190   9.608   4.655 -0.0471  0.1622  0.3259
 3181POPC   C3A38563   8.356   9.862   4.947  0.3026 -0.1286 -0.2189
 3181POPC   C4A38564   8.562  10.112   5.281  0.0688 -0.0498 -0.2969
 3181POPC   C1B38565   7.803   8.898   4.390 -0.0952  0.0312 -0.1622
 3181POPC   C2B38566   8.102   9.066   4.665 -0.1176  0.3102  0.1665
 3181POPC   C3B38567   8.268   9.241   5.055  0.1920 -0.5054  0.0371
 3181POPC   C4B38568   8.271   9.310   5.484  0.1091  0.1621 -0.4458
 3182POPC   NC338569  11.221  26.362   3.356 -0.0663 -0.0504 -0.0361
 3182POPC   PO438570  11.053  26.117   3.597  0.1456  0.5187 -0.1929
 3182POPC   GL138571  11.414  26.071   3.825 -0.0895  0.1463  0.2209
 3182POPC   GL238572  11.618  26.221   3.727  0.1729 -0.0989 -0.0217
 3182POPC   C1A38573  11.443  25.821   4.220  0.1539 -0.0284 -0.0950
 3182POPC   D2A38574  11.127  25.472   4.305  0.0812 -0.3315  0.1067
 3182POPC   C3A38575  11.205  25.239   4.720  0.2153  0.3852 -0.0951
 3182POPC   C4A38576  11.173  25.174   5.218 -0.3556  0.3255 -0.2524
 3182POPC   C1B38577  11.922  26.070   4.039 -0.1001  0.3501 -0.2971
 3182POPC   C2B38578  11.927  25.913   4.469  0.1864  0.1125 -0.1063
 3182POPC   C3B38579  12.233  26.075   4.762  0.0902  0.2857  0.2480
 3182POPC   C4B38580  12.655  26.079   4.930  0.1661  0.0234 -0.1559
 3183POPC   NC338581   1.239  25.135   3.002  0.0352  0.0177 -0.3024
 3183POPC   PO438582   1.546  25.175   3.237  0.0175 -0.4832 -0.1639
 3183POPC   GL138583   1.636  25.054   3.589  0.0333 -0.0431 -0.5386
 3183POPC   GL238584   1.562  25.072   3.866 -0.2204  0.1833  0.2587
 3183POPC   C1A38585   1.932  24.724   3.797  0.0757 -0.1299 -0.0955
 3183POPC   D2A38586   1.852  24.294   3.923 -0.1616  0.0958 -0.0308
 3183POPC   C3A38587   2.124  24.086   4.219 -0.1251  0.1003 -0.1763
 3183POPC   C4A38588   2.294  23.874   4.591  0.0428  0.0292 -0.2023
 3183POPC   C1B38589   1.848  25.115   4.187  0.0295  0.2139 -0.4224
 3183POPC   C2B38590   1.953  25.219   4.611  0.2027  0.1015 -0.0246
 3183POPC   C3B38591   2.360  25.380   4.838 -0.0354  0.4179 -0.1232
 3183POPC   C4B38592   2.622  25.306   5.177 -0.0106  0.1031  0.5518
 3184POPC   NC338593   7.989   6.861   3.730  0.3344  0.2083 -0.3608
 3184POPC   PO438594   8.241   7.146   3.581 -0.3248  0.1850 -0.3370
 3184POPC   GL138595   8.330   7.104   3.955 -0.0435 -0.1794 -0.1995
 3184POPC   GL238596   8.492   7.291   4.031 -0.0206 -0.2793  0.1561
 3184POPC   C1A38597   8.190   7.138   4.370 -0.0013  0.1772 -0.0440
 3184POPC   D2A38598   8.230   7.006   4.765  0.2380  0.1375 -0.1779
 3184POPC   C3A38599   8.503   6.813   5.085 -0.0157 -0.0916  0.1252
 3184POPC   C4A38600   8.850   6.539   5.211  0.1548  0.1351 -0.1241
 3184POPC   C1B38601   8.579   7.474   4.498 -0.3209 -0.2457  0.0024
 3184POPC   C2B38602   8.622   7.810   4.794 -0.1560 -0.0422  0.1355
 3184POPC   C3B38603   8.672   7.720   5.217 -0.0761  0.0454  0.0952
 3184POPC   C4B38604   8.731   7.818   5.672 -0.0162  0.0560 -0.1126
 3185POPC   NC338605  10.954  10.115   3.386  0.1141  0.0050  0.1651
 3185POPC   PO438606  11.270   9.885   3.457  0.0380  0.0207 -0.1909
 3185POPC   GL138607  11.152   9.964   3.823 -0.2278  0.0918 -0.0344
 3185POPC   GL238608  10.894  10.066   3.895  0.3506  0.0822  0.0514
 3185POPC   C1A38609  11.293  10.020   4.236 -0.2112  0.4607  0.0064
 3185POPC   D2A38610  11.239  10.008   4.683 -0.2083 -0.0401 -0.2808
 3185POPC   C3A38611  11.076   9.841   5.111 -0.0580 -0.1893  0.1086
 3185POPC   C4A38612  10.985   9.806   5.605  0.0034  0.2162  0.4559
 3185POPC   C1B38613  10.822  10.137   4.335 -0.1540 -0.1495  0.0921
 3185POPC   C2B38614  10.789  10.254   4.786  0.1482  0.0245 -0.2248
 3185POPC   C3B38615  10.878  10.330   5.231  0.3124  0.0226 -0.1955
 3185POPC   C4B38616  11.062  10.263   5.599 -0.0325  0.2142 -0.2117
 3186POPC   NC338617   1.967   7.642   3.253  0.0097 -0.1032  0.1049
 3186POPC   PO438618   1.714   7.426   3.508 -0.3178  0.0069 -0.1006
 3186POPC   GL138619   1.837   7.465   3.977 -0.0896 -0.1043 -0.1906
 3186POPC   GL238620   2.032   7.657   3.842  0.2283  0.1036  0.0454
 3186POPC   C1A38621   1.889   7.379   4.447 -0.0674 -0.1371  0.2235
 3186POPC   D2A38622   1.955   7.344   4.888 -0.0074 -0.1081 -0.5092
 3186POPC   C3A38623   1.823   6.925   5.027 -0.2786 -0.0954  0.1627
 3186POPC   C4A38624   1.485   6.665   5.227 -0.6340  0.0738  0.1983
 3186POPC   C1B38625   2.316   7.613   4.256 -0.1040 -0.3059  0.0542
 3186POPC   C2B38626   2.354   7.285   4.574 -0.2191 -0.1341  0.1951
 3186POPC   C3B38627   2.352   7.020   4.950 -0.0769  0.1889  0.0086
 3186POPC   C4B38628   2.385   6.963   5.430  0.3404  0.2133  0.1440
 3187POPC   NC338629   0.397  29.458   3.611 -0.2187 -0.0568 -0.0856
 3187POPC   PO438630   0.563  29.118   3.610 -0.3554 -0.2214 -0.0513
 3187POPC   GL138631   0.487  28.826   3.997  0.2871 -0.2170  0.2712
 3187POPC   GL238632   0.426  29.051   4.154  0.1210  0.1178  0.1513
 3187POPC   C1A38633   0.037  28.753   4.241 -0.2313  0.2900  0.1462
 3187POPC   D2A38634  -0.203  28.776   4.620  0.0632 -0.0167 -0.0503
 3187POPC   C3A38635  -0.340  29.078   4.910  0.2306  0.0937  0.2664
 3187POPC   C4A38636  -0.091  29.137   5.311 -0.2581 -0.0164 -0.1073
 3187POPC   C1B38637   0.395  28.846   4.587 -0.1085 -0.2984  0.1773
 3187POPC   C2B38638   0.561  28.814   5.036 -0.2012 -0.0320  0.1683
 3187POPC   C3B38639   0.508  28.785   5.499  0.0197 -0.3165  0.3936
 3187POPC   C4B38640   0.343  28.587   5.827  0.0277  0.0046 -0.2790
 3188POPC   NC338641  11.045  22.609   3.596  0.0554  0.1677 -0.4162
 3188POPC   PO438642  11.289  22.846   3.445  0.0587 -0.0201 -0.2477
 3188POPC   GL138643  11.505  23.009   3.740 -0.0778  0.2470  0.3143
 3188POPC   GL238644  11.579  23.218   3.778 -0.0313 -0.3412 -0.1513
 3188POPC   C1A38645  11.623  22.943   4.184 -0.3982 -0.1988  0.0269
 3188POPC   D2A38646  11.710  22.819   4.684  0.0540 -0.3357  0.0737
 3188POPC   C3A38647  11.774  22.397   4.681 -0.1113  0.0747  0.1317
 3188POPC   C4A38648  11.750  22.048   4.954  0.0293 -0.2925  0.0053
 3188POPC   C1B38649  11.656  23.544   4.086 -0.1249 -0.0554  0.2714
 3188POPC   C2B38650  11.626  23.705   4.476  0.0242  0.0277  0.0552
 3188POPC   C3B38651  11.567  23.801   4.917  0.1827  0.0667 -0.0407
 3188POPC   C4B38652  11.507  24.009   5.341 -0.0594 -0.1366 -0.0397
 3189POPC   NC338653   7.521  24.066   4.095 -0.0867 -0.0749 -0.2545
 3189POPC   PO438654   7.851  24.292   4.108 -0.3280 -0.2348 -0.0494
 3189POPC   GL138655   8.021  24.197   4.474  0.1415  0.1306 -0.1664
 3189POPC   GL238656   7.798  24.087   4.633  0.1691 -0.2306  0.3266
 3189POPC   C1A38657   8.155  24.209   4.922 -0.0379  0.0656  0.0564
 3189POPC   D2A38658   8.119  24.017   5.354 -0.0969 -0.0163 -0.1143
 3189POPC   C3A38659   7.748  24.022   5.620  0.2904 -0.1169  0.0872
 3189POPC   C4A38660   7.646  23.750   5.994  0.0698  0.3458  0.4193
 3189POPC   C1B38661   7.904  23.794   4.974  0.0369 -0.0149 -0.2580
 3189POPC   C2B38662   7.964  23.397   5.205  0.4640 -0.2021  0.3396
 3189POPC   C3B38663   8.165  23.049   5.419 -0.3190 -0.1246 -0.1272
 3189POPC   C4B38664   8.452  22.926   5.791  0.1685 -0.1791  0.3528
 3190POPC   NC338665  13.193  19.519   2.985 -0.1272  0.0006  0.0568
 3190POPC   PO438666  12.867  19.691   3.152  0.0328 -0.1986  0.1156
 3190POPC   GL138667  12.952  19.948   3.354 -0.0638 -0.0019  0.0270
 3190POPC   GL238668  12.666  20.054   3.460  0.0231 -0.1771 -0.4478
 3190POPC   C1A38669  12.997  19.947   3.791 -0.0817  0.0150 -0.2829
 3190POPC   D2A38670  12.949  19.867   4.252  0.1666 -0.2825  0.2518
 3190POPC   C3A38671  13.181  20.195   4.523  0.0580 -0.0775  0.1032
 3190POPC   C4A38672  13.636  20.350   4.514 -0.2573 -0.1245  0.0257
 3190POPC   C1B38673  12.577  20.372   3.765 -0.1153  0.0634 -0.3194
 3190POPC   C2B38674  12.236  20.474   4.095  0.1048 -0.1863  0.0921
 3190POPC   C3B38675  11.885  20.733   4.076  0.0676  0.1236 -0.3118
 3190POPC   C4B38676  11.651  21.023   4.330 -0.1572  0.1033 -0.4206
 3191POPC   NC338677   3.740   4.519   3.707 -0.1401  0.0802  0.1525
 3191POPC   PO438678   3.957   4.848   3.816 -0.3837 -0.2465 -0.3923
 3191POPC   GL138679   3.696   4.843   4.086  0.1371 -0.1370  0.0360
 3191POPC   GL238680   3.422   4.933   4.002  0.0892  0.0369  0.0582
 3191POPC   C1A38681   3.599   4.936   4.490  0.1624 -0.0147 -0.4624
 3191POPC   D2A38682   3.776   4.963   4.956  0.2440  0.1240 -0.0138
 3191POPC   C3A38683   3.792   5.135   5.380  0.1436  0.0316 -0.2699
 3191POPC   C4A38684   3.575   5.352   5.756  0.2172  0.2937 -0.2089
 3191POPC   C1B38685   3.411   5.309   4.278 -0.1563  0.1342  0.0457
 3191POPC   C2B38686   3.741   5.400   4.596 -0.0537 -0.1580 -0.1923
 3191POPC   C3B38687   3.723   5.593   4.995  0.2859  0.1689 -0.1865
 3191POPC   C4B38688   3.461   5.632   5.383 -0.1052  0.3029  0.0996
 3192POPC   NC338689   0.305  28.711   3.438  0.1301  0.1110 -0.0309
 3192POPC   PO438690  -0.056  28.589   3.601 -0.1208 -0.0760  0.0224
 3192POPC   GL138691  -0.171  28.847   3.811  0.0894 -0.1737  0.0524
 3192POPC   GL238692   0.049  29.028   3.822  0.2004  0.0690 -0.2261
 3192POPC   C1A38693  -0.457  28.694   4.139 -0.1333 -0.2819 -0.1029
 3192POPC   D2A38694  -0.673  28.800   4.522  0.1106  0.3067 -0.1881
 3192POPC   C3A38695  -0.696  28.650   4.925  0.1140 -0.3668  0.0846
 3192POPC   C4A38696  -0.896  28.491   5.307 -0.1209  0.1010 -0.0331
 3192POPC   C1B38697  -0.318  29.192   4.049 -0.0834 -0.5163  0.2519
 3192POPC   C2B38698  -0.543  29.299   4.477  0.1873 -0.1750  0.2714
 3192POPC   C3B38699  -0.874  29.328   4.744 -0.0884  0.2391  0.2422
 3192POPC   C4B38700  -1.265  29.601   4.867 -0.1170 -0.1857  0.0531
 3193POPC   NC338701   0.707   9.970   3.780  0.0568  0.0182 -0.1635
 3193POPC   PO438702   1.064  10.083   3.841 -0.0012 -0.4248 -0.0049
 3193POPC   GL138703   1.058  10.077   4.188  0.1254  0.2157  0.0274
 3193POPC   GL238704   1.162  10.243   4.416  0.0613 -0.0029  0.2755
 3193POPC   C1A38705   1.243   9.791   4.454 -0.1507  0.1850  0.0797
 3193POPC   D2A38706   1.461   9.763   4.841  0.2676  0.0462  0.0336
 3193POPC   C3A38707   1.864   9.975   5.001  0.3970  0.2131  0.0612
 3193POPC   C4A38708   2.242  10.185   5.260 -0.0375  0.0249 -0.0647
 3193POPC   C1B38709   1.326  10.244   4.801 -0.2397 -0.1721 -0.0502
 3193POPC   C2B38710   1.223  10.084   5.217  0.0977  0.2065  0.2049
 3193POPC   C3B38711   0.977   9.818   5.568 -0.0305 -0.2441  0.0969
 3193POPC   C4B38712   0.626   9.547   5.587 -0.1873 -0.1272 -0.0891
 3194POPC   NC338713   2.107   0.327   3.638 -0.2146  0.2115  0.1040
 3194POPC   PO438714   2.427   0.425   3.886 -0.1916 -0.0844  0.1973
 3194POPC   GL138715   2.405   0.357   4.255 -0.0562 -0.1997 -0.2213
 3194POPC   GL238716   2.496   0.119   4.404 -0.0759 -0.5718 -0.1067
 3194POPC   C1A38717   2.309   0.552   4.660 -0.0375  0.1726  0.3031
 3194POPC   D2A38718   2.539   0.880   4.862 -0.2216 -0.2354 -0.0626
 3194POPC   C3A38719   2.415   0.964   5.366 -0.1694 -0.1598  0.0331
 3194POPC   C4A38720   2.261   1.099   5.811  0.0904 -0.3895 -0.1603
 3194POPC   C1B38721   2.639   0.074   4.884 -0.1008 -0.1029  0.1901
 3194POPC   C2B38722   2.778  -0.126   5.241  0.0869  0.0503  0.0338
 3194POPC   C3B38723   3.025  -0.444   5.491  0.3353  0.1294 -0.1189
 3194POPC   C4B38724   3.228  -0.855   5.402 -0.0456 -0.2959  0.1124
 3195POPC   NC338725   7.875  30.886   3.231 -0.1043 -0.1067 -0.0901
 3195POPC   PO438726   8.074  30.914   3.569  0.1147 -0.3869  0.3264
 3195POPC   GL138727   7.968  30.750   3.983 -0.0021  0.0238  0.3753
 3195POPC   GL238728   7.708  30.595   3.912 -0.1317  0.1110  0.0644
 3195POPC   C1A38729   8.103  30.698   4.411  0.0367 -0.0453  0.2400
 3195POPC   D2A38730   8.042  30.394   4.791 -0.1760  0.2090  0.1518
 3195POPC   C3A38731   7.846  30.515   5.228  0.1717  0.1397 -0.0942
 3195POPC   C4A38732   7.931  30.523   5.671  0.0076  0.3274  0.0210
 3195POPC   C1B38733   7.576  30.763   4.326  0.3324 -0.0511 -0.1186
 3195POPC   C2B38734   7.216  30.884   4.644  0.0872  0.0640  0.1009
 3195POPC   C3B38735   6.992  31.046   4.990  0.1081 -0.1107 -0.1919
 3195POPC   C4B38736   6.785  31.443   5.075  0.0874 -0.0516  0.2356
 3196POPC   NC338737   6.804   8.664   4.020 -0.2286 -0.1041  0.2871
 3196POPC   PO438738   7.236   8.665   4.036 -0.2763 -0.1380 -0.2708
 3196POPC   GL138739   7.475   8.320   4.118 -0.1935 -0.0441  0.2026
 3196POPC   GL238740   7.304   8.311   4.345 -0.3778 -0.2964 -0.2143
 3196POPC   C1A38741   7.706   8.018   4.413 -0.0173  0.0682  0.0733
 3196POPC   D2A38742   7.812   7.804   4.803 -0.0197  0.1505  0.1645
 3196POPC   C3A38743   7.704   7.400   4.961 -0.0963  0.0926  0.2269
 3196POPC   C4A38744   8.002   7.098   5.162  0.2394 -0.1293  0.2527
 3196POPC   C1B38745   7.500   8.555   4.664 -0.0693 -0.0621 -0.0536
 3196POPC   C2B38746   7.409   8.807   5.014  0.2209  0.1421 -0.1616
 3196POPC   C3B38747   7.106   9.101   5.164 -0.0713  0.1259 -0.0311
 3196POPC   C4B38748   6.657   9.254   5.131  0.1102 -0.0175 -0.1830
 3197POPC   NC338749   8.531   3.159   3.598  0.0830 -0.0346  0.0432
 3197POPC   PO438750   8.199   3.218   3.832 -0.3776  0.0734  0.0393
 3197POPC   GL138751   8.376   2.905   4.084  0.1277 -0.2014  0.0954
 3197POPC   GL238752   8.233   3.046   4.330 -0.0554 -0.1959  0.1654
 3197POPC   C1A38753   8.475   2.701   4.540 -0.1375 -0.2340  0.0489
 3197POPC   D2A38754   8.396   2.414   4.910  0.1063 -0.1547 -0.5439
 3197POPC   C3A38755   8.187   2.570   5.290  0.1481 -0.0622 -0.1077
 3197POPC   C4A38756   8.088   2.733   5.712  0.0463  0.0269  0.3451
 3197POPC   C1B38757   8.232   3.114   4.789 -0.2478 -0.1762  0.0379
 3197POPC   C2B38758   8.325   3.047   5.202  0.2567  0.2199 -0.0732
 3197POPC   C3B38759   8.497   2.971   5.623 -0.0052 -0.0852  0.0960
 3197POPC   C4B38760   8.598   3.415   5.680  0.2561 -0.1655 -0.0380
 3198POPC   NC338761   5.253  29.119   3.371 -0.0467 -0.4125 -0.2012
 3198POPC   PO438762   5.120  29.494   3.406 -0.1775 -0.2151  0.1472
 3198POPC   GL138763   5.364  29.751   3.602  0.0594 -0.1543 -0.1181
 3198POPC   GL238764   5.229  29.791   3.850 -0.0927 -0.1512 -0.0635
 3198POPC   C1A38765   5.786  29.999   3.615 -0.0898  0.1020  0.1873
 3198POPC   D2A38766   6.177  30.178   3.616 -0.1558 -0.0288  0.2355
 3198POPC   C3A38767   6.090  30.269   4.036 -0.0609 -0.1368  0.1210
 3198POPC   C4A38768   5.864  30.339   4.410 -0.0792 -0.0271  0.0576
 3198POPC   C1B38769   5.328  29.645   4.285 -0.1410 -0.0637 -0.1937
 3198POPC   C2B38770   5.146  29.680   4.729  0.2643  0.0782  0.1651
 3198POPC   C3B38771   5.043  29.385   5.097 -0.2054  0.1433  0.1037
 3198POPC   C4B38772   4.899  29.201   5.495  0.0290  0.2798  0.2519
 3199POPC   NC338773   4.863  15.858   3.378 -0.1662 -0.3006 -0.1577
 3199POPC   PO438774   4.847  16.237   3.479  0.2285 -0.1620  0.2080
 3199POPC   GL138775   4.783  16.185   3.845 -0.2717 -0.2797 -0.2310
 3199POPC   GL238776   4.994  15.971   3.904 -0.2758  0.0817 -0.3676
 3199POPC   C1A38777   4.588  16.472   4.104  0.1720  0.3095 -0.1482
 3199POPC   D2A38778   4.452  16.482   4.522  0.3719 -0.1432  0.1339
 3199POPC   C3A38779   4.468  16.455   4.972  0.1099 -0.0900 -0.3932
 3199POPC   C4A38780   4.661  16.452   5.417 -0.0969 -0.1663  0.0826
 3199POPC   C1B38781   4.895  16.123   4.367 -0.1698 -0.1200 -0.2769
 3199POPC   C2B38782   4.710  16.077   4.834 -0.1973 -0.0009  0.0164
 3199POPC   C3B38783   4.637  15.840   5.201 -0.1533 -0.0420  0.1869
 3199POPC   C4B38784   4.595  15.581   5.591 -0.1549 -0.1336 -0.0623
 3200POPC   NC338785  12.109   7.883   3.915  0.1529  0.0665  0.0609
 3200POPC   PO438786  11.927   8.173   3.754  0.0291 -0.1504  0.0490
 3200POPC   GL138787  11.689   8.303   4.041 -0.0963 -0.3098  0.0490
 3200POPC   GL238788  11.527   8.568   4.169 -0.0435  0.2090  0.0580
 3200POPC   C1A38789  11.788   8.287   4.540  0.0623 -0.0607 -0.1380
 3200POPC   D2A38790  11.848   8.392   4.922 -0.2446 -0.0799  0.0528
 3200POPC   C3A38791  12.153   8.369   5.277 -0.0808 -0.1208 -0.0606
 3200POPC   C4A38792  12.559   8.480   5.430  0.2309  0.0113 -0.1590
 3200POPC   C1B38793  11.195   8.533   4.500 -0.2632  0.3040  0.1139
 3200POPC   C2B38794  10.951   8.747   4.817 -0.2268  0.2304 -0.3218
 3200POPC   C3B38795  10.826   8.937   5.201  0.1176 -0.1366 -0.0103
 3200POPC   C4B38796  10.610   9.271   5.439 -0.0282 -0.1384  0.1997
 3201POPC   NC338797  15.611  14.189   3.016 -0.1440  0.0215  0.0852
 3201POPC   PO438798  15.437  14.072   3.355  0.0798 -0.0634 -0.0227
 3201POPC   GL138799  15.596  13.989   3.787  0.0795 -0.0639 -0.0580
 3201POPC   GL238800  15.830  13.849   3.845 -0.0909 -0.2321  0.2073
 3201POPC   C1A38801  15.475  14.123   4.246 -0.1398  0.0861  0.0384
 3201POPC   D2A38802  15.244  14.097   4.655 -0.2465  0.1018  0.0005
 3201POPC   C3A38803  15.196  13.903   5.068 -0.3172 -0.0365 -0.1779
 3201POPC   C4A38804  15.144  13.862   5.555  0.1553  0.0560 -0.1432
 3201POPC   C1B38805  15.741  13.706   4.261 -0.1211  0.0191  0.2183
 3201POPC   C2B38806  15.609  13.526   4.721  0.0269  0.1613 -0.0745
 3201POPC   C3B38807  15.572  13.330   5.133 -0.0337 -0.0461 -0.0365
 3201POPC   C4B38808  15.570  12.981   5.484 -0.3223  0.0055 -0.0862
 3202POPC   NC338809  14.197  13.589   3.917  0.1642 -0.3118 -0.1081
 3202POPC   PO438810  13.798  13.679   3.983  0.0089 -0.2758  0.3611
 3202POPC   GL138811  13.780  13.558   4.325 -0.1742  0.4585 -0.0445
 3202POPC   GL238812  13.786  13.810   4.534 -0.1167 -0.2358 -0.1800
 3202POPC   C1A38813  13.350  13.485   4.562 -0.3081 -0.2565 -0.1629
 3202POPC   D2A38814  13.127  13.070   4.458 -0.1854 -0.1718  0.1759
 3202POPC   C3A38815  12.976  13.142   4.854 -0.0437 -0.0736 -0.1117
 3202POPC   C4A38816  12.990  12.842   5.269 -0.2084  0.2564  0.1433
 3202POPC   C1B38817  13.906  14.061   4.928 -0.0348 -0.1128  0.0804
 3202POPC   C2B38818  14.162  14.385   5.132 -0.0000 -0.1738 -0.0091
 3202POPC   C3B38819  13.915  14.727   5.431 -0.2059  0.0413  0.1743
 3202POPC   C4B38820  13.587  15.062   5.604  0.0840  0.1019  0.2194
 3203POPC   NC338821   1.565  28.615   3.612 -0.1097  0.4596  0.0991
 3203POPC   PO438822   1.202  28.631   3.769 -0.1736 -0.2176  0.2853
 3203POPC   GL138823   1.406  28.739   4.073 -0.1826  0.0188 -0.4188
 3203POPC   GL238824   1.485  29.023   4.023  0.1546  0.0466  0.3744
 3203POPC   C1A38825   1.670  28.805   4.486 -0.0254 -0.2320  0.2509
 3203POPC   D2A38826   1.469  28.693   4.833  0.2407 -0.0302  0.4025
 3203POPC   C3A38827   1.541  28.518   5.259 -0.5278 -0.4358 -0.1523
 3203POPC   C4A38828   1.415  28.469   5.690  0.0590  0.2285  0.1608
 3203POPC   C1B38829   1.256  29.051   4.405 -0.0258 -0.4098 -0.2630
 3203POPC   C2B38830   1.163  29.273   4.800 -0.0994 -0.1048 -0.0878
 3203POPC   C3B38831   1.207  29.142   5.226 -0.1103 -0.1156 -0.0992
 3203POPC   C4B38832   1.438  28.999   5.576 -0.2117 -0.3879  0.0758
 3204POPC   NC338833  15.294  26.885   3.814  0.0395  0.3235  0.1812
 3204POPC   PO438834  15.526  26.575   3.799 -0.0999  0.2093 -0.1718
 3204POPC   GL138835  15.489  26.542   4.145 -0.2100  0.0782 -0.0788
 3204POPC   GL238836  15.304  26.409   4.355  0.0298  0.0016  0.0445
 3204POPC   C1A38837  15.634  26.080   4.309  0.1100 -0.1422 -0.1605
 3204POPC   D2A38838  15.894  25.840   4.602 -0.0850 -0.3458  0.1306
 3204POPC   C3A38839  15.922  25.646   5.015 -0.1654  0.2119  0.0117
 3204POPC   C4A38840  16.319  25.654   5.327  0.1352  0.4246  0.2940
 3204POPC   C1B38841  15.575  26.322   4.783  0.0463 -0.5571  0.0468
 3204POPC   C2B38842  15.653  26.471   5.205  0.1546 -0.2518 -0.0373
 3204POPC   C3B38843  15.312  26.580   5.559  0.0291  0.0132 -0.1397
 3204POPC   C4B38844  15.095  26.970   5.798  0.3025  0.0301  0.0888
 3205POPC   NC338845   7.767   8.297   3.243 -0.1732 -0.1351  0.0310
 3205POPC   PO438846   7.924   8.666   3.400 -0.1848  0.1073 -0.1739
 3205POPC   GL138847   8.205   8.944   3.580  0.2355  0.1496 -0.1681
 3205POPC   GL238848   8.055   9.214   3.540 -0.0532 -0.4156  0.0208
 3205POPC   C1A38849   8.300   9.224   3.959 -0.4544 -0.3365  0.1630
 3205POPC   D2A38850   8.530   9.517   4.281 -0.1905 -0.6022  0.0583
 3205POPC   C3A38851   8.577   9.948   4.454 -0.0134 -0.2641  0.8375
 3205POPC   C4A38852   8.563  10.382   4.453 -0.0006  0.1688  0.1444
 3205POPC   C1B38853   8.061   9.595   3.327  0.0752 -0.0162  0.0146
 3205POPC   C2B38854   8.371   9.668   2.989  0.2716 -0.0510  0.0803
 3205POPC   C3B38855   8.781   9.730   3.073 -0.1841 -0.4063 -0.1690
 3205POPC   C4B38856   9.085   9.679   3.435  0.1173  0.3730 -0.2584
 3206POPC   NC338857   7.919  18.749   3.623 -0.0126  0.2720  0.0740
 3206POPC   PO438858   8.109  19.062   3.563 -0.0096  0.0802 -0.2577
 3206POPC   GL138859   7.906  19.044   3.959  0.0826 -0.3701 -0.0789
 3206POPC   GL238860   7.721  19.211   4.077 -0.1186 -0.2579 -0.0126
 3206POPC   C1A38861   7.984  18.959   4.433 -0.1155 -0.2118  0.4024
 3206POPC   D2A38862   7.810  18.922   4.848 -0.3288 -0.1689  0.1752
 3206POPC   C3A38863   7.850  19.047   5.296 -0.4218 -0.2056 -0.2240
 3206POPC   C4A38864   7.682  19.198   5.676  0.0376  0.0267  0.2731
 3206POPC   C1B38865   7.614  19.234   4.467  0.3692  0.1919  0.1645
 3206POPC   C2B38866   7.349  19.173   4.888 -0.0063  0.2200 -0.0746
 3206POPC   C3B38867   7.320  19.203   5.347  0.3404  0.2256 -0.2276
 3206POPC   C4B38868   7.232  18.899   5.722 -0.0557 -0.2584 -0.1478
 3207POPC   NC338869   9.734  11.155   3.068 -0.0995  0.2539  0.1829
 3207POPC   PO438870   9.995  11.396   3.271 -0.2058  0.2203  0.0993
 3207POPC   GL138871   9.995  11.117   3.585  0.2406  0.0496  0.1180
 3207POPC   GL238872   9.775  11.284   3.724 -0.1684  0.2147  0.1277
 3207POPC   C1A38873   9.978  10.868   4.029  0.1298 -0.0836 -0.1391
 3207POPC   D2A38874   9.933  10.607   4.403 -0.1309 -0.1856 -0.0191
 3207POPC   C3A38875   9.762  10.525   4.847 -0.2011 -0.1443 -0.1123
 3207POPC   C4A38876   9.884  10.355   5.309 -0.1369  0.0715  0.0836
 3207POPC   C1B38877   9.517  11.011   4.015 -0.1321  0.1374 -0.0176
 3207POPC   C2B38878   9.483  10.898   4.484 -0.1746  0.1410 -0.2903
 3207POPC   C3B38879   9.373  10.798   4.929  0.0396 -0.0009 -0.3217
 3207POPC   C4B38880   9.209  10.791   5.377  0.0149 -0.1857 -0.1178
 3208POPC   NC338881  11.609  11.592   3.790 -0.0378 -0.2482  0.1064
 3208POPC   PO438882  11.949  11.373   3.748 -0.1693 -0.5749  0.1779
 3208POPC   GL138883  11.952  11.351   4.080  0.1345 -0.2191  0.0589
 3208POPC   GL238884  11.678  11.215   4.107 -0.1581 -0.0591  0.0332
 3208POPC   C1A38885  11.886  11.529   4.519 -0.1163  0.2143 -0.1837
 3208POPC   D2A38886  11.852  11.561   5.015 -0.0616  0.0074  0.0700
 3208POPC   C3A38887  11.590  11.231   5.205 -0.1226 -0.1080  0.2425
 3208POPC   C4A38888  11.507  11.068   5.589 -0.2863 -0.2399 -0.2256
 3208POPC   C1B38889  11.425  11.555   4.304 -0.0130 -0.1669 -0.2069
 3208POPC   C2B38890  11.360  11.626   4.771  0.0166  0.1032 -0.1570
 3208POPC   C3B38891  11.489  11.792   5.192  0.1758 -0.3233 -0.2956
 3208POPC   C4B38892  11.820  12.113   5.435 -0.0377  0.4698  0.1098
 3209POPC   NC338893   6.706  13.986   3.648  0.1243  0.1268 -0.0678
 3209POPC   PO438894   6.737  13.656   3.871  0.0809  0.3136  0.1152
 3209POPC   GL138895   6.871  13.850   4.233  0.2145 -0.1358 -0.1432
 3209POPC   GL238896   6.736  14.124   4.189  0.1201  0.0036 -0.2924
 3209POPC   C1A38897   6.663  13.825   4.673  0.1581 -0.1559  0.4071
 3209POPC   D2A38898   6.515  13.746   5.072 -0.2306  0.1746 -0.3524
 3209POPC   C3A38899   6.533  13.829   5.505 -0.1901 -0.2547 -0.1115
 3209POPC   C4A38900   6.870  13.837   5.763  0.1325 -0.0002  0.3026
 3209POPC   C1B38901   6.821  14.327   4.611 -0.2163 -0.2962 -0.2055
 3209POPC   C2B38902   6.908  14.110   4.987 -0.1251 -0.2791  0.2258
 3209POPC   C3B38903   7.200  14.077   5.353 -0.1758 -0.2800  0.1623
 3209POPC   C4B38904   7.588  13.879   5.318  0.0348 -0.1571  0.0276
 3210POPC   NC338905  10.944  12.164   3.719 -0.2586 -0.0635 -0.2043
 3210POPC   PO438906  11.257  12.315   3.596  0.0649  0.0723 -0.0291
 3210POPC   GL138907  11.370  12.388   3.940  0.0806  0.1503  0.0594
 3210POPC   GL238908  11.181  12.321   4.155  0.2193 -0.2152 -0.0794
 3210POPC   C1A38909  11.483  12.727   4.268  0.1541  0.0260  0.1879
 3210POPC   D2A38910  11.789  12.996   4.479  0.2780 -0.0671 -0.0674
 3210POPC   C3A38911  12.007  12.977   4.851  0.2037 -0.2145 -0.0281
 3210POPC   C4A38912  12.089  13.247   5.280  0.1538  0.1545 -0.0897
 3210POPC   C1B38913  11.158  12.161   4.538 -0.2538  0.1695 -0.1061
 3210POPC   C2B38914  11.130  12.110   5.019  0.0087  0.2463  0.0530
 3210POPC   C3B38915  10.863  12.339   5.337 -0.0587 -0.0815 -0.3793
 3210POPC   C4B38916  10.592  12.240   5.730 -0.1630  0.2865  0.1624
 3211POPC   NC338917  12.452   5.605   3.292 -0.1529  0.0582 -0.2882
 3211POPC   PO438918  12.128   5.528   3.518 -0.0455  0.0241 -0.1930
 3211POPC   GL138919  12.158   5.289   3.826 -0.0581  0.1171  0.0113
 3211POPC   GL238920  12.167   5.521   4.030 -0.2066  0.0312  0.2742
 3211POPC   C1A38921  11.853   5.145   4.172 -0.3418 -0.0487  0.0783
 3211POPC   D2A38922  11.483   4.990   4.394  0.1114 -0.3777 -0.2397
 3211POPC   C3A38923  11.363   4.765   4.806 -0.1596 -0.0905 -0.1039
 3211POPC   C4A38924  11.353   4.486   5.156 -0.0564  0.1123 -0.2158
 3211POPC   C1B38925  11.873   5.662   4.379  0.3409 -0.0028 -0.1555
 3211POPC   C2B38926  11.765   5.795   4.841  0.0123  0.0291 -0.2834
 3211POPC   C3B38927  11.632   5.964   5.223 -0.0369 -0.0816 -0.0509
 3211POPC   C4B38928  11.415   5.963   5.689  0.0817  0.0968 -0.3226
 3212POPC   NC338929   5.922   2.447   3.998  0.1963  0.0202 -0.0659
 3212POPC   PO438930   6.278   2.619   3.944  0.0388 -0.2962  0.1705
 3212POPC   GL138931   6.571   2.469   4.174  0.3108 -0.4948 -0.1701
 3212POPC   GL238932   6.576   2.129   4.145 -0.3734 -0.1111  0.1054
 3212POPC   C1A38933   6.493   2.345   4.586  0.0358  0.0389  0.3242
 3212POPC   D2A38934   6.636   2.097   4.890 -0.0270 -0.0538  0.0901
 3212POPC   C3A38935   6.452   2.155   5.255  0.3527  0.3845  0.0077
 3212POPC   C4A38936   6.128   2.155   5.587 -0.1358 -0.0756  0.0328
 3212POPC   C1B38937   6.406   1.872   4.439 -0.0963  0.1115  0.0096
 3212POPC   C2B38938   6.340   1.694   4.883 -0.1289 -0.1269 -0.1300
 3212POPC   C3B38939   6.366   1.593   5.332  0.2536  0.1933  0.1723
 3212POPC   C4B38940   6.257   1.701   5.749 -0.2168  0.2898  0.0132
 3213POPC   NC338941  11.802  15.027   3.432 -0.1149  0.3029 -0.2514
 3213POPC   PO438942  11.912  15.217   3.775  0.0234  0.0896 -0.0537
 3213POPC   GL138943  11.874  15.366   4.186  0.0472  0.1428 -0.1396
 3213POPC   GL238944  11.694  15.576   4.312 -0.1377  0.0195  0.1071
 3213POPC   C1A38945  11.884  15.143   4.606  0.0987  0.0655  0.0636
 3213POPC   D2A38946  11.609  14.968   4.897 -0.3503  0.2286  0.0114
 3213POPC   C3A38947  11.407  14.603   4.817  0.1934  0.2371  0.1150
 3213POPC   C4A38948  11.356  14.272   4.535 -0.0897 -0.1985  0.2490
 3213POPC   C1B38949  11.587  15.985   4.511 -0.2061  0.0039  0.1351
 3213POPC   C2B38950  11.576  16.382   4.779  0.1249  0.1492  0.2087
 3213POPC   C3B38951  11.542  16.391   5.245  0.0641 -0.0419 -0.1872
 3213POPC   C4B38952  11.181  16.217   5.537 -0.2355 -0.0495  0.3935
 3214POPC   NC338953  13.800   0.941   3.365 -0.0026 -0.0760 -0.0757
 3214POPC   PO438954  13.953   0.579   3.388  0.0142 -0.1813  0.0066
 3214POPC   GL138955  14.112   0.322   3.680 -0.1020  0.4642 -0.3727
 3214POPC   GL238956  14.016   0.063   3.765  0.0632 -0.1401  0.0907
 3214POPC   C1A38957  14.112   0.410   4.157 -0.1263 -0.1507  0.0970
 3214POPC   D2A38958  13.849   0.618   4.444  0.2422  0.1134  0.1578
 3214POPC   C3A38959  13.868   0.360   4.904  0.1570 -0.0061  0.0860
 3214POPC   C4A38960  14.048   0.033   5.198 -0.0642 -0.1532  0.0167
 3214POPC   C1B38961  14.100  -0.084   4.195 -0.1277  0.0375  0.1345
 3214POPC   C2B38962  13.979  -0.157   4.626 -0.1924 -0.1183  0.1113
 3214POPC   C3B38963  13.689  -0.291   4.943 -0.1692 -0.0384 -0.0010
 3214POPC   C4B38964  13.703  -0.436   5.388 -0.2694  0.0863 -0.1357
 3215POPC   NC338965   4.347  28.886   3.503  0.1233 -0.0608 -0.0263
 3215POPC   PO438966   4.104  28.860   3.812 -0.2654 -0.1288  0.0091
 3215POPC   GL138967   4.069  28.840   4.218  0.0176  0.1954  0.3395
 3215POPC   GL238968   4.071  28.565   4.296 -0.2974 -0.1668 -0.4580
 3215POPC   C1A38969   3.888  29.177   4.469  0.2058 -0.1092 -0.0844
 3215POPC   D2A38970   3.553  29.312   4.750 -0.1514  0.0914  0.0011
 3215POPC   C3A38971   3.384  29.517   5.167 -0.0958  0.0688 -0.4503
 3215POPC   C4A38972   3.334  29.575   5.650 -0.0024 -0.0114  0.3918
 3215POPC   C1B38973   4.204  28.857   4.666 -0.3565 -0.1290  0.2304
 3215POPC   C2B38974   4.086  29.236   4.956  0.0932  0.0735  0.0383
 3215POPC   C3B38975   3.880  29.491   5.315  0.4681 -0.4411 -0.1199
 3215POPC   C4B38976   3.999  29.785   5.652 -0.1806 -0.1498  0.2021
 3216POPC   NC338977  14.298   7.761   3.665  0.2706  0.0299 -0.0695
 3216POPC   PO438978  13.920   7.679   3.792 -0.0594 -0.0159 -0.2263
 3216POPC   GL138979  13.869   7.604   4.206  0.1083  0.0838  0.0242
 3216POPC   GL238980  13.879   7.337   4.202 -0.0464  0.1707 -0.2669
 3216POPC   C1A38981  13.487   7.626   4.564  0.1506 -0.0575  0.1839
 3216POPC   D2A38982  13.197   7.771   4.936 -0.1656 -0.0347  0.2467
 3216POPC   C3A38983  13.284   8.036   5.297 -0.3160 -0.0282  0.2603
 3216POPC   C4A38984  13.427   8.264   5.671  0.1176  0.2725 -0.1362
 3216POPC   C1B38985  14.037   7.566   4.632 -0.2579  0.0929  0.2149
 3216POPC   C2B38986  14.047   7.645   5.096 -0.0094 -0.1637 -0.2349
 3216POPC   C3B38987  14.314   7.410   5.403 -0.1886  0.0116  0.1167
 3216POPC   C4B38988  14.343   7.278   5.840  0.3841 -0.2908  0.2109
 3217POPC   NC338989   9.123  17.160   3.868  0.0663 -0.1344 -0.1061
 3217POPC   PO438990   8.840  16.917   3.998  0.0444  0.2675 -0.3745
 3217POPC   GL138991   8.621  16.668   4.303  0.1841 -0.3533  0.3206
 3217POPC   GL238992   8.722  16.889   4.514  0.0733  0.4786  0.2553
 3217POPC   C1A38993   8.360  16.515   4.667 -0.0614 -0.0217  0.0499
 3217POPC   D2A38994   8.418  16.585   5.128  0.0471 -0.0330  0.3524
 3217POPC   C3A38995   8.366  16.255   5.402  0.1349 -0.1039  0.0997
 3217POPC   C4A38996   8.678  15.925   5.576  0.1179  0.0580 -0.1043
 3217POPC   C1B38997   8.784  17.140   4.869 -0.2900 -0.0196  0.1543
 3217POPC   C2B38998   8.703  17.300   5.315 -0.0684  0.1419  0.2816
 3217POPC   C3B38999   8.463  17.491   5.625  0.1156  0.1941 -0.1794
 3217POPC   C4B39000   8.041  17.706   5.551 -0.1843 -0.1937 -0.2816
 3218POPC   NC339001   4.782   5.217   3.732  0.0821  0.0945  0.2799
 3218POPC   PO439002   5.178   5.153   3.778  0.3339  0.2408 -0.0989
 3218POPC   GL139003   5.156   5.328   4.139 -0.1568  0.1149  0.3396
 3218POPC   GL239004   4.857   5.314   4.230 -0.1965  0.1236  0.1274
 3218POPC   C1A39005   5.443   5.435   4.470 -0.1074 -0.3338 -0.1312
 3218POPC   D2A39006   5.598   5.442   4.927 -0.0429  0.1339 -0.1200
 3218POPC   C3A39007   5.493   5.507   5.314  0.1366 -0.0871  0.0893
 3218POPC   C4A39008   5.393   5.832   5.559  0.1130  0.3558 -0.2256
 3218POPC   C1B39009   4.434   5.408   4.431 -0.1188 -0.0980 -0.1178
 3218POPC   C2B39010   4.248   5.636   4.775 -0.2019 -0.1017  0.0541
 3218POPC   C3B39011   4.115   5.845   5.146  0.0638 -0.1623 -0.1237
 3218POPC   C4B39012   3.901   5.856   5.540  0.0569 -0.2407 -0.1518
 3219POPC   NC339013  11.613   9.073   4.203 -0.1930 -0.0683 -0.1127
 3219POPC   PO439014  11.475   8.975   3.818 -0.4503  0.0473 -0.1992
 3219POPC   GL139015  11.181   9.066   4.064  0.1143 -0.1599 -0.0514
 3219POPC   GL239016  11.076   8.813   4.092  0.0830 -0.2353 -0.2377
 3219POPC   C1A39017  11.219   9.018   4.519  0.0981 -0.0008  0.0562
 3219POPC   D2A39018  11.300   9.079   4.972 -0.1938 -0.0153  0.0892
 3219POPC   C3A39019  11.335   8.812   5.334 -0.0017 -0.1162 -0.1941
 3219POPC   C4A39020  11.352   8.358   5.564 -0.0690 -0.0196 -0.2301
 3219POPC   C1B39021  10.710   8.696   4.343 -0.6248 -0.0109  0.0378
 3219POPC   C2B39022  10.450   8.815   4.697  0.0543 -0.2373 -0.1216
 3219POPC   C3B39023  10.307   9.091   5.095 -0.1382  0.1701 -0.0402
 3219POPC   C4B39024  10.110   9.518   5.296  0.1245  0.0653  0.2751
 3220POPC   NC339025   0.435   0.739   3.853  0.1361 -0.1880  0.0932
 3220POPC   PO439026   0.053   0.591   3.837 -0.0079 -0.1660 -0.0664
 3220POPC   GL139027   0.036   0.880   4.089 -0.0363 -0.0591  0.0246
 3220POPC   GL239028  -0.138   1.129   4.166  0.1487 -0.3277 -0.1156
 3220POPC   C1A39029   0.362   0.770   4.439 -0.0008 -0.4006  0.0897
 3220POPC   D2A39030   0.507   0.534   4.777 -0.0664  0.0265  0.2298
 3220POPC   C3A39031   0.661   0.656   5.209 -0.2384  0.1041 -0.0278
 3220POPC   C4A39032   0.690   0.956   5.551 -0.0603  0.2237 -0.0051
 3220POPC   C1B39033  -0.084   1.131   4.614 -0.1827  0.1560  0.0078
 3220POPC   C2B39034  -0.040   1.206   5.066 -0.1628  0.2036  0.2073
 3220POPC   C3B39035   0.052   1.377   5.482 -0.0030  0.1407 -0.2418
 3220POPC   C4B39036   0.310   1.290   5.842  0.0312  0.1914  0.0330
 3221POPC   NC339037  11.611  30.497   3.533 -0.0812  0.2948 -0.2709
 3221POPC   PO439038  11.782  30.124   3.595 -0.2529  0.3305 -0.1424
 3221POPC   GL139039  12.049  30.009   3.895  0.0783 -0.2015 -0.4879
 3221POPC   GL239040  12.157  29.718   3.790 -0.1232 -0.3207  0.1881
 3221POPC   C1A39041  12.003  29.876   4.337  0.2627 -0.1512  0.3426
 3221POPC   D2A39042  12.047  29.703   4.763 -0.1826 -0.2598 -0.0006
 3221POPC   C3A39043  12.315  29.971   5.051 -0.1980 -0.1559  0.3140
 3221POPC   C4A39044  12.251  30.364   5.309 -0.0245 -0.1312 -0.0260
 3221POPC   C1B39045  12.139  29.452   4.150  0.2766  0.1485  0.1002
 3221POPC   C2B39046  12.098  29.133   4.550 -0.0140 -0.0284  0.0343
 3221POPC   C3B39047  11.932  29.043   4.940 -0.0090 -0.0171 -0.2067
 3221POPC   C4B39048  11.774  28.979   5.346  0.1224  0.1052  0.1035
 3222POPC   NC339049   9.892   8.243   3.653  0.1236 -0.1085  0.1965
 3222POPC   PO439050  10.003   7.899   3.695  0.0912  0.2413  0.1061
 3222POPC   GL139051  10.009   7.827   4.042  0.0420  0.1183 -0.1469
 3222POPC   GL239052   9.964   8.071   4.177  0.1023 -0.1050 -0.1039
 3222POPC   C1A39053  10.155   7.459   4.264  0.0699 -0.1863 -0.0669
 3222POPC   D2A39054  10.405   7.376   4.655 -0.1180  0.2293 -0.1220
 3222POPC   C3A39055  10.321   7.234   5.047  0.1823  0.0668  0.0594
 3222POPC   C4A39056  10.363   7.465   5.442 -0.3558 -0.0394 -0.0211
 3222POPC   C1B39057   9.928   8.076   4.579  0.1517 -0.3447  0.0574
 3222POPC   C2B39058   9.885   8.296   4.964  0.1081  0.1936  0.3136
 3222POPC   C3B39059  10.038   8.340   5.391 -0.0187  0.1139 -0.1293
 3222POPC   C4B39060  10.172   8.270   5.823  0.1206 -0.3064 -0.0409
 3223POPC   NC339061  15.145   0.514   3.885  0.1348  0.3369  0.0221
 3223POPC   PO439062  14.983   0.359   3.520 -0.2598 -0.0703  0.1457
 3223POPC   GL139063  15.263   0.090   3.740 -0.3259 -0.3184 -0.0773
 3223POPC   GL239064  15.040  -0.114   3.824 -0.4738 -0.2406  0.0466
 3223POPC   C1A39065  15.470  -0.032   4.146  0.0442 -0.0300  0.0588
 3223POPC   D2A39066  15.832   0.165   4.295  0.3486  0.2132  0.0964
 3223POPC   C3A39067  15.799   0.209   4.764 -0.0668  0.0577  0.1691
 3223POPC   C4A39068  15.633   0.467   5.150 -0.2259  0.3057  0.0954
 3223POPC   C1B39069  14.973   0.127   4.184 -0.1203  0.0247  0.1815
 3223POPC   C2B39070  14.612   0.212   4.432 -0.1210 -0.0641  0.1188
 3223POPC   C3B39071  14.303   0.507   4.753  0.1208  0.2789 -0.1051
 3223POPC   C4B39072  14.184   0.714   5.109 -0.0048 -0.0167 -0.4993
 3224POPC   NC339073   9.812   6.474   3.817  0.1214 -0.2500  0.4869
 3224POPC   PO439074   9.536   6.424   3.580  0.0383  0.1346  0.0208
 3224POPC   GL139075   9.409   6.325   3.915  0.2031  0.1829  0.3488
 3224POPC   GL239076   9.243   6.182   4.041 -0.2567 -0.0261  0.1213
 3224POPC   C1A39077   9.656   6.471   4.295  0.2334  0.0789  0.2551
 3224POPC   D2A39078   9.573   6.732   4.652 -0.3951 -0.0273  0.0320
 3224POPC   C3A39079   9.298   6.766   5.000  0.2328 -0.3055 -0.4202
 3224POPC   C4A39080   9.047   7.101   5.177 -0.0799 -0.2342  0.0320
 3224POPC   C1B39081   9.143   6.576   4.282 -0.1740  0.0606  0.1021
 3224POPC   C2B39082   9.035   6.503   4.689  0.2048  0.0595 -0.0893
 3224POPC   C3B39083   8.959   6.088   4.990 -0.1000  0.2685  0.3226
 3224POPC   C4B39084   8.836   5.765   5.290 -0.1347 -0.2716 -0.0884
 3225POPC   NC339085  11.802  27.742   3.808 -0.3481 -0.0856  0.0323
 3225POPC   PO439086  11.452  27.861   3.711  0.2354  0.1194 -0.2982
 3225POPC   GL139087  11.358  28.138   4.086 -0.3939 -0.0971 -0.2309
 3225POPC   GL239088  11.591  28.058   4.128  0.1224 -0.3287 -0.0780
 3225POPC   C1A39089  11.425  28.415   4.488  0.0056  0.3025  0.0672
 3225POPC   D2A39090  11.421  28.455   4.901  0.2435 -0.2135  0.1940
 3225POPC   C3A39091  11.769  28.540   5.174  0.0695 -0.0001 -0.0359
 3225POPC   C4A39092  11.995  28.645   5.597  0.4868 -0.2603  0.0761
 3225POPC   C1B39093  11.893  28.137   4.489 -0.1335  0.0224  0.0396
 3225POPC   C2B39094  12.031  28.213   4.899 -0.3406  0.2447  0.0510
 3225POPC   C3B39095  12.316  28.464   5.252 -0.0212 -0.0132 -0.1789
 3225POPC   C4B39096  12.540  28.263   5.569  0.1413  0.0965 -0.2081
 3226POPC   NC339097  13.721  26.661   3.096  0.3825  0.0025  0.1286
 3226POPC   PO439098  13.860  26.569   3.488 -0.2801  0.0019  0.0050
 3226POPC   GL139099  13.873  26.735   3.851  0.0621 -0.0856 -0.0266
 3226POPC   GL239100  13.739  26.558   3.980  0.0914 -0.2950  0.2336
 3226POPC   C1A39101  13.885  27.027   4.213 -0.0084 -0.1670  0.1329
 3226POPC   D2A39102  14.227  27.099   4.569 -0.2162 -0.1047  0.1291
 3226POPC   C3A39103  14.108  27.025   4.990  0.3981  0.2615 -0.0043
 3226POPC   C4A39104  14.190  27.146   5.463  0.1348  0.0439 -0.0178
 3226POPC   C1B39105  13.968  26.464   4.376  0.0374 -0.2327  0.0719
 3226POPC   C2B39106  13.968  26.596   4.842 -0.1099 -0.1578  0.1013
 3226POPC   C3B39107  13.830  26.731   5.269 -0.1327 -0.0532  0.0211
 3226POPC   C4B39108  13.424  26.622   5.491  0.0820  0.1126 -0.1994
 3227POPC   NC339109  10.597  21.412   3.128 -0.1888 -0.2756 -0.0878
 3227POPC   PO439110  10.896  21.666   3.158  0.1910  0.1608  0.0901
 3227POPC   GL139111  10.957  21.690   3.562 -0.2028  0.1698 -0.2418
 3227POPC   GL239112  10.722  21.508   3.674 -0.2403 -0.2101  0.0598
 3227POPC   C1A39113  11.036  21.678   3.978 -0.0770 -0.0326 -0.2297
 3227POPC   D2A39114  10.894  21.539   4.381 -0.0225  0.3079 -0.2370
 3227POPC   C3A39115  10.879  21.756   4.804 -0.4601  0.2047  0.1449
 3227POPC   C4A39116  10.814  21.941   5.205 -0.0835 -0.0595 -0.0280
 3227POPC   C1B39117  10.404  21.504   4.064 -0.1561  0.2393 -0.2413
 3227POPC   C2B39118  10.405  21.544   4.522 -0.1575 -0.0238 -0.0753
 3227POPC   C3B39119  10.495  21.404   4.930 -0.2438  0.2929  0.0115
 3227POPC   C4B39120  10.756  21.399   5.317  0.1408 -0.0074  0.2117
 3228POPC   NC339121   0.988  16.305   3.363  0.1861 -0.2219  0.0701
 3228POPC   PO439122   1.045  16.096   3.725  0.1931  0.0705 -0.0269
 3228POPC   GL139123   0.983  15.961   4.073  0.0127 -0.0125  0.1320
 3228POPC   GL239124   0.669  16.006   4.044 -0.2848 -0.4377 -0.2909
 3228POPC   C1A39125   1.033  15.904   4.520  0.1930  0.1337 -0.0846
 3228POPC   D2A39126   1.181  15.819   4.931  0.0948  0.0011 -0.0105
 3228POPC   C3A39127   1.136  16.031   5.341  0.0825  0.2498 -0.1861
 3228POPC   C4A39128   1.069  16.315   5.713  0.1004 -0.0610  0.0730
 3228POPC   C1B39129   0.640  16.257   4.448 -0.1766  0.1456 -0.0009
 3228POPC   C2B39130   0.675  16.074   4.921 -0.1801 -0.3042  0.0988
 3228POPC   C3B39131   0.561  16.057   5.372 -0.2805  0.0520 -0.1461
 3228POPC   C4B39132   0.628  15.868   5.804  0.2185 -0.2350  0.1291
 3229POPC   NC339133   5.745  27.053   3.808  0.1457  0.1193  0.0058
 3229POPC   PO439134   5.895  27.395   3.672  0.0155 -0.2428 -0.1724
 3229POPC   GL139135   5.753  27.449   4.076  0.3531 -0.2073  0.0715
 3229POPC   GL239136   5.455  27.361   4.027 -0.0604 -0.0625  0.1247
 3229POPC   C1A39137   5.946  27.318   4.459 -0.0304 -0.0106 -0.2227
 3229POPC   D2A39138   6.190  27.050   4.836 -0.1523  0.1120 -0.1017
 3229POPC   C3A39139   6.081  27.292   5.251 -0.2430 -0.2823  0.0331
 3229POPC   C4A39140   6.061  27.241   5.691 -0.0123  0.3083 -0.0883
 3229POPC   C1B39141   5.412  27.375   4.515 -0.2195 -0.1229 -0.2404
 3229POPC   C2B39142   5.649  27.336   4.937 -0.3792 -0.1625  0.0037
 3229POPC   C3B39143   5.638  27.369   5.410  0.2228  0.1262  0.2293
 3229POPC   C4B39144   5.564  27.375   5.926  0.1327 -0.1990 -0.2389
 3230POPC   NC339145  12.016  22.924   3.667 -0.0052 -0.0501 -0.0956
 3230POPC   PO439146  11.796  22.637   3.512 -0.0424 -0.1470  0.0778
 3230POPC   GL139147  12.171  22.455   3.554 -0.2877  0.0443 -0.3584
 3230POPC   GL239148  12.356  22.515   3.768  0.2715  0.0680 -0.2664
 3230POPC   C1A39149  12.107  22.083   3.873  0.0120 -0.0118  0.2963
 3230POPC   D2A39150  11.972  21.976   4.290 -0.2331  0.1471 -0.2857
 3230POPC   C3A39151  12.272  21.851   4.550 -0.5343  0.0856 -0.0778
 3230POPC   C4A39152  12.204  21.606   4.915 -0.3228  0.3074  0.1309
 3230POPC   C1B39153  12.357  22.347   4.190  0.1613  0.0555  0.1049
 3230POPC   C2B39154  12.246  22.372   4.621  0.2220 -0.1451  0.0827
 3230POPC   C3B39155  12.107  22.688   4.917  0.0416 -0.2467  0.0811
 3230POPC   C4B39156  12.097  23.011   5.186 -0.1392 -0.0812  0.0988
 3231POPC   NC339157  10.697  14.957   3.893  0.1964  0.3033 -0.1577
 3231POPC   PO439158  10.919  15.239   3.903  0.0620 -0.1430 -0.3102
 3231POPC   GL139159  10.490  15.339   4.079 -0.1886  0.1366 -0.0575
 3231POPC   GL239160  10.589  15.526   4.194  0.1281  0.0329  0.1297
 3231POPC   C1A39161  10.191  15.319   4.463 -0.1531 -0.0984 -0.1518
 3231POPC   D2A39162   9.929  15.099   4.804  0.2131 -0.1245  0.0026
 3231POPC   C3A39163   9.901  15.228   5.243 -0.1617 -0.0073 -0.2586
 3231POPC   C4A39164  10.307  15.095   5.507  0.1188 -0.4374  0.2355
 3231POPC   C1B39165  10.574  15.653   4.663  0.0448 -0.1139 -0.2891
 3231POPC   C2B39166  10.756  15.873   5.067 -0.0016  0.1565 -0.0545
 3231POPC   C3B39167  10.595  15.836   5.509 -0.0304 -0.0935  0.1915
 3231POPC   C4B39168  10.290  15.669   5.788 -0.0784 -0.3813 -0.1998
 3232POPC   NC339169  12.241  17.989   3.760  0.1056 -0.1252 -0.4545
 3232POPC   PO439170  11.999  17.683   3.823 -0.2310  0.0522 -0.0385
 3232POPC   GL139171  11.756  17.563   4.053 -0.0110  0.0119  0.1036
 3232POPC   GL239172  11.602  17.796   4.132 -0.1329  0.1485  0.2275
 3232POPC   C1A39173  11.611  17.416   4.469 -0.1556 -0.1371  0.0314
 3232POPC   D2A39174  11.728  17.342   4.905  0.1696  0.0945 -0.0096
 3232POPC   C3A39175  11.621  17.168   5.302  0.1279  0.1877 -0.1048
 3232POPC   C4A39176  11.447  16.855   5.623  0.2297 -0.2429  0.1313
 3232POPC   C1B39177  11.645  18.032   4.534  0.1322 -0.1048 -0.0838
 3232POPC   C2B39178  11.631  18.306   4.929 -0.0925  0.2540 -0.3009
 3232POPC   C3B39179  11.874  18.459   5.314 -0.0078 -0.2287  0.1218
 3232POPC   C4B39180  12.134  18.671   5.629 -0.1262  0.0646 -0.1020
 3233POPC   NC339181   9.312  26.841   3.728 -0.2170  0.0507 -0.0887
 3233POPC   PO439182   9.504  26.729   4.026  0.1526  0.3805  0.1764
 3233POPC   GL139183   9.484  26.643   4.331 -0.0861  0.0998 -0.2438
 3233POPC   GL239184   9.574  26.348   4.355 -0.0233  0.1297  0.0895
 3233POPC   C1A39185   9.775  26.787   4.643 -0.2896  0.0102 -0.0363
 3233POPC   D2A39186   9.839  26.799   5.119  0.2349 -0.1934 -0.0301
 3233POPC   C3A39187   9.869  26.585   5.537 -0.0001 -0.1930  0.0664
 3233POPC   C4A39188   9.634  26.602   5.916  0.3159 -0.0527  0.1178
 3233POPC   C1B39189   9.419  26.404   4.764 -0.2578 -0.6085 -0.0827
 3233POPC   C2B39190   9.358  26.687   5.179 -0.2673 -0.0914  0.2825
 3233POPC   C3B39191   9.194  26.839   5.579  0.0034  0.2262 -0.1234
 3233POPC   C4B39192   8.906  26.831   5.916  0.1906 -0.1511 -0.2627
 3234POPC   NC339193  14.080   2.346   3.753  0.1546 -0.1117 -0.3819
 3234POPC   PO439194  14.333   2.654   3.760  0.0447  0.1298 -0.1852
 3234POPC   GL139195  14.234   2.645   4.152 -0.4694  0.1186 -0.0077
 3234POPC   GL239196  14.350   2.362   4.172  0.0139 -0.2727 -0.1364
 3234POPC   C1A39197  13.898   2.897   4.332 -0.2321  0.2355  0.1390
 3234POPC   D2A39198  14.023   2.898   4.763 -0.1575 -0.1410 -0.1758
 3234POPC   C3A39199  13.849   3.105   5.213  0.0581  0.0014  0.1156
 3234POPC   C4A39200  13.926   3.224   5.673 -0.0438 -0.1486 -0.1644
 3234POPC   C1B39201  14.281   1.989   4.522  0.0102 -0.0435  0.0647
 3234POPC   C2B39202  14.417   1.798   4.956 -0.2408  0.0891 -0.0421
 3234POPC   C3B39203  14.633   1.748   5.396  0.3338 -0.1260 -0.1025
 3234POPC   C4B39204  14.832   1.861   5.799  0.0143  0.1157 -0.1351
 3235POPC   NC339205   7.342  25.904   3.578  0.3403  0.0085 -0.1830
 3235POPC   PO439206   7.278  26.137   3.898  0.0095  0.0197  0.0834
 3235POPC   GL139207   7.153  26.171   4.261  0.2098 -0.0387  0.1358
 3235POPC   GL239208   6.908  26.279   4.405 -0.0479 -0.1235 -0.0854
 3235POPC   C1A39209   7.429  26.208   4.627 -0.1504  0.0855  0.2058
 3235POPC   D2A39210   7.280  26.218   5.087  0.1539 -0.3676 -0.4469
 3235POPC   C3A39211   7.443  26.642   5.185  0.0315  0.2537 -0.2532
 3235POPC   C4A39212   7.564  27.031   5.408  0.1228 -0.0317 -0.1980
 3235POPC   C1B39213   6.791  26.098   4.801 -0.2991 -0.1147  0.0687
 3235POPC   C2B39214   6.866  25.941   5.206  0.0292  0.0319  0.0344
 3235POPC   C3B39215   6.899  26.147   5.641 -0.0445 -0.2224 -0.0047
 3235POPC   C4B39216   6.984  26.505   5.957  0.2636  0.1222 -0.1834
 3236POPC   NC339217   1.316  31.031   3.721  0.0006  0.0154  0.0803
 3236POPC   PO439218   1.259  30.898   4.092 -0.0363 -0.2654  0.0917
 3236POPC   GL139219   1.094  30.688   4.326 -0.0920  0.0307  0.0132
 3236POPC   GL239220   0.831  30.636   4.241  0.0732 -0.2137  0.0084
 3236POPC   C1A39221   0.967  30.394   4.677  0.0820  0.1404 -0.1360
 3236POPC   D2A39222   1.084  30.219   5.066 -0.0875 -0.2796  0.0961
 3236POPC   C3A39223   0.824  30.369   5.415  0.2464  0.0685 -0.1723
 3236POPC   C4A39224   0.689  30.547   5.819 -0.3658 -0.2059  0.0258
 3236POPC   C1B39225   0.558  30.536   4.514  0.1573  0.3541  0.0335
 3236POPC   C2B39226   0.496  30.533   4.990  0.1090  0.1061 -0.3839
 3236POPC   C3B39227   0.293  30.618   5.423 -0.2504  0.2173 -0.0345
 3236POPC   C4B39228   0.138  30.507   5.848  0.1903  0.3371  0.2029
 3237POPC   NC339229   2.215  30.863   3.703 -0.0554 -0.0420 -0.0803
 3237POPC   PO439230   2.184  31.220   3.847  0.1624  0.0253 -0.0092
 3237POPC   GL139231   2.171  30.985   4.162  0.0095 -0.0021 -0.1880
 3237POPC   GL239232   2.106  30.765   4.340  0.3227 -0.0250 -0.0221
 3237POPC   C1A39233   2.569  30.929   4.438  0.1814  0.2146 -0.2179
 3237POPC   D2A39234   3.017  31.022   4.436 -0.0495 -0.0203  0.0421
 3237POPC   C3A39235   3.289  30.683   4.332  0.0106  0.4636  0.0802
 3237POPC   C4A39236   3.424  30.226   4.554 -0.0138 -0.1366 -0.0083
 3237POPC   C1B39237   1.843  30.623   4.649  0.3799 -0.5474 -0.1270
 3237POPC   C2B39238   1.854  30.759   5.093  0.2129 -0.1429 -0.0095
 3237POPC   C3B39239   1.805  30.762   5.548  0.1076  0.3830  0.1385
 3237POPC   C4B39240   1.518  30.958   5.882 -0.2516  0.3091 -0.2150
 3238POPC   NC339241   1.928  19.837   4.036  0.0020  0.1136 -0.0911
 3238POPC   PO439242   1.635  19.564   4.119  0.0663  0.3267  0.2756
 3238POPC   GL139243   1.822  19.425   4.431  0.3885  0.1337  0.0943
 3238POPC   GL239244   2.069  19.461   4.567 -0.0662  0.0478  0.0212
 3238POPC   C1A39245   1.718  19.136   4.769 -0.0183 -0.0987 -0.2066
 3238POPC   D2A39246   1.727  19.120   5.239  0.2088 -0.1499  0.1421
 3238POPC   C3A39247   1.355  19.286   5.521  0.0801 -0.0236 -0.1816
 3238POPC   C4A39248   1.356  19.351   6.000 -0.4063 -0.0345 -0.0839
 3238POPC   C1B39249   2.108  19.460   5.008  0.1722  0.0098 -0.0052
 3238POPC   C2B39250   2.137  19.358   5.495  0.3437 -0.2417 -0.1263
 3238POPC   C3B39251   2.496  19.427   5.744  0.1654 -0.0622 -0.2456
 3238POPC   C4B39252   2.647  19.043   5.972 -0.0324  0.3338  0.0862
 3239POPC   NC339253   8.998  15.833   3.791 -0.2198 -0.1933 -0.0540
 3239POPC   PO439254   9.175  16.148   3.639 -0.5868 -0.2241  0.2000
 3239POPC   GL139255   9.117  16.338   3.966  0.0084  0.0470  0.0985
 3239POPC   GL239256   8.800  16.369   3.952  0.0750 -0.1351  0.2627
 3239POPC   C1A39257   8.974  16.431   4.422 -0.1468 -0.1581  0.1691
 3239POPC   D2A39258   8.842  16.544   4.896 -0.0389 -0.0441  0.1710
 3239POPC   C3A39259   8.878  16.829   5.244 -0.4156  0.3908  0.1554
 3239POPC   C4A39260   9.191  16.839   5.656  0.1765  0.0756  0.0102
 3239POPC   C1B39261   8.393  16.270   4.203 -0.0727  0.2337 -0.1575
 3239POPC   C2B39262   8.029  16.241   4.456  0.1408 -0.1497  0.5934
 3239POPC   C3B39263   7.918  16.312   4.906  0.1896  0.3431 -0.0670
 3239POPC   C4B39264   7.836  16.287   5.347  0.0400 -0.0362 -0.2185
 3240POPC   NC339265  15.411   5.918   3.592 -0.1945  0.3372 -0.0382
 3240POPC   PO439266  15.793   5.982   3.628  0.1973 -0.4523  0.0586
 3240POPC   GL139267  15.746   5.803   3.989  0.2289  0.0677  0.0006
 3240POPC   GL239268  15.727   6.096   4.130 -0.0312  0.2781 -0.1097
 3240POPC   C1A39269  15.832   5.684   4.414 -0.0559  0.2289  0.0750
 3240POPC   D2A39270  15.778   5.645   4.880  0.0722 -0.0937 -0.1469
 3240POPC   C3A39271  16.173   5.654   5.121 -0.1027  0.0116 -0.1255
 3240POPC   C4A39272  16.572   5.870   5.140  0.0350  0.2466 -0.0334
 3240POPC   C1B39273  15.834   6.532   4.165 -0.2425  0.0270  0.2107
 3240POPC   C2B39274  16.153   6.718   4.414  0.1275  0.0313  0.2769
 3240POPC   C3B39275  16.472   6.493   4.583  0.1760 -0.1115  0.1899
 3240POPC   C4B39276  16.540   6.308   4.987 -0.0140 -0.0713 -0.1393
 3241POPC   NC339277   8.342   8.448   3.515  0.1606 -0.1242 -0.4293
 3241POPC   PO439278   8.589   8.716   3.313  0.2604 -0.1867  0.1365
 3241POPC   GL139279   8.646   8.805   3.780  0.2906 -0.0234 -0.0504
 3241POPC   GL239280   8.789   8.577   3.806  0.0846  0.0130 -0.1529
 3241POPC   C1A39281   8.796   9.113   4.137 -0.2184  0.2471  0.1914
 3241POPC   D2A39282   9.164   9.219   4.444 -0.0879  0.0496  0.0150
 3241POPC   C3A39283   9.193   9.338   4.873 -0.1336 -0.3048 -0.4097
 3241POPC   C4A39284   9.165   9.752   5.129 -0.3226 -0.2211 -0.2102
 3241POPC   C1B39285   9.025   8.314   4.100 -0.0274 -0.0754  0.2207
 3241POPC   C2B39286   9.053   8.111   4.475  0.2729 -0.0175 -0.1100
 3241POPC   C3B39287   9.063   8.037   4.954 -0.2378 -0.0114 -0.0759
 3241POPC   C4B39288   9.064   8.100   5.417 -0.1260  0.4055 -0.4386
 3242POPC   NC339289   1.820  21.820   3.469  0.5291  0.1385  0.2106
 3242POPC   PO439290   1.528  21.709   3.730  0.2193 -0.3269 -0.1522
 3242POPC   GL139291   1.626  21.875   4.115 -0.2419  0.2429 -0.1625
 3242POPC   GL239292   1.615  22.113   4.030  0.0644  0.3629 -0.0721
 3242POPC   C1A39293   1.334  22.030   4.462 -0.0029  0.1107 -0.0845
 3242POPC   D2A39294   1.053  22.095   4.816  0.0106  0.1890  0.1377
 3242POPC   C3A39295   1.206  22.292   5.200 -0.1039  0.2665 -0.0880
 3242POPC   C4A39296   1.419  22.302   5.619 -0.0649 -0.2869  0.4108
 3242POPC   C1B39297   1.541  22.519   4.303  0.0925  0.0598 -0.0781
 3242POPC   C2B39298   1.679  22.896   4.548  0.0276  0.1957 -0.0657
 3242POPC   C3B39299   1.922  23.046   4.926 -0.2425 -0.1594 -0.0681
 3242POPC   C4B39300   1.991  23.227   5.366  0.0986 -0.3408 -0.1530
 3243POPC   NC339301   2.824  22.461   2.858  0.0714  0.1396 -0.2023
 3243POPC   PO439302   2.582  22.267   3.057  0.4147 -0.0479  0.0590
 3243POPC   GL139303   2.813  22.465   3.380 -0.1073  0.1968  0.1008
 3243POPC   GL239304   3.029  22.666   3.320 -0.0039  0.0842 -0.2530
 3243POPC   C1A39305   2.852  22.537   3.863 -0.2981 -0.4344  0.0861
 3243POPC   D2A39306   2.616  22.737   4.230  0.0848 -0.0329  0.2355
 3243POPC   C3A39307   2.658  22.709   4.676  0.2591  0.0956 -0.3902
 3243POPC   C4A39308   2.337  22.865   5.034 -0.2788 -0.0993  0.2665
 3243POPC   C1B39309   3.272  23.056   3.319 -0.2078 -0.0163 -0.3438
 3243POPC   C2B39310   3.093  23.386   3.438  0.0152  0.1701  0.1188
 3243POPC   C3B39311   2.602  23.527   3.483 -0.2032  0.2851 -0.0806
 3243POPC   C4B39312   2.287  23.819   3.613  0.2064 -0.0615  0.1292
 3244POPC   NC339313   4.748  30.247   3.081  0.0109  0.1286 -0.3493
 3244POPC   PO439314   4.818  30.472   3.359  0.0995  0.2143 -0.3205
 3244POPC   GL139315   4.888  30.698   3.708 -0.1021  0.1354 -0.2868
 3244POPC   GL239316   5.192  30.641   3.913  0.1371  0.2165  0.0243
 3244POPC   C1A39317   4.822  30.927   4.070 -0.0629 -0.1096 -0.2065
 3244POPC   D2A39318   4.692  30.855   4.481  0.2187 -0.1996  0.1188
 3244POPC   C3A39319   4.557  30.498   4.812  0.4119  0.0249 -0.0611
 3244POPC   C4A39320   4.470  30.423   5.263  0.2782 -0.0605  0.0888
 3244POPC   C1B39321   5.483  30.620   4.224  0.0365 -0.0416 -0.1170
 3244POPC   C2B39322   5.673  30.839   4.590 -0.3437 -0.1099 -0.1231
 3244POPC   C3B39323   5.966  30.944   4.941 -0.2252  0.2060  0.1699
 3244POPC   C4B39324   6.120  30.905   5.379 -0.0896 -0.1051  0.2011
 3245POPC   NC339325  12.654   1.704   4.025  0.1054  0.0318 -0.0861
 3245POPC   PO439326  12.429   1.408   3.891  0.2427 -0.1159 -0.1062
 3245POPC   GL139327  12.400   1.442   4.289 -0.1798  0.2886 -0.0225
 3245POPC   GL239328  12.336   1.132   4.365 -0.0932  0.0716 -0.0609
 3245POPC   C1A39329  12.325   1.545   4.773 -0.0035 -0.1936 -0.6056
 3245POPC   D2A39330  12.266   1.491   5.214 -0.1530 -0.1496 -0.0674
 3245POPC   C3A39331  12.203   1.853   5.498 -0.0759 -0.1059  0.2367
 3245POPC   C4A39332  12.213   2.331   5.644  0.0727  0.0609 -0.2233
 3245POPC   C1B39333  12.651   1.134   4.701  0.1792 -0.1970 -0.3891
 3245POPC   C2B39334  12.733   1.235   5.166  0.0083  0.2426 -0.2721
 3245POPC   C3B39335  12.700   1.666   5.375  0.0197 -0.0961 -0.1160
 3245POPC   C4B39336  12.650   2.079   5.531  0.1161 -0.0972 -0.3363
 3246POPC   NC339337  11.270   6.068   3.548 -0.4007  0.2085  0.1851
 3246POPC   PO439338  11.435   5.778   3.773  0.0603  0.0934  0.0240
 3246POPC   GL139339  11.616   5.895   4.069 -0.0942  0.2958 -0.0990
 3246POPC   GL239340  11.453   6.146   4.041  0.1573 -0.1347  0.0049
 3246POPC   C1A39341  11.442   6.012   4.479 -0.0814  0.0811  0.0398
 3246POPC   D2A39342  11.243   5.913   4.867 -0.0966  0.0803 -0.0531
 3246POPC   C3A39343  11.395   5.562   5.159  0.0274 -0.1790  0.1375
 3246POPC   C4A39344  11.385   5.076   5.274 -0.2625  0.2005  0.2851
 3246POPC   C1B39345  11.269   6.444   4.364 -0.1681 -0.0020 -0.1428
 3246POPC   C2B39346  11.440   6.570   4.762 -0.0211  0.1439 -0.1890
 3246POPC   C3B39347  11.839   6.747   4.854  0.1107  0.2459  0.1739
 3246POPC   C4B39348  12.199   7.033   4.902  0.0067  0.0966 -0.1092
 3247POPC   NC339349   3.360  29.620   3.540 -0.0443 -0.2912 -0.0385
 3247POPC   PO439350   3.448  30.007   3.679 -0.0011 -0.0422  0.0049
 3247POPC   GL139351   3.600  30.167   3.927 -0.2578 -0.2023  0.1094
 3247POPC   GL239352   3.596  29.987   4.162  0.0318 -0.1469 -0.1992
 3247POPC   C1A39353   3.710  30.486   4.224  0.2251 -0.1589  0.2826
 3247POPC   D2A39354   3.934  30.915   4.208  0.0665 -0.3426 -0.0062
 3247POPC   C3A39355   4.254  31.064   4.484 -0.1733 -0.1044  0.3163
 3247POPC   C4A39356   4.482  31.263   4.745 -0.1165  0.4121  0.0327
 3247POPC   C1B39357   3.931  30.068   4.558  0.2527 -0.1035  0.0331
 3247POPC   C2B39358   4.028  30.311   4.941  0.4724  0.0827  0.0655
 3247POPC   C3B39359   4.167  30.739   4.987  0.1296 -0.0518  0.0451
 3247POPC   C4B39360   4.548  30.921   5.175 -0.3743  0.2608 -0.1594
 3248POPC   NC339361   1.126   3.416   3.570  0.0696  0.0046 -0.1828
 3248POPC   PO439362   1.241   3.627   3.855  0.0407 -0.3892 -0.2324
 3248POPC   GL139363   1.128   3.883   4.113  0.1868 -0.2828 -0.1287
 3248POPC   GL239364   1.010   3.826   4.353 -0.0506 -0.1777  0.2056
 3248POPC   C1A39365   1.001   4.276   4.343  0.0989 -0.1461  0.1701
 3248POPC   D2A39366   1.001   4.425   4.785 -0.0662  0.4398  0.1097
 3248POPC   C3A39367   0.815   4.508   5.197 -0.1141 -0.0322  0.5186
 3248POPC   C4A39368   0.765   4.328   5.635  0.0062  0.0140  0.2720
 3248POPC   C1B39369   0.976   3.965   4.761 -0.2578 -0.1112 -0.0341
 3248POPC   C2B39370   1.068   3.746   5.131 -0.1269 -0.2213 -0.0188
 3248POPC   C3B39371   1.154   3.621   5.575  0.0965 -0.0425  0.0177
 3248POPC   C4B39372   1.105   3.676   5.976 -0.0105  0.0385 -0.1226
 3249POPC   NC339373  12.228  30.941   3.751 -0.0617 -0.1391 -0.0211
 3249POPC   PO439374  11.848  30.904   3.621  0.2313 -0.0549  0.2203
 3249POPC   GL139375  11.879  30.649   4.002  0.0621 -0.1226 -0.2701
 3249POPC   GL239376  12.058  30.479   3.860 -0.1820  0.0455 -0.3690
 3249POPC   C1A39377  11.574  30.632   4.354  0.0634  0.2221 -0.1692
 3249POPC   D2A39378  11.321  30.513   4.754  0.2009  0.0630  0.1694
 3249POPC   C3A39379  11.265  30.520   5.208  0.0844  0.0856 -0.0738
 3249POPC   C4A39380  11.399  30.218   5.601  0.0316 -0.2639 -0.1234
 3249POPC   C1B39381  12.029  30.345   4.284 -0.1089 -0.0735  0.1040
 3249POPC   C2B39382  11.999  30.240   4.726 -0.3755  0.1008  0.2024
 3249POPC   C3B39383  11.720  30.419   5.017 -0.2085 -0.1461  0.0796
 3249POPC   C4B39384  11.755  30.698   5.412  0.2185  0.0512 -0.2579
 3250POPC   NC339385   4.293   4.332   3.709 -0.2233  0.0901 -0.0189
 3250POPC   PO439386   4.167   4.005   3.831 -0.0666  0.0256  0.1729
 3250POPC   GL139387   4.056   4.172   4.220 -0.0876  0.2341  0.1266
 3250POPC   GL239388   3.800   4.405   4.191 -0.2354  0.0805  0.0946
 3250POPC   C1A39389   3.958   4.122   4.673 -0.0105  0.0540 -0.0105
 3250POPC   D2A39390   3.640   4.012   5.001 -0.0697 -0.0011 -0.3452
 3250POPC   C3A39391   3.632   3.851   5.408 -0.2785  0.1928  0.1886
 3250POPC   C4A39392   3.556   3.835   5.862  0.0012 -0.0234  0.0420
 3250POPC   C1B39393   3.635   4.496   4.642 -0.1201 -0.0878  0.0100
 3250POPC   C2B39394   3.576   4.535   5.111 -0.0828  0.1187  0.1205
 3250POPC   C3B39395   3.264   4.767   5.377 -0.0565 -0.1137 -0.0682
 3250POPC   C4B39396   3.440   4.878   5.819 -0.0013  0.0878  0.2417
 3251POPC   NC339397   8.431  16.689   3.869  0.0332  0.1651  0.3821
 3251POPC   PO439398   8.357  17.063   3.719  0.1845 -0.2835 -0.1013
 3251POPC   GL139399   8.340  17.040   4.114  0.2449  0.1029 -0.1022
 3251POPC   GL239400   8.514  17.216   4.233 -0.0187  0.1365 -0.2154
 3251POPC   C1A39401   7.966  17.213   4.365  0.1260 -0.2133 -0.0032
 3251POPC   D2A39402   7.601  17.283   4.644  0.1158 -0.2116 -0.1273
 3251POPC   C3A39403   7.532  17.138   5.093  0.2103 -0.1426  0.0647
 3251POPC   C4A39404   7.383  17.197   5.462  0.1171  0.0634  0.0940
 3251POPC   C1B39405   8.322  17.196   4.713 -0.0002  0.1240 -0.2343
 3251POPC   C2B39406   8.242  17.152   5.201 -0.2239  0.1777 -0.1835
 3251POPC   C3B39407   8.476  16.933   5.537  0.1239  0.4097 -0.4348
 3251POPC   C4B39408   8.762  16.610   5.780 -0.0753 -0.3156 -0.1159
 3252POPC   NC339409   9.363   5.953   3.506  0.0544  0.0932 -0.0182
 3252POPC   PO439410   9.712   5.903   3.647 -0.2298  0.1043 -0.1461
 3252POPC   GL139411   9.577   5.898   4.022  0.0138  0.4380  0.0633
 3252POPC   GL239412   9.822   6.064   4.102 -0.0887 -0.1288 -0.0440
 3252POPC   C1A39413   9.646   5.678   4.452 -0.1222  0.0761  0.0508
 3252POPC   D2A39414   9.706   5.789   4.833  0.1339 -0.2900  0.2741
 3252POPC   C3A39415   9.850   5.624   5.258 -0.5525 -0.0893 -0.1932
 3252POPC   C4A39416  10.042   5.262   5.441 -0.1952  0.0077  0.0941
 3252POPC   C1B39417  10.083   6.020   4.500  0.1705 -0.1662  0.0412
 3252POPC   C2B39418  10.229   5.941   4.904 -0.0176 -0.1779 -0.1201
 3252POPC   C3B39419  10.237   5.839   5.333  0.1876  0.3375 -0.0970
 3252POPC   C4B39420   9.982   5.763   5.721 -0.1606 -0.5113 -0.0443
 3253POPC   NC339421   0.121  26.710   3.708  0.1177 -0.0108 -0.0652
 3253POPC   PO439422  -0.101  27.041   3.605  0.1694  0.2669 -0.1142
 3253POPC   GL139423  -0.086  27.242   3.955 -0.1431  0.0834  0.0328
 3253POPC   GL239424  -0.126  27.021   4.113  0.1674 -0.3318  0.1914
 3253POPC   C1A39425  -0.348  27.548   4.177 -0.2625 -0.2262  0.0853
 3253POPC   D2A39426  -0.673  27.884   4.259 -0.2024  0.1155  0.0267
 3253POPC   C3A39427  -0.971  28.080   4.033  0.4116 -0.2661 -0.0012
 3253POPC   C4A39428  -1.420  28.350   3.995 -0.1314  0.0740  0.0002
 3253POPC   C1B39429  -0.375  26.891   4.456 -0.0380  0.0844  0.1833
 3253POPC   C2B39430  -0.506  26.787   4.873 -0.1954  0.2900 -0.3110
 3253POPC   C3B39431  -0.734  26.922   5.247  0.0105  0.1262  0.1424
 3253POPC   C4B39432  -1.049  26.657   5.445 -0.0671 -0.1194 -0.1776
 3254POPC   NC339433   6.516  25.382   3.902 -0.0966 -0.1239  0.1109
 3254POPC   PO439434   6.744  25.095   3.747 -0.2576 -0.2030  0.0457
 3254POPC   GL139435   6.640  25.025   4.144  0.2392 -0.0709  0.0928
 3254POPC   GL239436   6.634  24.719   4.144 -0.0983  0.2502  0.5077
 3254POPC   C1A39437   6.331  24.991   4.476 -0.1880  0.2199 -0.1594
 3254POPC   D2A39438   6.033  25.015   4.811 -0.0299 -0.4028  0.1177
 3254POPC   C3A39439   6.149  25.239   5.228  0.2300  0.0414 -0.2810
 3254POPC   C4A39440   6.021  25.440   5.604  0.5104  0.0649  0.2275
 3254POPC   C1B39441   6.890  24.843   4.485 -0.0515  0.2079  0.1886
 3254POPC   C2B39442   6.958  25.003   4.901  0.1647  0.0060 -0.1997
 3254POPC   C3B39443   6.838  24.794   5.335 -0.2856 -0.0766  0.0946
 3254POPC   C4B39444   7.064  24.596   5.719  0.1219 -0.0826 -0.1358
 3255POPC   NC339445  10.305  14.388   3.487  0.3578  0.0783 -0.3379
 3255POPC   PO439446  10.313  14.104   3.781 -0.2401  0.0888 -0.0462
 3255POPC   GL139447  10.326  14.102   4.187  0.1076 -0.2084  0.5368
 3255POPC   GL239448  10.552  14.303   4.270  0.2178 -0.5574 -0.0001
 3255POPC   C1A39449  10.034  13.894   4.444 -0.1780 -0.0411 -0.2856
 3255POPC   D2A39450   9.955  13.533   4.582 -0.0509 -0.1284  0.3935
 3255POPC   C3A39451   9.739  13.458   4.979  0.1453 -0.1545 -0.0932
 3255POPC   C4A39452   9.591  13.217   5.324 -0.2663 -0.1085 -0.1149
 3255POPC   C1B39453  10.828  14.433   4.663  0.1053  0.3150 -0.0642
 3255POPC   C2B39454  10.942  14.535   5.087 -0.2256 -0.0980  0.0306
 3255POPC   C3B39455  11.187  14.456   5.508  0.2616  0.0347 -0.1415
 3255POPC   C4B39456  11.005  14.422   5.925 -0.0472 -0.1251 -0.2227
 3256POPC   NC339457   3.373   2.243   3.637  0.1576 -0.1656  0.3324
 3256POPC   PO439458   3.429   1.863   3.753 -0.0627 -0.1575  0.3393
 3256POPC   GL139459   3.434   1.912   4.119  0.5240 -0.3431 -0.0777
 3256POPC   GL239460   3.467   2.181   4.202 -0.2212 -0.0942  0.1886
 3256POPC   C1A39461   3.235   1.943   4.575 -0.1921 -0.0833 -0.0132
 3256POPC   D2A39462   3.334   2.081   4.987  0.1584 -0.4338 -0.0709
 3256POPC   C3A39463   3.048   2.463   5.023 -0.3847 -0.0187 -0.1565
 3256POPC   C4A39464   2.734   2.762   4.861 -0.0959  0.1948 -0.4142
 3256POPC   C1B39465   3.814   2.187   4.548 -0.2245 -0.1630  0.0796
 3256POPC   C2B39466   3.920   2.102   4.988  0.1668  0.1052 -0.1527
 3256POPC   C3B39467   3.721   1.959   5.321 -0.1510 -0.5080  0.0285
 3256POPC   C4B39468   3.752   1.783   5.800  0.2424 -0.0037  0.0780
 3257POPC   NC339469   3.968  21.318   3.675  0.2477 -0.0704 -0.0692
 3257POPC   PO439470   3.633  21.145   3.882 -0.0778 -0.2010 -0.2946
 3257POPC   GL139471   3.550  20.846   4.061 -0.0614 -0.0720 -0.0433
 3257POPC   GL239472   3.409  20.820   4.252 -0.0591 -0.2410 -0.1742
 3257POPC   C1A39473   3.823  20.666   4.399 -0.2481 -0.2259  0.3693
 3257POPC   D2A39474   3.844  20.749   4.877  0.1479 -0.2000 -0.1622
 3257POPC   C3A39475   4.070  20.395   5.108 -0.1562  0.1859  0.1571
 3257POPC   C4A39476   4.038  19.943   5.053  0.0957 -0.2753  0.1506
 3257POPC   C1B39477   3.568  21.118   4.571 -0.0612  0.0773  0.1020
 3257POPC   C2B39478   3.657  21.292   5.052 -0.0841 -0.2774  0.0228
 3257POPC   C3B39479   3.458  21.140   5.515  0.3164  0.0091  0.1968
 3257POPC   C4B39480   3.519  20.922   5.883 -0.1897 -0.2721  0.1789
 3258POPC   NC339481   2.987  12.351   3.600  0.1999 -0.0181  0.0322
 3258POPC   PO439482   2.626  12.515   3.592  0.0096  0.1539 -0.0081
 3258POPC   GL139483   2.742  12.660   3.899 -0.0114 -0.1999 -0.3539
 3258POPC   GL239484   2.930  12.558   4.123  0.0434 -0.0045  0.0904
 3258POPC   C1A39485   2.569  12.842   4.275 -0.1460  0.1819  0.1133
 3258POPC   D2A39486   2.450  12.638   4.711 -0.0535 -0.2396  0.0324
 3258POPC   C3A39487   2.549  12.736   5.158 -0.1079  0.0749  0.1479
 3258POPC   C4A39488   2.907  12.841   5.304  0.0654  0.2660  0.0907
 3258POPC   C1B39489   2.912  12.389   4.581  0.2304 -0.2646 -0.0916
 3258POPC   C2B39490   3.107  12.439   4.988 -0.1146 -0.0781 -0.0199
 3258POPC   C3B39491   3.013  12.334   5.392  0.1415  0.1268  0.1135
 3258POPC   C4B39492   2.978  12.448   5.815 -0.3686 -0.1482 -0.3104
 3259POPC   NC339493   8.547  17.497   3.816 -0.2910  0.1829  0.0121
 3259POPC   PO439494   8.894  17.574   3.879  0.2416  0.0169  0.3542
 3259POPC   GL139495   8.803  17.555   4.287 -0.0572 -0.0173  0.0554
 3259POPC   GL239496   8.974  17.291   4.362  0.1249 -0.2125  0.0098
 3259POPC   C1A39497   8.585  17.623   4.726  0.2288 -0.1036  0.2288
 3259POPC   D2A39498   8.323  17.706   5.099 -0.0186  0.2451 -0.0729
 3259POPC   C3A39499   8.498  17.999   5.366 -0.0403 -0.1130 -0.1864
 3259POPC   C4A39500   8.467  18.382   5.642 -0.2340 -0.1068  0.0044
 3259POPC   C1B39501   9.087  17.542   4.715 -0.0971  0.0522 -0.0260
 3259POPC   C2B39502   8.882  17.701   5.166 -0.0728 -0.4720  0.1295
 3259POPC   C3B39503   8.903  17.675   5.601  0.2769  0.1039 -0.0073
 3259POPC   C4B39504   8.573  17.919   5.901 -0.0656  0.0148 -0.0942
 3260POPC   NC339505  10.483  11.296   3.650  0.1446  0.3404 -0.1380
 3260POPC   PO439506  10.653  10.962   3.548  0.1738  0.0361  0.0763
 3260POPC   GL139507  10.415  10.936   3.975 -0.2643  0.1326  0.3942
 3260POPC   GL239508  10.420  10.680   4.010  0.1506 -0.2977  0.0424
 3260POPC   C1A39509  10.377  11.009   4.443 -0.0601 -0.0793  0.3468
 3260POPC   D2A39510  10.649  11.216   4.721  0.0552  0.0845  0.1232
 3260POPC   C3A39511  10.406  11.238   5.092 -0.1940 -0.0685 -0.0481
 3260POPC   C4A39512  10.190  11.204   5.467  0.1785  0.2712 -0.1796
 3260POPC   C1B39513  10.418  10.487   4.425  0.0607  0.5255  0.1562
 3260POPC   C2B39514  10.266  10.545   4.855 -0.0214  0.1356 -0.1794
 3260POPC   C3B39515  10.370  10.470   5.299 -0.0085 -0.0204  0.0335
 3260POPC   C4B39516  10.494  10.784   5.614 -0.2070  0.2565  0.2230
 3261POPC   NC339517   1.110  30.551   3.802 -0.0524  0.4100 -0.1006
 3261POPC   PO439518   0.854  30.835   3.662 -0.1814  0.2917  0.2297
 3261POPC   GL139519   0.517  30.852   3.973 -0.4034 -0.1370 -0.2269
 3261POPC   GL239520   0.403  30.632   3.998 -0.0648 -0.1087  0.0764
 3261POPC   C1A39521   0.661  31.088   4.317 -0.1666  0.1044 -0.1982
 3261POPC   D2A39522   0.862  30.872   4.683 -0.0594 -0.1186 -0.0706
 3261POPC   C3A39523   0.684  31.059   5.084  0.3648  0.1775 -0.0141
 3261POPC   C4A39524   0.663  31.001   5.579 -0.1960  0.3067  0.0219
 3261POPC   C1B39525   0.219  30.298   4.202  0.0002 -0.0041  0.0292
 3261POPC   C2B39526   0.179  30.229   4.692  0.0588 -0.1021  0.2389
 3261POPC   C3B39527   0.237  30.152   5.156  0.0116 -0.0388 -0.0338
 3261POPC   C4B39528   0.336  29.929   5.546 -0.0343 -0.2156  0.1571
 3262POPC   NC339529   4.495   7.447   3.047  0.4476 -0.0377 -0.0873
 3262POPC   PO439530   4.745   7.391   3.316  0.1916 -0.0538  0.0863
 3262POPC   GL139531   4.458   7.313   3.655 -0.1926  0.4695 -0.3383
 3262POPC   GL239532   4.315   7.398   3.828  0.2780  0.0460 -0.0567
 3262POPC   C1A39533   4.430   6.856   3.824  0.0649  0.1643  0.1340
 3262POPC   D2A39534   4.321   6.409   3.998 -0.0330  0.1617 -0.1063
 3262POPC   C3A39535   4.217   6.320   4.465  0.2595  0.2417  0.2006
 3262POPC   C4A39536   4.204   6.369   4.925  0.2530  0.1097 -0.0704
 3262POPC   C1B39537   4.484   7.277   4.218  0.2939  0.0161 -0.0305
 3262POPC   C2B39538   4.492   7.433   4.615 -0.1872  0.1986 -0.0616
 3262POPC   C3B39539   4.409   7.325   5.063 -0.0172  0.0490 -0.0754
 3262POPC   C4B39540   4.165   7.245   5.457 -0.1208  0.0530  0.4558
 3263POPC   NC339541  10.133   1.229   3.038  0.2196 -0.1440 -0.2014
 3263POPC   PO439542   9.958   1.376   3.370 -0.1377 -0.3444  0.2360
 3263POPC   GL139543   9.944   1.459   3.798 -0.2711 -0.0150 -0.3184
 3263POPC   GL239544   9.841   1.203   3.882 -0.1364  0.0762 -0.2038
 3263POPC   C1A39545   9.592   1.583   4.110  0.0099 -0.0465  0.3268
 3263POPC   D2A39546   9.260   1.419   4.363 -0.0340  0.2886  0.0888
 3263POPC   C3A39547   9.369   1.387   4.809 -0.1397  0.1461 -0.0097
 3263POPC   C4A39548   9.051   1.465   5.091 -0.2603  0.2031 -0.0324
 3263POPC   C1B39549   9.688   1.091   4.342 -0.2378  0.1716 -0.1937
 3263POPC   C2B39550   9.620   0.951   4.728 -0.0340 -0.1715 -0.1155
 3263POPC   C3B39551   9.534   0.854   5.183 -0.0123 -0.0304  0.1465
 3263POPC   C4B39552   9.441   0.829   5.638  0.2553 -0.0773 -0.3175
 3264POPC   NC339553   7.667  28.910   3.518 -0.1615  0.1289 -0.1786
 3264POPC   PO439554   7.943  28.863   3.775 -0.0505  0.0010  0.0221
 3264POPC   GL139555   7.675  28.672   4.123  0.4897 -0.3284 -0.0239
 3264POPC   GL239556   7.745  28.436   4.182  0.0401  0.1091  0.0644
 3264POPC   C1A39557   7.757  28.715   4.592  0.1865 -0.0175 -0.0844
 3264POPC   D2A39558   7.669  28.765   5.057 -0.0129  0.0669  0.0373
 3264POPC   C3A39559   7.466  28.824   5.417 -0.3291  0.0741 -0.1540
 3264POPC   C4A39560   7.239  28.538   5.738  0.0243 -0.1350  0.3139
 3264POPC   C1B39561   7.647  28.175   4.548 -0.3109  0.2952 -0.0287
 3264POPC   C2B39562   7.483  28.207   4.958 -0.0608  0.2237  0.0621
 3264POPC   C3B39563   7.550  28.362   5.377  0.1630 -0.4337  0.1430
 3264POPC   C4B39564   7.533  28.184   5.808  0.2986 -0.1216  0.2550
 3265POPC   NC339565   2.993   4.130   3.220  0.2953 -0.2679 -0.2743
 3265POPC   PO439566   2.935   4.194   3.593 -0.0703 -0.0164 -0.1248
 3265POPC   GL139567   2.703   4.176   3.907  0.0072 -0.3388 -0.2542
 3265POPC   GL239568   2.609   3.903   3.911  0.1875 -0.0317  0.2294
 3265POPC   C1A39569   2.795   4.351   4.294  0.0454 -0.0899  0.1268
 3265POPC   D2A39570   2.759   4.424   4.755 -0.1788 -0.0954 -0.0623
 3265POPC   C3A39571   2.807   4.035   4.908  0.2918  0.1890  0.0785
 3265POPC   C4A39572   2.731   3.670   5.147  0.1321 -0.1754  0.1369
 3265POPC   C1B39573   2.379   3.964   4.333 -0.0847  0.0119  0.1652
 3265POPC   C2B39574   2.205   4.099   4.698  0.0176  0.0825  0.0887
 3265POPC   C3B39575   2.239   3.938   5.148  0.0543 -0.0074 -0.0838
 3265POPC   C4B39576   2.419   3.785   5.578  0.1886 -0.1650 -0.1189
 3266POPC   NC339577   6.908  23.595   3.807 -0.1674 -0.1352  0.0290
 3266POPC   PO439578   7.073  23.400   3.537  0.5700  0.1585 -0.1427
 3266POPC   GL139579   7.243  23.204   3.860  0.2628 -0.1378  0.1263
 3266POPC   GL239580   7.116  22.937   3.822  0.1723  0.2492  0.1190
 3266POPC   C1A39581   7.662  23.246   4.075 -0.1796  0.0006 -0.1627
 3266POPC   D2A39582   7.985  23.296   4.424 -0.1393  0.1878 -0.1841
 3266POPC   C3A39583   7.680  23.354   4.770 -0.1168 -0.0580  0.1520
 3266POPC   C4A39584   7.487  23.320   5.170  0.0355 -0.2852 -0.1007
 3266POPC   C1B39585   7.205  22.968   4.274 -0.1358 -0.0639  0.1805
 3266POPC   C2B39586   7.141  22.867   4.715  0.1282  0.0662  0.0971
 3266POPC   C3B39587   7.470  22.799   5.050  0.2113 -0.1731  0.1775
 3266POPC   C4B39588   7.607  22.895   5.450 -0.0640 -0.1929 -0.0288
 3267POPC   NC339589   3.713  22.799   3.148 -0.0492 -0.0512 -0.0571
 3267POPC   PO439590   4.109  22.814   3.203 -0.1134 -0.0902 -0.2553
 3267POPC   GL139591   4.016  22.717   3.597 -0.1726 -0.4908  0.4543
 3267POPC   GL239592   3.771  22.672   3.654 -0.1345  0.3269  0.0627
 3267POPC   C1A39593   3.909  23.003   3.992  0.3898  0.1130 -0.0128
 3267POPC   D2A39594   3.817  23.035   4.483  0.0957  0.2916  0.2611
 3267POPC   C3A39595   3.406  23.279   4.592  0.1732 -0.0982  0.0911
 3267POPC   C4A39596   3.042  23.403   4.851 -0.1328  0.1407  0.3336
 3267POPC   C1B39597   3.704  22.627   4.115 -0.0358  0.1128 -0.1174
 3267POPC   C2B39598   3.564  22.545   4.560  0.0778 -0.0241 -0.2027
 3267POPC   C3B39599   3.431  22.707   4.990 -0.0605  0.0637  0.4223
 3267POPC   C4B39600   3.360  23.050   5.282  0.2289 -0.0601  0.0986
 3268POPC   NC339601   9.472  29.547   4.146  0.2305  0.1467 -0.0839
 3268POPC   PO439602   9.680  29.211   4.207 -0.5236 -0.2332 -0.0032
 3268POPC   GL139603   9.737  28.926   4.432 -0.0586 -0.0221 -0.4636
 3268POPC   GL239604   9.452  28.837   4.590 -0.2739 -0.2849  0.1501
 3268POPC   C1A39605   9.836  28.813   4.896  0.1552  0.1652  0.2822
 3268POPC   D2A39606   9.773  28.465   5.218  0.1223  0.0786 -0.1208
 3268POPC   C3A39607   9.891  28.748   5.583  0.2777  0.3071  0.0897
 3268POPC   C4A39608  10.244  28.726   5.875 -0.0867  0.1129  0.1185
 3268POPC   C1B39609   9.328  28.717   5.035 -0.0681 -0.1819  0.3309
 3268POPC   C2B39610   9.364  28.577   5.493 -0.0271 -0.2904 -0.0178
 3268POPC   C3B39611   9.105  28.730   5.785  0.1425  0.1086 -0.2459
 3268POPC   C4B39612   8.821  28.540   6.150  0.0015 -0.2399 -0.1951
 3269POPC   NC339613  14.619  21.594   3.807  0.2231  0.1219 -0.0584
 3269POPC   PO439614  14.408  21.852   3.540 -0.1079 -0.0617  0.2648
 3269POPC   GL139615  14.111  21.655   3.759 -0.0446 -0.1637  0.3609
 3269POPC   GL239616  14.073  21.854   3.952  0.1536 -0.0631 -0.1211
 3269POPC   C1A39617  13.805  21.505   4.074  0.2479 -0.5010  0.0418
 3269POPC   D2A39618  13.430  21.439   4.302  0.2603 -0.0998 -0.0001
 3269POPC   C3A39619  13.358  21.751   4.644  0.5326  0.1140 -0.1601
 3269POPC   C4A39620  13.119  22.067   4.730 -0.1588  0.1339 -0.0519
 3269POPC   C1B39621  14.294  21.943   4.347 -0.2023 -0.4296  0.0919
 3269POPC   C2B39622  14.186  22.046   4.778  0.1533 -0.3145  0.1569
 3269POPC   C3B39623  14.030  21.972   5.200 -0.1142 -0.1828 -0.0366
 3269POPC   C4B39624  13.912  22.155   5.580  0.3031  0.2751 -0.1185
 3270POPC   NC339625   9.872  17.088   3.600 -0.0215 -0.1951  0.1431
 3270POPC   PO439626   9.624  16.987   3.888 -0.1945  0.0625 -0.1734
 3270POPC   GL139627   9.308  16.926   4.212 -0.0736  0.0628  0.1110
 3270POPC   GL239628   9.444  16.639   4.203 -0.2116 -0.0801 -0.1306
 3270POPC   C1A39629   9.252  16.911   4.670 -0.2398  0.1753 -0.2477
 3270POPC   D2A39630   9.279  17.054   5.086  0.3044  0.0706 -0.0824
 3270POPC   C3A39631   9.232  17.345   5.403 -0.2338  0.1613 -0.1215
 3270POPC   C4A39632   9.179  17.265   5.871  0.1637  0.1279  0.3182
 3270POPC   C1B39633   9.416  16.415   4.643  0.0803 -0.0809 -0.1815
 3270POPC   C2B39634   9.333  16.512   5.106  0.2868  0.0715  0.0853
 3270POPC   C3B39635   9.593  16.474   5.548 -0.1919  0.2214  0.1393
 3270POPC   C4B39636   9.799  16.546   5.966 -0.2115  0.1283 -0.0181
 3271POPC   NC339637   8.127  28.958   4.234  0.3011 -0.0130 -0.2662
 3271POPC   PO439638   8.543  28.913   4.172  0.0197  0.0079 -0.1509
 3271POPC   GL139639   8.626  28.996   4.531 -0.1751 -0.1713 -0.1052
 3271POPC   GL239640   8.509  28.822   4.647 -0.0843  0.4164 -0.1065
 3271POPC   C1A39641   8.608  29.316   4.851  0.0663 -0.0731 -0.0589
 3271POPC   D2A39642   8.733  29.489   5.300  0.1796  0.2186  0.2223
 3271POPC   C3A39643   8.442  29.465   5.654 -0.0860  0.4026  0.1044
 3271POPC   C4A39644   7.996  29.545   5.715 -0.1558 -0.1223 -0.0144
 3271POPC   C1B39645   8.510  28.891   5.070  0.0756 -0.0618  0.0886
 3271POPC   C2B39646   8.521  28.893   5.485 -0.1315 -0.2599  0.0294
 3271POPC   C3B39647   8.706  29.000   5.872  0.1565 -0.0322  0.5000
 3271POPC   C4B39648   8.612  28.992   6.307 -0.1883 -0.0419 -0.0983
 3272POPC   NC339649  14.312  12.278   3.921 -0.3160 -0.2814  0.0009
 3272POPC   PO439650  14.459  12.537   3.627 -0.0910  0.0826  0.0670
 3272POPC   GL139651  14.529  12.721   4.022 -0.0577  0.0937  0.2068
 3272POPC   GL239652  14.816  12.573   4.051  0.0248  0.0616 -0.1836
 3272POPC   C1A39653  14.436  12.775   4.478 -0.2836  0.2350 -0.3250
 3272POPC   D2A39654  14.208  12.622   4.867  0.2449  0.1811  0.0887
 3272POPC   C3A39655  14.162  12.844   5.246  0.0817  0.1034 -0.0234
 3272POPC   C4A39656  13.892  13.076   5.472 -0.2444 -0.0944 -0.0704
 3272POPC   C1B39657  14.927  12.491   4.547 -0.0170  0.0501  0.0351
 3272POPC   C2B39658  14.808  12.662   4.940 -0.1102 -0.1337  0.2173
 3272POPC   C3B39659  14.505  12.529   5.301 -0.2079  0.3486  0.1755
 3272POPC   C4B39660  14.551  12.641   5.706  0.0898  0.1052 -0.3016
 3273POPC   NC339661   6.585  24.161   3.317 -0.3618  0.0295 -0.3079
 3273POPC   PO439662   6.493  23.989   3.667  0.0777 -0.0577 -0.1791
 3273POPC   GL139663   6.629  23.906   4.013 -0.1079 -0.0736  0.0956
 3273POPC   GL239664   6.541  24.100   4.147 -0.0023 -0.1258 -0.0588
 3273POPC   C1A39665   6.855  23.693   4.298  0.0891 -0.2564 -0.0639
 3273POPC   D2A39666   6.764  23.824   4.741 -0.0671 -0.1387  0.2219
 3273POPC   C3A39667   7.001  24.119   5.047 -0.0134  0.1543 -0.0652
 3273POPC   C4A39668   7.163  24.476   5.274 -0.3452  0.0519  0.1544
 3273POPC   C1B39669   6.290  24.026   4.492  0.1102  0.1370  0.0964
 3273POPC   C2B39670   6.432  24.109   4.937  0.1282  0.0049  0.0537
 3273POPC   C3B39671   6.515  24.376   5.370 -0.0758 -0.1835  0.1488
 3273POPC   C4B39672   6.494  24.468   5.826 -0.1296  0.0609 -0.3055
 3274POPC   NC339673   1.172  12.184   3.383  0.0242 -0.4814  0.1526
 3274POPC   PO439674   1.146  11.893   3.627  0.2108  0.0479  0.2313
 3274POPC   GL139675   1.257  12.079   3.933 -0.0360 -0.2148  0.0298
 3274POPC   GL239676   1.078  12.160   4.124 -0.0496  0.0444 -0.0317
 3274POPC   C1A39677   1.533  11.932   4.297  0.1117  0.0334  0.1000
 3274POPC   D2A39678   1.846  12.072   4.663 -0.1327  0.0955  0.1037
 3274POPC   C3A39679   2.050  11.831   4.972  0.1871 -0.0390  0.1945
 3274POPC   C4A39680   2.301  11.821   5.366  0.3703 -0.2252  0.0164
 3274POPC   C1B39681   0.990  12.328   4.488  0.2277  0.1073  0.1521
 3274POPC   C2B39682   0.870  12.423   4.967  0.2584  0.3116 -0.0715
 3274POPC   C3B39683   0.943  12.529   5.406  0.0764 -0.2225  0.1064
 3274POPC   C4B39684   0.966  12.493   5.911  0.2547  0.1804 -0.1203
 3275POPC   NC339685  13.868  11.505   4.067  0.1464  0.0119  0.2418
 3275POPC   PO439686  14.032  11.693   3.751  0.1688 -0.0473 -0.0940
 3275POPC   GL139687  14.289  11.773   4.141  0.4337  0.0267  0.0201
 3275POPC   GL239688  14.207  11.854   4.392  0.0633  0.4070  0.2502
 3275POPC   C1A39689  14.608  11.608   4.459  0.3992 -0.0128  0.4146
 3275POPC   D2A39690  14.651  11.535   4.896  0.2775  0.1102  0.0627
 3275POPC   C3A39691  14.804  11.753   5.269 -0.1700  0.2213 -0.0550
 3275POPC   C4A39692  14.976  11.896   5.684 -0.0084 -0.2194 -0.0523
 3275POPC   C1B39693  14.062  11.672   4.815 -0.4018 -0.0713 -0.1008
 3275POPC   C2B39694  14.224  11.541   5.201 -0.1077  0.1615 -0.0907
 3275POPC   C3B39695  14.466  11.633   5.637  0.1101  0.3798  0.1975
 3275POPC   C4B39696  14.665  11.658   6.097 -0.4512  0.0825  0.1815
 3276POPC   NC339697   2.112   4.347   3.203 -0.0522  0.0384 -0.0101
 3276POPC   PO439698   2.044   4.049   3.470  0.2166  0.0361  0.0450
 3276POPC   GL139699   1.750   4.178   3.778  0.0799  0.1983 -0.0565
 3276POPC   GL239700   1.744   3.936   3.915  0.1061  0.3544 -0.0837
 3276POPC   C1A39701   1.507   4.241   4.186  0.2661  0.0419  0.1260
 3276POPC   D2A39702   1.417   4.169   4.607 -0.2120  0.0269  0.2793
 3276POPC   C3A39703   1.363   4.137   5.030 -0.3636  0.0286 -0.2123
 3276POPC   C4A39704   1.167   4.114   5.416  0.5869 -0.1261  0.1228
 3276POPC   C1B39705   1.744   3.882   4.426 -0.0933 -0.0986 -0.1145
 3276POPC   C2B39706   1.764   3.916   4.896 -0.1284  0.3723  0.0251
 3276POPC   C3B39707   1.806   3.940   5.343  0.0302 -0.0661 -0.1799
 3276POPC   C4B39708   1.617   4.256   5.671  0.1209  0.0234  0.1551
 3277POPC   NC339709  13.473  21.344   3.194 -0.1117 -0.1003  0.0536
 3277POPC   PO439710  13.622  21.676   3.131  0.0249 -0.0202  0.0554
 3277POPC   GL139711  13.448  21.821   3.393 -0.2341 -0.0355  0.4772
 3277POPC   GL239712  13.176  21.726   3.491  0.0181  0.3010  0.0926
 3277POPC   C1A39713  13.531  21.785   3.833  0.0418 -0.1965  0.0198
 3277POPC   D2A39714  13.533  21.941   4.235 -0.0483 -0.1170  0.1353
 3277POPC   C3A39715  13.828  21.762   4.535 -0.0628 -0.0843 -0.1600
 3277POPC   C4A39716  13.893  21.272   4.516  0.0549  0.0969  0.0233
 3277POPC   C1B39717  13.121  21.407   3.796  0.1198  0.1206 -0.0492
 3277POPC   C2B39718  12.984  21.232   4.229 -0.3296  0.0142 -0.0910
 3277POPC   C3B39719  13.171  21.211   4.700 -0.3528  0.1038  0.4514
 3277POPC   C4B39720  13.191  21.404   5.072  0.1035 -0.0865  0.0497
 3278POPC   NC339721   1.045  18.475   4.239  0.0552 -0.0523  0.2306
 3278POPC   PO439722   0.885  18.843   4.300 -0.1064 -0.1300  0.2292
 3278POPC   GL139723   0.900  18.600   4.655  0.1131 -0.3699  0.1296
 3278POPC   GL239724   0.829  18.867   4.821 -0.1529 -0.0792 -0.0478
 3278POPC   C1A39725   0.934  18.481   5.107  0.1267  0.3207 -0.2843
 3278POPC   D2A39726   0.970  18.437   5.586  0.3257 -0.0377  0.2194
 3278POPC   C3A39727   1.004  18.213   5.977  0.0460  0.5407  0.0387
 3278POPC   C4A39728   0.951  17.982   6.420 -0.0523  0.0129 -0.0435
 3278POPC   C1B39729   0.894  18.943   5.322 -0.0589 -0.0344  0.0856
 3278POPC   C2B39730   0.882  19.211   5.696  0.2113 -0.1256 -0.0868
 3278POPC   C3B39731   0.842  19.521   6.077 -0.1755  0.1043 -0.1119
 3278POPC   C4B39732   0.780  19.705   6.490  0.1351  0.1774  0.2785
 3279POPC   NC339733   4.483  12.673   3.774 -0.0525  0.2359  0.0404
 3279POPC   PO439734   4.410  12.432   3.486  0.3143  0.0790 -0.0558
 3279POPC   GL139735   4.058  12.463   3.708  0.3919 -0.2662  0.3689
 3279POPC   GL239736   4.176  12.235   3.878 -0.0698 -0.0245 -0.1751
 3279POPC   C1A39737   3.869  12.739   4.001  0.2055 -0.0426  0.2334
 3279POPC   D2A39738   3.417  12.777   4.073 -0.0582 -0.0823 -0.1776
 3279POPC   C3A39739   3.117  12.888   4.420 -0.1432 -0.0947  0.2337
 3279POPC   C4A39740   2.842  12.884   4.772  0.1086 -0.3843 -0.0602
 3279POPC   C1B39741   4.238  12.514   4.243  0.0312  0.1304  0.1311
 3279POPC   C2B39742   3.946  12.750   4.538 -0.0383 -0.1804  0.2158
 3279POPC   C3B39743   3.892  12.782   5.011  0.1785  0.1472 -0.1755
 3279POPC   C4B39744   3.920  12.820   5.496  0.0329  0.1270 -0.0072
 3280POPC   NC339745   6.332  27.711   3.752  0.1024  0.0217 -0.0767
 3280POPC   PO439746   5.991  27.817   3.980 -0.4357 -0.1210  0.0817
 3280POPC   GL139747   5.981  28.074   4.363  0.2408 -0.5692  0.1172
 3280POPC   GL239748   5.889  27.830   4.538  0.0381  0.1023 -0.2463
 3280POPC   C1A39749   6.017  28.305   4.776  0.2393  0.1900 -0.0484
 3280POPC   D2A39750   6.065  28.718   4.988 -0.4909  0.1034  0.2134
 3280POPC   C3A39751   6.021  28.797   5.426 -0.0577  0.0231 -0.3416
 3280POPC   C4A39752   6.353  28.769   5.720 -0.0386 -0.0712  0.1913
 3280POPC   C1B39753   5.750  27.830   4.963 -0.1038 -0.2557 -0.0399
 3280POPC   C2B39754   5.518  27.899   5.368  0.1524 -0.0580  0.0478
 3280POPC   C3B39755   5.336  28.281   5.567  0.0013  0.1302  0.0802
 3280POPC   C4B39756   5.504  28.684   5.549  0.0745 -0.1771 -0.1225
 3281POPC   NC339757   0.251  10.647   3.597  0.0246  0.2091 -0.3031
 3281POPC   PO439758   0.613  10.453   3.674  0.1985  0.0721 -0.1538
 3281POPC   GL139759   0.441  10.421   4.074 -0.1959  0.1273 -0.0343
 3281POPC   GL239760   0.698  10.417   4.228  0.0427 -0.0992 -0.0155
 3281POPC   C1A39761   0.356  10.372   4.550  0.0719  0.1425 -0.2245
 3281POPC   D2A39762   0.502  10.524   4.925 -0.3006  0.0329 -0.0456
 3281POPC   C3A39763   0.466  10.961   5.106  0.2095  0.2919  0.1108
 3281POPC   C4A39764   0.196  11.230   5.430 -0.0426  0.1564 -0.0684
 3281POPC   C1B39765   0.670  10.756   4.453 -0.0581  0.0492 -0.0531
 3281POPC   C2B39766   0.310  10.944   4.622  0.0987  0.0341 -0.2021
 3281POPC   C3B39767  -0.016  11.140   4.940  0.1084  0.0727  0.0335
 3281POPC   C4B39768  -0.390  11.047   5.183  0.2261 -0.1804  0.1069
 3282POPC   NC339769  14.590  13.025   3.633 -0.1649  0.1841  0.2200
 3282POPC   PO439770  14.282  13.096   3.844 -0.3112  0.0919  0.2411
 3282POPC   GL139771  14.299  13.175   4.253 -0.0276  0.0373 -0.2529
 3282POPC   GL239772  14.254  13.494   4.424 -0.0042  0.0453  0.1765
 3282POPC   C1A39773  13.988  13.082   4.588 -0.3220  0.0011  0.2148
 3282POPC   D2A39774  13.778  12.960   4.993  0.0811  0.3596 -0.2927
 3282POPC   C3A39775  13.388  13.131   5.245  0.0886 -0.1964 -0.0293
 3282POPC   C4A39776  13.412  12.982   5.688  0.1535  0.0158  0.1614
 3282POPC   C1B39777  14.030  13.461   4.851 -0.0616 -0.1549 -0.0506
 3282POPC   C2B39778  13.664  13.627   5.015  0.1376  0.0507  0.1537
 3282POPC   C3B39779  13.527  14.002   5.193 -0.1310 -0.0908 -0.2446
 3282POPC   C4B39780  13.474  14.469   5.328 -0.2614 -0.1378  0.0080
 3283POPC   NC339781   9.238  25.070   3.916 -0.1678  0.0883 -0.0966
 3283POPC   PO439782   9.381  25.418   3.905  0.3114  0.2306  0.0454
 3283POPC   GL139783   9.536  25.349   4.206  0.1616 -0.2467 -0.1402
 3283POPC   GL239784   9.507  25.631   4.398  0.2293 -0.1724 -0.0942
 3283POPC   C1A39785   9.651  25.055   4.565 -0.0005  0.2273 -0.1469
 3283POPC   D2A39786   9.744  24.934   5.029 -0.1299 -0.2966  0.4669
 3283POPC   C3A39787   9.727  24.955   5.537  0.1147  0.1761 -0.1512
 3283POPC   C4A39788   9.695  25.048   5.986 -0.0836 -0.1945  0.3099
 3283POPC   C1B39789   9.487  25.477   4.823 -0.1427 -0.0614 -0.3316
 3283POPC   C2B39790   9.436  25.362   5.313 -0.2969 -0.1043  0.0776
 3283POPC   C3B39791   9.345  25.206   5.729  0.0818 -0.4093 -0.0304
 3283POPC   C4B39792   8.995  25.276   5.997  0.3996 -0.0827 -0.0186
 3284POPC   NC339793  11.655  16.547   3.614  0.0217 -0.1632 -0.1454
 3284POPC   PO439794  11.925  16.834   3.576 -0.1300 -0.1048  0.0826
 3284POPC   GL139795  12.073  16.680   3.856 -0.1725 -0.0918 -0.1345
 3284POPC   GL239796  12.041  16.418   3.945  0.0375  0.1083 -0.0420
 3284POPC   C1A39797  12.529  16.598   3.993 -0.1038  0.1923 -0.0828
 3284POPC   D2A39798  12.587  16.266   4.355 -0.1766 -0.0363  0.1037
 3284POPC   C3A39799  12.844  16.266   4.738 -0.1649  0.0344 -0.1108
 3284POPC   C4A39800  13.275  16.332   4.891 -0.1433  0.1746  0.1773
 3284POPC   C1B39801  12.107  16.620   4.389 -0.0921 -0.0563 -0.2206
 3284POPC   C2B39802  12.223  16.598   4.833 -0.1541  0.0699 -0.1810
 3284POPC   C3B39803  12.342  16.642   5.253 -0.2073 -0.0804  0.1592
 3284POPC   C4B39804  12.316  16.448   5.691 -0.0897 -0.1011  0.0571
 3285POPC   NC339805  15.728   7.034   3.592  0.1373 -0.0336  0.1627
 3285POPC   PO439806  16.071   6.984   3.758  0.0791  0.3992 -0.1568
 3285POPC   GL139807  16.418   7.176   3.982 -0.2366  0.0971 -0.0099
 3285POPC   GL239808  16.662   7.356   3.919  0.3604 -0.1806 -0.1034
 3285POPC   C1A39809  16.669   6.806   4.014 -0.1893 -0.0460  0.1752
 3285POPC   D2A39810  16.784   6.399   4.087 -0.1271 -0.0097 -0.0444
 3285POPC   C3A39811  17.292   6.293   4.112  0.1472 -0.3185  0.0387
 3285POPC   C4A39812  17.640   6.431   4.399 -0.0351  0.0416 -0.1451
 3285POPC   C1B39813  16.847   7.155   4.307 -0.0167 -0.2744  0.0882
 3285POPC   C2B39814  16.731   6.931   4.631  0.2190  0.0445 -0.2384
 3285POPC   C3B39815  16.689   6.762   5.093  0.0796 -0.4412  0.1642
 3285POPC   C4B39816  16.452   6.643   5.431  0.1498  0.1339  0.0077
 3286POPC   NC339817  11.302  31.521   3.396 -0.1296 -0.0294 -0.2379
 3286POPC   PO439818  11.117  31.268   3.591  0.1823  0.3363 -0.0899
 3286POPC   GL139819  11.057  31.079   4.002  0.2723 -0.2813 -0.1431
 3286POPC   GL239820  10.962  31.296   4.154  0.2430 -0.0468 -0.0426
 3286POPC   C1A39821  11.430  31.123   4.293 -0.1941 -0.2581  0.2258
 3286POPC   D2A39822  11.576  30.932   4.702 -0.3393 -0.1274  0.1598
 3286POPC   C3A39823  11.809  31.168   5.046 -0.0756  0.1990  0.2816
 3286POPC   C4A39824  11.917  31.264   5.444 -0.0790  0.2375  0.2074
 3286POPC   C1B39825  11.004  30.970   4.480  0.2783  0.0573  0.1514
 3286POPC   C2B39826  11.099  30.955   4.905  0.2073  0.0256  0.1152
 3286POPC   C3B39827  11.372  31.050   5.220  0.1601  0.0293  0.3826
 3286POPC   C4B39828  11.512  31.229   5.713 -0.0886 -0.1075  0.0926
 3287POPC   NC339829   4.018   3.044   3.483  0.1855  0.1219 -0.0621
 3287POPC   PO439830   4.091   3.076   3.892 -0.1292  0.1964  0.1624
 3287POPC   GL139831   4.027   3.248   4.315  0.3154 -0.3162 -0.1654
 3287POPC   GL239832   3.810   3.122   4.321  0.2206 -0.1502  0.0420
 3287POPC   C1A39833   3.969   3.161   4.789  0.0654  0.1835  0.2799
 3287POPC   D2A39834   3.743   2.903   5.044 -0.1588  0.2204  0.2331
 3287POPC   C3A39835   3.689   2.933   5.506  0.3153 -0.0365  0.0161
 3287POPC   C4A39836   3.452   2.937   5.954 -0.1977 -0.0285 -0.1090
 3287POPC   C1B39837   3.504   3.319   4.664 -0.0963  0.3231 -0.1438
 3287POPC   C2B39838   3.391   3.432   5.121 -0.1748  0.5744 -0.0454
 3287POPC   C3B39839   3.166   3.435   5.529  0.2486  0.3731 -0.2752
 3287POPC   C4B39840   2.740   3.405   5.639 -0.0142 -0.1559  0.2229
 3288POPC   NC339841   6.487   3.882   4.082 -0.2320  0.1931  0.1001
 3288POPC   PO439842   6.662   4.187   3.897  0.0284 -0.0867 -0.2073
 3288POPC   GL139843   6.675   4.384   4.230 -0.4325 -0.2258  0.1911
 3288POPC   GL239844   6.986   4.363   4.262  0.0663  0.1113  0.1593
 3288POPC   C1A39845   6.690   4.421   4.697  0.2690  0.2436 -0.2956
 3288POPC   D2A39846   6.915   4.295   5.066 -0.1976 -0.1692 -0.1004
 3288POPC   C3A39847   7.200   4.093   5.395  0.4048 -0.2723 -0.0263
 3288POPC   C4A39848   7.213   4.057   5.848 -0.0846  0.0254  0.2824
 3288POPC   C1B39849   7.219   4.392   4.644 -0.2223  0.0823  0.1867
 3288POPC   C2B39850   7.519   4.531   4.966 -0.2116 -0.0973  0.0844
 3288POPC   C3B39851   7.543   4.551   5.346 -0.1250  0.1319 -0.2034
 3288POPC   C4B39852   7.549   4.378   5.818  0.0373 -0.3473  0.1734
 3289POPC   NC339853  15.154   2.177   3.445 -0.1070 -0.1676  0.0298
 3289POPC   PO439854  15.483   2.389   3.452 -0.0056 -0.3185  0.4130
 3289POPC   GL139855  15.408   2.253   3.821  0.3011 -0.1885  0.1074
 3289POPC   GL239856  15.151   2.135   3.960 -0.0764  0.1506  0.2322
 3289POPC   C1A39857  15.663   1.911   3.986  0.0191 -0.0344 -0.2036
 3289POPC   D2A39858  15.930   1.663   4.284 -0.0111  0.0312  0.2233
 3289POPC   C3A39859  15.860   1.759   4.724 -0.0991  0.2567  0.3145
 3289POPC   C4A39860  15.804   1.798   5.206 -0.0291 -0.0736 -0.1353
 3289POPC   C1B39861  15.245   2.005   4.326  0.0061  0.2238  0.0040
 3289POPC   C2B39862  15.317   2.046   4.757 -0.1594  0.1357  0.0468
 3289POPC   C3B39863  15.434   2.103   5.214  0.0547 -0.0136  0.2019
 3289POPC   C4B39864  15.708   2.363   5.487 -0.0098 -0.0853 -0.6964
 3290POPC   NC339865   3.961  27.128   3.536  0.2127 -0.2200  0.1113
 3290POPC   PO439866   3.933  26.789   3.747  0.2472 -0.0425  0.3425
 3290POPC   GL139867   3.647  26.681   3.931  0.6703 -0.0709  0.1585
 3290POPC   GL239868   3.541  26.487   3.737  0.0386  0.1370  0.0303
 3290POPC   C1A39869   3.676  26.454   4.375 -0.2695 -0.0048 -0.2255
 3290POPC   D2A39870   3.691  26.211   4.800  0.0864 -0.2038 -0.0614
 3290POPC   C3A39871   3.993  26.004   5.085 -0.3501 -0.0923  0.0475
 3290POPC   C4A39872   4.332  25.954   5.377  0.2080  0.4291 -0.1662
 3290POPC   C1B39873   3.219  26.267   4.029 -0.1894  0.1208 -0.2097
 3290POPC   C2B39874   3.261  26.068   4.449 -0.2261 -0.0989 -0.0122
 3290POPC   C3B39875   3.222  25.863   4.868  0.0394 -0.0835 -0.0924
 3290POPC   C4B39876   2.864  25.829   5.192 -0.1185  0.1758 -0.2209
 3291POPC   NC339877   0.196  24.836   4.263  0.3721  0.1280  0.6018
 3291POPC   PO439878   0.584  24.789   4.211 -0.0470  0.3634 -0.3358
 3291POPC   GL139879   0.814  24.686   4.507  0.0395  0.2310 -0.0674
 3291POPC   GL239880   1.102  24.669   4.390  0.0390  0.3371  0.0347
 3291POPC   C1A39881   0.817  24.639   4.988 -0.1542  0.1130  0.3437
 3291POPC   D2A39882   1.072  24.500   5.303 -0.3157 -0.1609  0.0662
 3291POPC   C3A39883   1.185  24.061   5.469 -0.3544 -0.2799  0.3657
 3291POPC   C4A39884   0.887  23.787   5.728 -0.1211 -0.0811 -0.0968
 3291POPC   C1B39885   1.235  24.460   4.772 -0.2647  0.0952  0.0104
 3291POPC   C2B39886   1.503  24.285   5.115  0.1336  0.0845  0.3257
 3291POPC   C3B39887   1.708  23.973   5.417  0.3996  0.2348  0.2822
 3291POPC   C4B39888   1.979  23.655   5.577 -0.6143  0.1293 -0.1403
 3292POPC   NC339889   6.500  12.421   3.661  0.0181  0.1254  0.0941
 3292POPC   PO439890   6.551  12.206   3.951 -0.2192 -0.0457  0.0008
 3292POPC   GL139891   6.701  12.496   4.230  0.2202  0.2383 -0.1263
 3292POPC   GL239892   6.551  12.438   4.453  0.0278  0.1815 -0.1122
 3292POPC   C1A39893   6.946  12.208   4.549  0.0258 -0.1857 -0.2935
 3292POPC   D2A39894   7.303  11.906   4.785 -0.4021  0.2085 -0.0354
 3292POPC   C3A39895   7.266  11.682   5.176  0.0805 -0.1454 -0.0934
 3292POPC   C4A39896   7.135  11.663   5.645 -0.1969  0.0239  0.1545
 3292POPC   C1B39897   6.600  12.320   4.883  0.0999 -0.1459 -0.2158
 3292POPC   C2B39898   6.550  12.351   5.362 -0.0564 -0.0144  0.0708
 3292POPC   C3B39899   6.453  12.338   5.828 -0.0959 -0.1846 -0.1192
 3292POPC   C4B39900   6.552  12.170   6.295 -0.1663  0.2258  0.2016
 3293POPC   NC339901   7.941  24.610   3.755 -0.0101  0.0797 -0.0973
 3293POPC   PO439902   7.778  24.837   4.026  0.1240  0.0987 -0.1878
 3293POPC   GL139903   7.687  24.735   4.380  0.0706  0.1005 -0.1599
 3293POPC   GL239904   7.497  24.569   4.372  0.2013 -0.0296 -0.0375
 3293POPC   C1A39905   7.822  24.652   4.843  0.0759  0.2514  0.0193
 3293POPC   D2A39906   7.892  24.507   5.282 -0.0137  0.0469  0.3524
 3293POPC   C3A39907   7.560  24.567   5.646 -0.2103  0.1661  0.1439
 3293POPC   C4A39908   7.399  24.857   5.915 -0.2929 -0.2314  0.0277
 3293POPC   C1B39909   7.428  24.381   4.784  0.1267  0.1183 -0.1752
 3293POPC   C2B39910   7.538  24.137   5.208  0.1299 -0.0746  0.1474
 3293POPC   C3B39911   7.277  24.126   5.624  0.2711  0.1471  0.2460
 3293POPC   C4B39912   7.350  24.250   6.051  0.0236 -0.0615  0.0182
 3294POPC   NC339913   3.387  25.686   3.551  0.2484 -0.2096 -0.3897
 3294POPC   PO439914   3.686  25.932   3.662 -0.1815 -0.1759 -0.1127
 3294POPC   GL139915   3.686  25.778   4.072  0.2430  0.3614 -0.0405
 3294POPC   GL239916   3.384  25.759   4.054 -0.0853  0.3424  0.2283
 3294POPC   C1A39917   3.688  25.806   4.525 -0.0540  0.0159 -0.0855
 3294POPC   D2A39918   4.077  25.687   4.765 -0.2642 -0.0540 -0.0553
 3294POPC   C3A39919   4.457  25.819   4.908  0.2368 -0.0231  0.2213
 3294POPC   C4A39920   4.816  26.068   5.088 -0.0928  0.1121 -0.3188
 3294POPC   C1B39921   3.223  25.442   4.382 -0.0591 -0.2763  0.1387
 3294POPC   C2B39922   3.031  25.422   4.834  0.0751 -0.0837 -0.1096
 3294POPC   C3B39923   3.005  24.999   5.027  0.0802 -0.0354 -0.1752
 3294POPC   C4B39924   2.832  24.650   4.767 -0.0646 -0.1032 -0.0363
 3295POPC   NC339925  12.273   0.945   3.912  0.3057 -0.0485 -0.0103
 3295POPC   PO439926  12.235   0.570   3.733  0.4271  0.3076 -0.2109
 3295POPC   GL139927  12.022   0.366   4.046  0.1999  0.0050  0.0672
 3295POPC   GL239928  12.173   0.492   4.249  0.1020 -0.2626  0.0715
 3295POPC   C1A39929  11.904  -0.063   4.283 -0.1209 -0.1198  0.2494
 3295POPC   D2A39930  11.813  -0.400   4.535  0.3340  0.2519  0.0186
 3295POPC   C3A39931  11.398  -0.380   4.770 -0.0015 -0.1064  0.0484
 3295POPC   C4A39932  10.942  -0.297   4.614  0.2400 -0.2023 -0.3531
 3295POPC   C1B39933  12.386   0.678   4.600 -0.1446 -0.1863 -0.0979
 3295POPC   C2B39934  12.274   0.987   5.005 -0.2008  0.1931 -0.0167
 3295POPC   C3B39935  12.361   1.046   5.486  0.2062  0.0257  0.1299
 3295POPC   C4B39936  12.462   0.940   5.896 -0.1019 -0.2943  0.3700
 3296POPC   NC339937   0.610  20.913   3.935  0.2536 -0.0516  0.1265
 3296POPC   PO439938   0.982  20.853   3.864  0.1644  0.0922  0.1538
 3296POPC   GL139939   0.982  20.756   4.182 -0.3447  0.2670  0.0750
 3296POPC   GL239940   1.128  20.576   4.365 -0.1037 -0.2757  0.0720
 3296POPC   C1A39941   0.642  20.627   4.465  0.2354 -0.0804  0.0503
 3296POPC   D2A39942   0.576  20.833   4.865  0.2417 -0.0667  0.0851
 3296POPC   C3A39943   0.248  20.772   5.215 -0.0706  0.3540  0.1137
 3296POPC   C4A39944  -0.134  20.517   5.422  0.1149  0.1183  0.2861
 3296POPC   C1B39945   1.441  20.730   4.622 -0.0362  0.0396 -0.1217
 3296POPC   C2B39946   1.555  20.781   5.088 -0.3028 -0.1754 -0.1623
 3296POPC   C3B39947   1.890  20.633   5.436 -0.0999  0.4944 -0.1110
 3296POPC   C4B39948   2.292  20.730   5.712 -0.2933 -0.0450  0.0067
 3297POPC   NC339949  13.912  31.270   3.765 -0.2016 -0.1545 -0.0389
 3297POPC   PO439950  13.758  30.962   3.501  0.0115 -0.0068 -0.0979
 3297POPC   GL139951  13.653  30.700   3.777 -0.0322 -0.1386  0.1929
 3297POPC   GL239952  13.434  30.602   3.726  0.0542  0.0209 -0.2027
 3297POPC   C1A39953  13.736  30.907   4.177  0.1063  0.0076 -0.2083
 3297POPC   D2A39954  13.860  30.917   4.617  0.0447 -0.2251 -0.1240
 3297POPC   C3A39955  13.513  30.993   4.981 -0.0130  0.1262 -0.0244
 3297POPC   C4A39956  13.225  31.215   5.264  0.1274  0.3117 -0.0572
 3297POPC   C1B39957  13.335  30.546   4.211 -0.2132  0.0253  0.2414
 3297POPC   C2B39958  13.561  30.545   4.612  0.1621 -0.1233 -0.0045
 3297POPC   C3B39959  13.649  30.477   5.053  0.0325  0.0487  0.0942
 3297POPC   C4B39960  13.654  30.401   5.495  0.1939 -0.0059 -0.2598
 3298POPC   NC339961   4.923   1.592   3.429 -0.0132 -0.3376 -0.2603
 3298POPC   PO439962   4.617   1.801   3.324  0.3232  0.0169  0.3280
 3298POPC   GL139963   4.678   1.739   3.783  0.0337 -0.2777  0.4315
 3298POPC   GL239964   4.803   1.504   3.927 -0.0116  0.1770 -0.0625
 3298POPC   C1A39965   4.799   1.972   4.151  0.0128  0.0973 -0.1398
 3298POPC   D2A39966   5.047   2.180   4.492  0.0404  0.0345 -0.1220
 3298POPC   C3A39967   5.127   2.083   4.942 -0.0745 -0.1285 -0.0352
 3298POPC   C4A39968   4.996   2.318   5.340  0.1206  0.2588  0.3149
 3298POPC   C1B39969   4.769   1.159   4.256  0.1179  0.2783  0.2509
 3298POPC   C2B39970   4.550   0.904   4.615  0.3036  0.1348  0.0945
 3298POPC   C3B39971   4.683   0.954   5.053 -0.1373 -0.3521  0.1733
 3298POPC   C4B39972   4.658   0.795   5.471  0.0200  0.3941  0.1076
 3299POPC   NC339973   6.220   1.147   3.807 -0.1307 -0.0273 -0.1802
 3299POPC   PO439974   6.071   1.527   3.783 -0.1274 -0.2284  0.0474
 3299POPC   GL139975   5.731   1.478   4.115 -0.0987  0.2921  0.0182
 3299POPC   GL239976   5.779   1.140   4.078 -0.1139  0.1209  0.0471
 3299POPC   C1A39977   5.641   1.220   4.521  0.5422  0.0909 -0.2365
 3299POPC   D2A39978   5.549   1.145   4.968 -0.0991 -0.0567  0.0700
 3299POPC   C3A39979   5.730   0.858   5.293  0.0617 -0.0048  0.1201
 3299POPC   C4A39980   5.925   0.657   5.588  0.1274 -0.0273  0.2704
 3299POPC   C1B39981   6.164   0.964   4.294 -0.0986  0.3563  0.0588
 3299POPC   C2B39982   6.371   0.930   4.663  0.2456 -0.0029  0.3753
 3299POPC   C3B39983   6.806   0.807   4.755 -0.1942 -0.3002  0.1580
 3299POPC   C4B39984   7.276   0.966   4.814 -0.2559 -0.0200 -0.2815
 3300POPC   NC339985  10.228  10.664   3.561 -0.1656  0.1528  0.1661
 3300POPC   PO439986   9.923  10.720   3.357  0.1095 -0.2140  0.0522
 3300POPC   GL139987   9.790  10.607   3.662 -0.0197 -0.3829 -0.0958
 3300POPC   GL239988   9.880  10.293   3.636 -0.2943 -0.0023 -0.1935
 3300POPC   C1A39989   9.604  10.447   4.018  0.1651  0.0454  0.0686
 3300POPC   D2A39990   9.517  10.396   4.479  0.0581  0.2487  0.0074
 3300POPC   C3A39991   9.333  10.279   4.875  0.1009  0.3471  0.2113
 3300POPC   C4A39992   9.387  10.317   5.332  0.1070  0.0195 -0.0340
 3300POPC   C1B39993  10.102  10.308   4.025 -0.0428 -0.0001 -0.2963
 3300POPC   C2B39994  10.333   9.996   4.318 -0.0121 -0.2989 -0.3020
 3300POPC   C3B39995  10.641   9.712   4.465 -0.2207  0.1302  0.0676
 3300POPC   C4B39996  10.610   9.292   4.496  0.0044 -0.0850 -0.0209
 3301POPC   NC339997   9.637   9.117   3.103  0.3747 -0.0169 -0.0781
 3301POPC   PO439998  10.003   9.134   3.261 -0.0447 -0.3076  0.4686
 3301POPC   GL139999   9.625   9.126   3.595 -0.1487  0.1152 -0.1375
 3301POPC   GL240000   9.680   9.399   3.545  0.3472 -0.3253  0.1946
 3301POPC   C1A40001   9.327   9.034   3.987 -0.0536 -0.0522 -0.1268
 3301POPC   D2A40002   9.191   8.715   4.328 -0.1953  0.0326  0.1808
 3301POPC   C3A40003   9.003   8.760   4.724 -0.1245  0.0561  0.1968
 3301POPC   C4A40004   8.733   9.050   5.048  0.0907  0.3913  0.1756
 3301POPC   C1B40005   9.350   9.501   3.860 -0.1775  0.0530 -0.1087
 3301POPC   C2B40006   9.277   9.811   4.281 -0.0651  0.1319  0.1328
 3301POPC   C3B40007   9.030  10.035   4.556  0.3976 -0.0343  0.0192
 3301POPC   C4B40008   8.844  10.212   4.883  0.0040  0.1510  0.3269
 3302POPC   NC340009  12.585  18.734   3.151  0.0517  0.3892 -0.0834
 3302POPC   PO440010  12.589  18.771   3.510 -0.1093 -0.1254 -0.3886
 3302POPC   GL140011  12.580  18.529   3.847 -0.0357  0.0493  0.0178
 3302POPC   GL240012  12.547  18.319   4.027  0.1241 -0.0606 -0.0431
 3302POPC   C1A40013  12.309  18.717   4.211 -0.0125 -0.3752 -0.3217
 3302POPC   D2A40014  12.137  18.755   4.582  0.0301 -0.1950  0.1367
 3302POPC   C3A40015  12.277  18.607   5.026 -0.0053  0.2092  0.2137
 3302POPC   C4A40016  12.523  18.744   5.345 -0.2007 -0.3304  0.3807
 3302POPC   C1B40017  12.525  18.429   4.529 -0.0492 -0.0009 -0.1090
 3302POPC   C2B40018  12.693  18.332   4.941 -0.0395  0.1292  0.2635
 3302POPC   C3B40019  12.895  18.458   5.349 -0.2112  0.0606 -0.2709
 3302POPC   C4B40020  12.802  18.577   5.770  0.2540 -0.0973 -0.1715
 3303POPC   NC340021   7.384  26.426   3.350 -0.1595  0.3879 -0.0121
 3303POPC   PO440022   7.280  26.648   3.658  0.1197  0.0254  0.0800
 3303POPC   GL140023   7.334  26.599   4.047 -0.2108 -0.0765 -0.2916
 3303POPC   GL240024   7.570  26.503   4.118 -0.0921 -0.1095 -0.2223
 3303POPC   C1A40025   7.348  26.729   4.536 -0.1004  0.1109  0.4673
 3303POPC   D2A40026   7.227  26.991   4.921  0.2110 -0.0845  0.0700
 3303POPC   C3A40027   6.761  26.990   5.022  0.0494  0.0674 -0.1516
 3303POPC   C4A40028   6.473  27.084   5.432  0.0115 -0.1780  0.1835
 3303POPC   C1B40029   7.811  26.498   4.502 -0.0332  0.1494  0.0384
 3303POPC   C2B40030   7.770  26.348   4.904 -0.0552 -0.2134 -0.2862
 3303POPC   C3B40031   7.760  26.137   5.349  0.0124  0.0980 -0.0223
 3303POPC   C4B40032   7.493  25.713   5.495  0.1116 -0.1353  0.1360
 3304POPC   NC340033   4.908  20.756   4.341  0.4535  0.0156  0.1673
 3304POPC   PO440034   4.718  20.782   4.033 -0.0343  0.1444 -0.0263
 3304POPC   GL140035   4.413  20.743   4.349 -0.2141 -0.1058  0.2465
 3304POPC   GL240036   4.155  20.749   4.079  0.0775 -0.4196  0.3394
 3304POPC   C1A40037   4.287  20.465   4.691  0.3283 -0.2322 -0.0038
 3304POPC   D2A40038   4.571  20.292   5.080  0.3696  0.1714  0.0034
 3304POPC   C3A40039   4.419  20.037   5.425 -0.0793 -0.1736  0.0766
 3304POPC   C4A40040   4.238  19.686   5.575 -0.0070 -0.1315 -0.0658
 3304POPC   C1B40041   4.125  21.025   4.493  0.2317  0.1668  0.0293
 3304POPC   C2B40042   4.201  21.295   4.865 -0.1314  0.3407 -0.1715
 3304POPC   C3B40043   4.109  21.318   5.310 -0.0048  0.2129  0.1558
 3304POPC   C4B40044   4.195  21.649   5.703  0.0435 -0.0502  0.0230
 3305POPC   NC340045   4.416  27.831   3.652  0.0242 -0.1544 -0.0043
 3305POPC   PO440046   4.469  27.405   3.696 -0.1136  0.0055  0.2567
 3305POPC   GL140047   4.578  27.561   4.023 -0.1694  0.4159 -0.0883
 3305POPC   GL240048   4.790  27.699   3.952  0.0474 -0.2111 -0.1473
 3305POPC   C1A40049   4.355  27.598   4.419  0.0926  0.6378  0.0931
 3305POPC   D2A40050   4.211  27.773   4.825 -0.0216 -0.0032  0.1115
 3305POPC   C3A40051   4.341  27.996   5.175  0.1198 -0.0041 -0.1717
 3305POPC   C4A40052   4.518  28.266   5.440 -0.2872 -0.2107  0.1403
 3305POPC   C1B40053   4.833  27.589   4.417 -0.2220  0.1074  0.0393
 3305POPC   C2B40054   4.626  27.239   4.688 -0.0398  0.0017  0.0497
 3305POPC   C3B40055   4.410  26.947   4.953  0.1010  0.1244 -0.0499
 3305POPC   C4B40056   4.344  26.788   5.399 -0.1564  0.0697  0.0090
 3306POPC   NC340057  11.281  29.914   3.658 -0.2542  0.0831  0.3121
 3306POPC   PO440058  11.201  30.259   3.552 -0.1384  0.0834  0.0135
 3306POPC   GL140059  11.181  30.318   3.888 -0.1229 -0.0513  0.2806
 3306POPC   GL240060  11.421  30.308   3.997 -0.0440 -0.3426  0.0962
 3306POPC   C1A40061  11.077  30.508   4.323  0.1188  0.0310 -0.0859
 3306POPC   D2A40062  10.761  30.452   4.611  0.0637 -0.0276 -0.0546
 3306POPC   C3A40063  10.783  30.543   5.048 -0.0543 -0.0512  0.0888
 3306POPC   C4A40064  10.817  30.273   5.395 -0.1267 -0.2963 -0.2083
 3306POPC   C1B40065  11.576  30.150   4.418  0.3165  0.0072  0.3949
 3306POPC   C2B40066  11.624  29.965   4.859 -0.0657 -0.3483 -0.2555
 3306POPC   C3B40067  11.639  29.879   5.272 -0.1007  0.1165 -0.4001
 3306POPC   C4B40068  12.013  29.901   5.522 -0.1201 -0.0012  0.0475
 3307POPC   NC340069   4.080  19.382   3.665 -0.1084 -0.0598 -0.2770
 3307POPC   PO440070   3.827  19.688   3.588  0.3578  0.1146 -0.1585
 3307POPC   GL140071   3.980  19.770   3.970  0.1871  0.2358 -0.2012
 3307POPC   GL240072   4.270  19.729   4.029  0.0571 -0.1508 -0.0353
 3307POPC   C1A40073   3.757  19.775   4.377  0.0308  0.2255 -0.0744
 3307POPC   D2A40074   3.652  19.733   4.812 -0.1170 -0.3768  0.2048
 3307POPC   C3A40075   3.505  19.614   5.232 -0.0050  0.1583  0.1012
 3307POPC   C4A40076   3.327  19.684   5.691 -0.0158 -0.1261 -0.2716
 3307POPC   C1B40077   4.040  19.385   4.278 -0.1425 -0.1865 -0.0290
 3307POPC   C2B40078   4.035  18.909   4.393  0.0633  0.1259 -0.0916
 3307POPC   C3B40079   3.775  18.731   4.663 -0.1489  0.1751 -0.2334
 3307POPC   C4B40080   3.364  18.609   4.636 -0.3052 -0.0324  0.0725
 3308POPC   NC340081   2.737   7.465   3.366  0.0986 -0.0292  0.2508
 3308POPC   PO440082   2.642   7.060   3.404 -0.3179  0.2470  0.0312
 3308POPC   GL140083   2.452   7.080   3.736 -0.1819  0.2627  0.2362
 3308POPC   GL240084   2.486   6.788   3.797 -0.0693 -0.1440 -0.1294
 3308POPC   C1A40085   2.222   7.138   4.091  0.1032 -0.0631  0.2068
 3308POPC   D2A40086   2.134   6.796   4.421  0.0987  0.3668  0.2252
 3308POPC   C3A40087   1.677   6.914   4.569  0.0811 -0.0690 -0.0697
 3308POPC   C4A40088   1.353   7.016   4.871  0.0149 -0.0965 -0.0546
 3308POPC   C1B40089   2.616   6.850   4.321 -0.0155 -0.0552 -0.0863
 3308POPC   C2B40090   2.701   6.679   4.684 -0.0807 -0.1891 -0.0322
 3308POPC   C3B40091   2.614   6.644   5.130 -0.1502 -0.3120 -0.0706
 3308POPC   C4B40092   2.456   6.519   5.620  0.1120  0.0740  0.2036
 3309POPC   NC340093   7.803  22.300   3.002 -0.0330 -0.4206 -0.4759
 3309POPC   PO440094   7.464  22.364   3.173  0.1599 -0.0749 -0.2649
 3309POPC   GL140095   7.375  22.398   3.548  0.1843 -0.0618 -0.0287
 3309POPC   GL240096   7.090  22.393   3.493  0.0101  0.1278 -0.4564
 3309POPC   C1A40097   7.542  22.777   3.813 -0.1837 -0.0126 -0.0240
 3309POPC   D2A40098   7.906  22.795   4.114 -0.3627 -0.1686 -0.0174
 3309POPC   C3A40099   7.725  22.874   4.579 -0.0606 -0.1362 -0.0802
 3309POPC   C4A40100   7.980  22.981   4.931 -0.2534 -0.1533  0.2806
 3309POPC   C1B40101   6.958  22.257   3.939  0.1991 -0.0245  0.0508
 3309POPC   C2B40102   6.635  22.094   4.260  0.0655 -0.1552 -0.2353
 3309POPC   C3B40103   6.519  21.791   4.584  0.2579  0.2260 -0.0252
 3309POPC   C4B40104   6.287  21.851   5.031  0.3164 -0.1412 -0.0009
 3310POPC   NC340105   4.689   6.027   3.784 -0.1045  0.0444 -0.0540
 3310POPC   PO440106   4.802   5.671   3.890  0.0479 -0.0375 -0.1366
 3310POPC   GL140107   4.535   5.713   4.125  0.0621 -0.1478 -0.1042
 3310POPC   GL240108   4.322   5.913   4.087  0.1351  0.0339  0.1273
 3310POPC   C1A40109   4.573   5.900   4.539 -0.0404  0.1139  0.0452
 3310POPC   D2A40110   4.582   6.004   5.042 -0.0914 -0.1830 -0.0838
 3310POPC   C3A40111   4.396   6.326   5.361  0.3449  0.4741 -0.2683
 3310POPC   C4A40112   4.299   6.706   5.622 -0.1041 -0.0994 -0.0432
 3310POPC   C1B40113   3.989   5.817   4.345  0.0606  0.1615 -0.2181
 3310POPC   C2B40114   3.812   6.043   4.725 -0.0417  0.0506  0.0055
 3310POPC   C3B40115   3.452   6.112   4.967  0.1453  0.0531  0.2404
 3310POPC   C4B40116   3.392   6.097   5.449 -0.1464 -0.6881 -0.0471
 3311POPC   NC340117  13.969  27.054   3.566  0.0319  0.1684  0.2524
 3311POPC   PO440118  14.137  26.970   3.200 -0.0049  0.1003  0.1845
 3311POPC   GL140119  14.372  27.342   3.331  0.1364 -0.3083 -0.0627
 3311POPC   GL240120  14.471  27.276   3.555  0.0102  0.0428 -0.0754
 3311POPC   C1A40121  14.055  27.644   3.551 -0.0850 -0.0296  0.0551
 3311POPC   D2A40122  13.859  28.028   3.432 -0.0432 -0.0247  0.0980
 3311POPC   C3A40123  14.044  28.392   3.710 -0.2290 -0.0568 -0.3107
 3311POPC   C4A40124  14.065  28.620   4.076 -0.2981  0.0004  0.1930
 3311POPC   C1B40125  14.232  27.336   3.966  0.0328 -0.0437  0.1631
 3311POPC   C2B40126  13.933  27.534   4.233 -0.0078 -0.1612 -0.1956
 3311POPC   C3B40127  13.992  27.682   4.698  0.1849  0.1149  0.0046
 3311POPC   C4B40128  14.225  27.530   5.045  0.0892  0.0809  0.1023
 3312POPC   NC340129  15.649   9.966   3.563  0.0729 -0.0522 -0.0771
 3312POPC   PO440130  15.706  10.314   3.398 -0.0816 -0.2647 -0.1923
 3312POPC   GL140131  15.663  10.626   3.620 -0.0381 -0.1452  0.1227
 3312POPC   GL240132  15.585  10.597   3.869 -0.2281 -0.4309 -0.0046
 3312POPC   C1A40133  15.684  11.087   3.824  0.2524 -0.0021 -0.1102
 3312POPC   D2A40134  15.472  11.515   3.783 -0.0104 -0.0641  0.0055
 3312POPC   C3A40135  15.434  11.860   4.037 -0.0023 -0.0670 -0.0629
 3312POPC   C4A40136  15.318  12.329   4.019 -0.1079  0.2293  0.0357
 3312POPC   C1B40137  15.604  10.882   4.257 -0.0183 -0.0883 -0.3211
 3312POPC   C2B40138  15.679  10.760   4.709  0.1884 -0.0726  0.1314
 3312POPC   C3B40139  15.928  10.673   5.115  0.0956  0.1896  0.0154
 3312POPC   C4B40140  16.253  10.700   5.502 -0.0474 -0.3394 -0.0138
 3313POPC   NC340141  13.982  10.848   3.569 -0.1016 -0.0712 -0.1491
 3313POPC   PO440142  14.139  11.156   3.767 -0.0494  0.1262 -0.0579
 3313POPC   GL140143  14.392  11.323   3.992  0.0909  0.1803 -0.0452
 3313POPC   GL240144  14.289  11.324   4.227 -0.2459  0.0555 -0.1506
 3313POPC   C1A40145  14.743  11.112   4.214  0.1640  0.0155 -0.0533
 3313POPC   D2A40146  15.148  11.100   4.145  0.5893 -0.0425 -0.2405
 3313POPC   C3A40147  15.494  11.339   4.262 -0.3680 -0.1855  0.0638
 3313POPC   C4A40148  15.938  11.195   4.345 -0.2899 -0.2260  0.2812
 3313POPC   C1B40149  14.373  11.194   4.660 -0.0946 -0.0780 -0.0600
 3313POPC   C2B40150  14.777  11.017   4.811 -0.0230  0.0175 -0.1110
 3313POPC   C3B40151  15.059  10.829   5.135  0.1347  0.4869  0.2041
 3313POPC   C4B40152  15.179  10.948   5.576  0.2275  0.1992 -0.4734
 3314POPC   NC340153  11.183  16.632   3.918  0.1828 -0.2760 -0.1185
 3314POPC   PO440154  11.315  16.901   3.623  0.0645  0.0770  0.0892
 3314POPC   GL140155  11.611  16.875   3.940 -0.0003 -0.3107  0.1143
 3314POPC   GL240156  11.469  17.172   4.024  0.0985  0.1854  0.0227
 3314POPC   C1A40157  11.977  17.066   4.166 -0.1755  0.0074  0.0189
 3314POPC   D2A40158  12.150  17.521   4.254  0.0857 -0.0830 -0.3146
 3314POPC   C3A40159  12.134  17.605   4.684 -0.4168  0.1996 -0.0267
 3314POPC   C4A40160  11.903  17.824   5.007 -0.1806  0.2009 -0.3079
 3314POPC   C1B40161  11.094  17.263   4.333 -0.4436  0.0347  0.0850
 3314POPC   C2B40162  11.220  17.296   4.759  0.1981  0.0706 -0.1725
 3314POPC   C3B40163  11.088  17.315   5.190 -0.1261 -0.2379 -0.0047
 3314POPC   C4B40164  11.196  17.327   5.586 -0.0124  0.2109 -0.3527
 3315POPC   NC340165  10.613  23.861   3.645 -0.0687 -0.2949 -0.0658
 3315POPC   PO440166  10.719  23.525   3.461  0.0690  0.1369  0.0172
 3315POPC   GL140167  10.682  23.489   3.875 -0.3916 -0.1997 -0.0909
 3315POPC   GL240168  10.609  23.241   4.076 -0.0320  0.1825 -0.0070
 3315POPC   C1A40169  10.597  23.795   4.188 -0.3397 -0.0979 -0.0066
 3315POPC   D2A40170  10.629  23.796   4.647 -0.1593 -0.0825 -0.0865
 3315POPC   C3A40171  10.515  23.405   4.875  0.3683 -0.0729 -0.1781
 3315POPC   C4A40172  10.732  23.204   5.215  0.0981  0.1340  0.2926
 3315POPC   C1B40173  10.641  23.067   4.473  0.3003 -0.0804  0.1058
 3315POPC   C2B40174  10.903  22.935   4.807  0.2241 -0.1156  0.0153
 3315POPC   C3B40175  11.319  22.934   5.002 -0.1600 -0.0722  0.1815
 3315POPC   C4B40176  11.628  22.567   5.151  0.3548 -0.1527 -0.3331
 3316POPC   NC340177  14.957   9.798   3.429 -0.1690 -0.0116  0.0737
 3316POPC   PO440178  15.294   9.690   3.608  0.2328  0.1121  0.0764
 3316POPC   GL140179  15.249   9.725   3.954  0.1653  0.2358 -0.2481
 3316POPC   GL240180  15.449   9.908   4.037 -0.4355  0.0201 -0.0527
 3316POPC   C1A40181  15.098   9.531   4.356  0.1215 -0.2095 -0.3194
 3316POPC   D2A40182  14.970   9.548   4.804 -0.1715  0.1283  0.1043
 3316POPC   C3A40183  15.201   9.917   4.996  0.0041 -0.1338  0.6729
 3316POPC   C4A40184  15.253  10.148   5.426  0.1357 -0.1234 -0.0490
 3316POPC   C1B40185  15.362  10.348   4.206  0.2834 -0.0446  0.1813
 3316POPC   C2B40186  15.224  10.603   4.542  0.0143  0.0539  0.3087
 3316POPC   C3B40187  15.252  11.023   4.730  0.3299  0.0663  0.0239
 3316POPC   C4B40188  15.120  11.375   5.087 -0.2673  0.2108 -0.1154
 3317POPC   NC340189   7.686  11.522   3.344 -0.2425  0.0676 -0.2387
 3317POPC   PO440190   7.285  11.413   3.291 -0.1244  0.0738  0.0861
 3317POPC   GL140191   7.307  11.298   3.615 -0.4343 -0.2890  0.0657
 3317POPC   GL240192   7.122  11.410   3.840  0.2843 -0.1714 -0.2232
 3317POPC   C1A40193   7.408  10.939   3.831 -0.2302 -0.1781  0.1080
 3317POPC   D2A40194   7.521  10.834   4.203 -0.0127 -0.1229 -0.0095
 3317POPC   C3A40195   7.946  10.780   4.157  0.0874  0.1457 -0.2929
 3317POPC   C4A40196   8.386  10.920   4.072 -0.1257  0.2407 -0.0158
 3317POPC   C1B40197   7.377  11.287   4.219 -0.1157 -0.1313 -0.0500
 3317POPC   C2B40198   7.492  11.467   4.667  0.3839 -0.0404  0.2601
 3317POPC   C3B40199   7.561  11.329   5.030  0.2014 -0.1443  0.0124
 3317POPC   C4B40200   7.683  11.090   5.355 -0.2217  0.0742  0.2263
 3318POPC   NC340201  15.342  29.660   2.648 -0.1703 -0.0759  0.1809
 3318POPC   PO440202  15.380  29.845   2.987 -0.1278  0.0959  0.1185
 3318POPC   GL140203  15.573  29.688   3.337 -0.0024 -0.0346  0.1951
 3318POPC   GL240204  15.357  29.687   3.572 -0.0735  0.1482 -0.1507
 3318POPC   C1A40205  15.725  29.382   3.619 -0.4624  0.0150  0.2595
 3318POPC   D2A40206  15.931  29.505   4.023 -0.0310 -0.0516  0.0325
 3318POPC   C3A40207  15.935  29.197   4.430  0.0944 -0.3234 -0.2088
 3318POPC   C4A40208  16.030  29.206   4.874 -0.4895  0.0073 -0.1265
 3318POPC   C1B40209  15.154  29.421   3.905  0.1084 -0.3420  0.0104
 3318POPC   C2B40210  14.874  29.141   4.185  0.1270 -0.1555 -0.2448
 3318POPC   C3B40211  14.563  29.114   4.487  0.0567  0.1468  0.1122
 3318POPC   C4B40212  14.485  29.080   4.985 -0.0480 -0.0765  0.1334
 3319POPC   NC340213   0.206   3.143   3.593 -0.0667 -0.2193  0.0284
 3319POPC   PO440214   0.221   3.478   3.794  0.3947 -0.1008 -0.1660
 3319POPC   GL140215   0.438   3.266   4.143  0.0072 -0.0049  0.0304
 3319POPC   GL240216   0.357   2.996   4.074  0.1509 -0.1767  0.2643
 3319POPC   C1A40217   0.603   3.449   4.538  0.1885 -0.0006 -0.0188
 3319POPC   D2A40218   0.519   3.671   4.930  0.1462 -0.2725  0.0645
 3319POPC   C3A40219   0.660   3.461   5.287 -0.0843  0.1570 -0.1113
 3319POPC   C4A40220   0.874   3.240   5.612  0.1961 -0.1001 -0.3411
 3319POPC   C1B40221   0.503   2.925   4.490  0.0357  0.1466  0.1734
 3319POPC   C2B40222   0.561   2.960   4.937 -0.1486  0.2839  0.0680
 3319POPC   C3B40223   0.626   2.906   5.379 -0.1093 -0.0815  0.4313
 3319POPC   C4B40224   0.539   2.942   5.794  0.1434 -0.0354  0.2166
 3320POPC   NC340225  15.143  20.052   3.854 -0.5436 -0.0687 -0.2198
 3320POPC   PO440226  15.191  19.651   3.697  0.1622 -0.0848  0.2107
 3320POPC   GL140227  15.220  19.378   3.926  0.4123 -0.0392 -0.0638
 3320POPC   GL240228  14.972  19.323   3.965 -0.0257  0.0400 -0.1706
 3320POPC   C1A40229  15.248  19.163   4.389  0.2156 -0.0888 -0.1480
 3320POPC   D2A40230  15.022  19.195   4.781 -0.2233 -0.1196 -0.0749
 3320POPC   C3A40231  14.938  18.880   5.082 -0.0200 -0.1298  0.1086
 3320POPC   C4A40232  14.689  18.740   5.463  0.0417  0.1190 -0.0304
 3320POPC   C1B40233  14.915  19.556   4.421  0.0300  0.1784 -0.1074
 3320POPC   C2B40234  14.940  19.655   4.898  0.0012  0.0298  0.0160
 3320POPC   C3B40235  14.646  19.747   5.233  0.1547 -0.1001  0.1208
 3320POPC   C4B40236  14.274  19.587   5.464  0.1493  0.1018  0.2682
 3321POPC   NC340237  15.561   4.141   3.975  0.1849 -0.0913  0.0983
 3321POPC   PO440238  15.470   4.431   4.264 -0.1247  0.1161  0.0358
 3321POPC   GL140239  15.628   4.726   4.572  0.2081 -0.1319 -0.2358
 3321POPC   GL240240  15.885   4.933   4.423  0.0059  0.3130  0.1310
 3321POPC   C1A40241  15.589   4.750   5.046  0.1984 -0.0328  0.0505
 3321POPC   D2A40242  15.362   4.860   5.425 -0.0619  0.3668 -0.2230
 3321POPC   C3A40243  15.454   5.060   5.828  0.1325  0.0119  0.4120
 3321POPC   C4A40244  15.279   5.290   6.217  0.0222 -0.1961  0.0893
 3321POPC   C1B40245  15.934   5.097   4.794  0.0342 -0.0357  0.1462
 3321POPC   C2B40246  15.800   5.305   5.266 -0.1674 -0.0904  0.1469
 3321POPC   C3B40247  15.922   5.260   5.706 -0.1733 -0.0918  0.0340
 3321POPC   C4B40248  15.929   5.103   6.086  0.0501 -0.0507 -0.3589
 3322POPC   NC340249  12.949  26.582   3.140  0.0831  0.0910  0.1198
 3322POPC   PO440250  13.247  26.826   3.167 -0.2240  0.2042  0.0261
 3322POPC   GL140251  13.532  26.918   3.434 -0.0693 -0.1186  0.3470
 3322POPC   GL240252  13.489  26.936   3.752 -0.0799  0.2626  0.5214
 3322POPC   C1A40253  13.489  27.353   3.444 -0.3691  0.1437  0.0476
 3322POPC   D2A40254  13.244  27.725   3.372  0.1000 -0.0263  0.0604
 3322POPC   C3A40255  13.417  28.111   3.144  0.1013 -0.3102 -0.0092
 3322POPC   C4A40256  13.891  28.270   3.047 -0.0729  0.2729  0.1469
 3322POPC   C1B40257  13.623  27.382   3.900 -0.0370  0.1400 -0.0283
 3322POPC   C2B40258  13.543  27.820   3.840  0.1175  0.0515 -0.0636
 3322POPC   C3B40259  13.504  28.248   3.664  0.0685  0.2839 -0.2426
 3322POPC   C4B40260  13.464  28.673   3.808 -0.1845  0.0459 -0.0749
 3323POPC   NC340261  13.410   4.832   4.030  0.0023 -0.1733 -0.0651
 3323POPC   PO440262  13.240   5.210   3.963  0.0893  0.0327 -0.1069
 3323POPC   GL140263  13.095   5.178   4.392  0.1437 -0.0632 -0.2022
 3323POPC   GL240264  12.784   5.099   4.263 -0.1804  0.0117  0.0946
 3323POPC   C1A40265  13.162   5.135   4.838 -0.1303  0.0340  0.2260
 3323POPC   D2A40266  13.134   5.233   5.262 -0.0217 -0.1749  0.2999
 3323POPC   C3A40267  13.118   5.024   5.655  0.2381  0.1509 -0.1696
 3323POPC   C4A40268  12.846   5.060   6.095 -0.3179 -0.1030  0.0776
 3323POPC   C1B40269  12.705   5.340   4.626  0.0026 -0.1954 -0.1304
 3323POPC   C2B40270  12.634   5.548   5.014  0.1119 -0.0763  0.2369
 3323POPC   C3B40271  12.682   5.654   5.447  0.1354  0.0773 -0.1452
 3323POPC   C4B40272  12.633   5.875   5.870  0.2040 -0.2337  0.0205
 3324POPC   NC340273   9.569  14.927   3.823 -0.1940 -0.0846  0.1407
 3324POPC   PO440274   9.222  14.838   3.778  0.0550  0.1113  0.0164
 3324POPC   GL140275   9.073  14.981   4.195 -0.1197  0.0610  0.0780
 3324POPC   GL240276   8.749  14.948   4.207 -0.1502  0.2598  0.1912
 3324POPC   C1A40277   9.246  14.939   4.608 -0.3340  0.2112 -0.0783
 3324POPC   D2A40278   9.304  14.848   5.037 -0.1903  0.0111  0.1145
 3324POPC   C3A40279   9.742  14.752   5.081 -0.0547 -0.0939 -0.0036
 3324POPC   C4A40280  10.007  14.534   5.338  0.0048  0.0934 -0.0282
 3324POPC   C1B40281   8.807  15.255   4.544 -0.1275  0.1256  0.0895
 3324POPC   C2B40282   8.873  15.161   4.960 -0.0498 -0.0232  0.1650
 3324POPC   C3B40283   8.883  15.128   5.416 -0.2900 -0.3057  0.4590
 3324POPC   C4B40284   8.915  15.319   5.821 -0.0784 -0.2143  0.0771
 3325POPC   NC340285   2.140  13.480   3.464 -0.0419  0.3038  0.2135
 3325POPC   PO440286   2.205  13.846   3.621  0.1545  0.2726  0.0488
 3325POPC   GL140287   2.239  13.843   4.011  0.0645  0.3318  0.0249
 3325POPC   GL240288   2.059  13.715   4.246  0.2541 -0.2244  0.0667
 3325POPC   C1A40289   2.526  14.056   4.258  0.4067 -0.1052 -0.2849
 3325POPC   D2A40290   2.666  14.115   4.645  0.0715  0.1320 -0.2335
 3325POPC   C3A40291   2.961  13.915   4.921  0.1057  0.0565  0.0521
 3325POPC   C4A40292   3.336  13.617   4.919 -0.1019 -0.2011 -0.1442
 3325POPC   C1B40293   1.913  13.750   4.733 -0.1499 -0.0449 -0.2472
 3325POPC   C2B40294   1.681  13.708   5.174 -0.0756 -0.1236 -0.0787
 3325POPC   C3B40295   1.319  13.827   5.288  0.0041 -0.3628  0.0913
 3325POPC   C4B40296   0.872  13.992   5.304 -0.3728  0.0527  0.2861
 3326POPC   NC340297  11.083  26.200   4.074 -0.1497  0.0452  0.1235
 3326POPC   PO440298  11.194  26.553   3.956  0.4166  0.2381 -0.0685
 3326POPC   GL140299  11.567  26.620   4.010  0.0532  0.1596 -0.0832
 3326POPC   GL240300  11.566  26.355   4.274  0.3870 -0.0055  0.0191
 3326POPC   C1A40301  11.768  26.940   4.300  0.0594 -0.2667  0.1775
 3326POPC   D2A40302  11.847  27.121   4.746 -0.1116 -0.1130 -0.1098
 3326POPC   C3A40303  12.211  27.190   5.113  0.1132 -0.0695  0.0333
 3326POPC   C4A40304  12.296  27.396   5.566  0.2724 -0.0857  0.0082
 3326POPC   C1B40305  11.497  26.444   4.718  0.1373 -0.1579  0.0410
 3326POPC   C2B40306  11.414  26.376   5.194  0.0564 -0.0174  0.0096
 3326POPC   C3B40307  11.575  26.082   5.546 -0.1392  0.1312  0.0678
 3326POPC   C4B40308  11.624  26.211   6.025  0.1302 -0.1402  0.1778
 3327POPC   NC340309   0.715  23.277   2.932  0.1619 -0.0353 -0.0937
 3327POPC   PO440310   0.372  23.080   2.957  0.0300  0.0789 -0.0888
 3327POPC   GL140311   0.447  23.085   3.290  0.1079  0.0750 -0.0014
 3327POPC   GL240312   0.670  22.889   3.307  0.2868 -0.0839  0.0072
 3327POPC   C1A40313   0.515  23.416   3.592  0.3656 -0.2436 -0.3291
 3327POPC   D2A40314   0.260  23.745   3.829 -0.2020  0.0051  0.1823
 3327POPC   C3A40315   0.323  23.871   4.307  0.0742 -0.1392 -0.0385
 3327POPC   C4A40316   0.503  23.757   4.712  0.0626  0.0428  0.1576
 3327POPC   C1B40317   0.673  22.921   3.762  0.1724 -0.1244  0.1832
 3327POPC   C2B40318   0.631  22.712   4.185  0.0013 -0.0256  0.3192
 3327POPC   C3B40319   0.357  22.476   4.485  0.1149  0.1704  0.2560
 3327POPC   C4B40320   0.213  22.385   4.899 -0.0751  0.0842  0.1921
 3328POPC   NC340321  10.358  16.402   3.726  0.1801  0.0404  0.2158
 3328POPC   PO440322  10.598  16.553   4.007  0.1164 -0.1099  0.3675
 3328POPC   GL140323  10.900  16.510   4.264 -0.2537  0.0097 -0.4372
 3328POPC   GL240324  10.736  16.583   4.495  0.2951  0.0928 -0.0711
 3328POPC   C1A40325  11.208  16.728   4.543  0.0007 -0.0386 -0.0118
 3328POPC   D2A40326  11.295  16.838   4.990  0.1511 -0.0246  0.0163
 3328POPC   C3A40327  11.000  16.791   5.410 -0.1386 -0.2073 -0.0957
 3328POPC   C4A40328  10.995  16.830   5.858  0.1222 -0.0572 -0.2701
 3328POPC   C1B40329  10.814  16.491   4.960  0.2547  0.0578  0.1570
 3328POPC   C2B40330  10.738  16.295   5.363  0.1383 -0.0042  0.0136
 3328POPC   C3B40331  10.770  16.321   5.787 -0.2950  0.0217 -0.1297
 3328POPC   C4B40332  10.736  16.021   6.193 -0.0642 -0.0248 -0.1880
 3329POPC   NC340333  10.401  24.289   3.816  0.2170  0.0816 -0.2108
 3329POPC   PO440334  10.124  24.121   3.557  0.1777 -0.4362  0.0414
 3329POPC   GL140335   9.906  23.925   3.774 -0.0004  0.0964 -0.1737
 3329POPC   GL240336   9.857  24.058   4.035  0.0116  0.2494 -0.3086
 3329POPC   C1A40337  10.157  23.596   3.995  0.1597  0.1314  0.2014
 3329POPC   D2A40338  10.274  23.442   4.415 -0.1735 -0.1973 -0.0441
 3329POPC   C3A40339  10.098  23.091   4.653 -0.3793 -0.0331 -0.0541
 3329POPC   C4A40340  10.348  22.907   5.026 -0.2835 -0.1282  0.1802
 3329POPC   C1B40341   9.882  23.791   4.371  0.0973  0.1000 -0.1582
 3329POPC   C2B40342  10.133  23.731   4.772 -0.1003  0.1774  0.2061
 3329POPC   C3B40343  10.347  23.683   5.208  0.1596 -0.2663 -0.1116
 3329POPC   C4B40344  10.773  23.665   5.420 -0.1295  0.3672 -0.1100
 3330POPC   NC340345   6.558   1.252   3.003 -0.1482 -0.2649  0.2897
 3330POPC   PO440346   6.371   1.436   3.318 -0.1173 -0.1155 -0.2937
 3330POPC   GL140347   6.600   1.464   3.705  0.0605 -0.1988 -0.1128
 3330POPC   GL240348   6.624   1.723   3.765 -0.1156  0.3416  0.2033
 3330POPC   C1A40349   7.048   1.485   3.847 -0.2585  0.1947  0.3513
 3330POPC   D2A40350   7.388   1.487   4.178  0.0875  0.2927  0.1015
 3330POPC   C3A40351   7.787   1.339   3.955  0.1502  0.3381 -0.1289
 3330POPC   C4A40352   8.050   1.168   3.621  0.1592 -0.1021  0.3191
 3330POPC   C1B40353   6.547   1.405   4.120 -0.1369  0.0270 -0.1438
 3330POPC   C2B40354   6.471   1.375   4.534  0.0687  0.0143 -0.2045
 3330POPC   C3B40355   6.615   1.264   4.964 -0.1337 -0.2035 -0.0811
 3330POPC   C4B40356   6.858   0.993   5.231  0.6216 -0.1050  0.0065
 3331POPC   NC340357   1.906   3.643   3.283 -0.0457  0.2873  0.0332
 3331POPC   PO440358   1.797   3.467   3.638 -0.1686 -0.0994 -0.1680
 3331POPC   GL140359   1.476   3.184   3.879 -0.0572  0.2031 -0.1843
 3331POPC   GL240360   1.241   3.191   4.040  0.0517 -0.0745  0.0531
 3331POPC   C1A40361   1.577   2.927   4.284  0.3292 -0.0258 -0.0904
 3331POPC   D2A40362   1.504   2.798   4.660  0.0761 -0.4858  0.1360
 3331POPC   C3A40363   1.312   3.116   4.913 -0.0840  0.1467 -0.1850
 3331POPC   C4A40364   0.908   3.329   4.913 -0.0243  0.1420  0.0066
 3331POPC   C1B40365   1.214   3.332   4.471  0.1383  0.5216  0.1257
 3331POPC   C2B40366   1.388   3.584   4.703 -0.1570  0.1219  0.2293
 3331POPC   C3B40367   1.489   3.515   5.114 -0.2092  0.1388 -0.2015
 3331POPC   C4B40368   1.383   3.224   5.497  0.0568 -0.1569  0.0426
 3332POPC   NC340369   9.567   0.292   3.684 -0.1404 -0.3543  0.1270
 3332POPC   PO440370   9.308   0.114   3.454 -0.0206 -0.3899 -0.0145
 3332POPC   GL140371   8.972   0.243   3.660 -0.0838  0.0633  0.0868
 3332POPC   GL240372   9.105   0.507   3.671 -0.4257 -0.0396 -0.2188
 3332POPC   C1A40373   8.731   0.073   4.005 -0.1439 -0.3255 -0.1869
 3332POPC   D2A40374   8.383  -0.197   4.237  0.3556 -0.2524  0.2288
 3332POPC   C3A40375   8.732  -0.268   4.533  0.0231 -0.1116 -0.2629
 3332POPC   C4A40376   8.741  -0.363   4.996 -0.1344 -0.2211 -0.2192
 3332POPC   C1B40377   8.954   0.555   4.128 -0.1737 -0.0549  0.4667
 3332POPC   C2B40378   8.881   0.463   4.565  0.0670 -0.1514  0.0488
 3332POPC   C3B40379   8.703   0.382   5.032 -0.2120 -0.0392 -0.0240
 3332POPC   C4B40380   8.613   0.462   5.476  0.1806  0.0249  0.2206
 3333POPC   NC340381   3.340  11.561   3.903  0.2782 -0.2262 -0.0071
 3333POPC   PO440382   3.019  11.847   3.825  0.1053  0.1843 -0.1532
 3333POPC   GL140383   2.715  11.812   4.149  0.0599 -0.2189  0.4641
 3333POPC   GL240384   2.638  11.546   4.274  0.1372  0.2001  0.0200
 3333POPC   C1A40385   2.805  11.923   4.613 -0.0194 -0.2609  0.2350
 3333POPC   D2A40386   2.658  12.184   5.002  0.0034  0.4166  0.1256
 3333POPC   C3A40387   2.213  12.318   5.110 -0.3847  0.3176 -0.0858
 3333POPC   C4A40388   1.892  12.179   5.409 -0.3446 -0.3332  0.0745
 3333POPC   C1B40389   2.383  11.299   4.592  0.2355  0.0116 -0.1691
 3333POPC   C2B40390   2.147  11.356   4.990  0.0372 -0.1260 -0.0989
 3333POPC   C3B40391   2.088  11.364   5.426 -0.0261 -0.1145  0.0560
 3333POPC   C4B40392   1.700  11.649   5.604  0.1315  0.1126  0.2371
 3334POPC   NC340393   5.226  30.341   3.560  0.0903 -0.2610  0.2378
 3334POPC   PO440394   5.067  30.023   3.440  0.0224  0.3383  0.1688
 3334POPC   GL140395   4.974  30.166   3.880 -0.1945  0.2589  0.1450
 3334POPC   GL240396   4.791  30.004   3.991 -0.2268  0.0270  0.1300
 3334POPC   C1A40397   5.158  30.115   4.280 -0.2430  0.3279  0.0724
 3334POPC   D2A40398   5.422  30.080   4.693  0.1324  0.3227  0.0450
 3334POPC   C3A40399   5.568  30.015   5.140 -0.3150 -0.4059  0.1825
 3334POPC   C4A40400   5.768  30.014   5.496 -0.1561  0.0099  0.2134
 3334POPC   C1B40401   4.751  30.366   4.283  0.1376 -0.0822  0.0885
 3334POPC   C2B40402   5.131  30.508   4.570  0.0948  0.2791 -0.0552
 3334POPC   C3B40403   5.482  30.529   4.898  0.1840 -0.1398 -0.1249
 3334POPC   C4B40404   5.802  30.507   5.202 -0.1139 -0.2768 -0.0220
 3335POPC   NC340405  14.286   9.424   4.010 -0.0660 -0.0648  0.0683
 3335POPC   PO440406  14.544   9.682   3.888  0.1772  0.2226  0.3371
 3335POPC   GL140407  14.604   9.647   4.307  0.0497  0.1546 -0.0774
 3335POPC   GL240408  14.500   9.943   4.329  0.0317  0.0704  0.1491
 3335POPC   C1A40409  14.745   9.229   4.541 -0.1746  0.1000  0.2921
 3335POPC   D2A40410  15.000   9.024   4.857  0.1465 -0.0464  0.0790
 3335POPC   C3A40411  14.872   9.179   5.248 -0.0915 -0.2588  0.2722
 3335POPC   C4A40412  14.634   9.123   5.634 -0.0884 -0.2926 -0.1554
 3335POPC   C1B40413  14.633   9.875   4.760 -0.0064 -0.1849 -0.4912
 3335POPC   C2B40414  14.701   9.925   5.136  0.2745  0.2913 -0.0902
 3335POPC   C3B40415  14.724   9.954   5.593 -0.1304 -0.2415 -0.0452
 3335POPC   C4B40416  14.650  10.224   5.911  0.0336  0.2304 -0.0049
 3336POPC   NC340417   7.497  21.408   3.248  0.1147 -0.1201  0.2901
 3336POPC   PO440418   7.225  21.630   3.462  0.0220  0.3099 -0.0055
 3336POPC   GL140419   7.229  21.959   3.644 -0.1475 -0.2988 -0.4560
 3336POPC   GL240420   7.572  22.055   3.687 -0.0223 -0.0849  0.0071
 3336POPC   C1A40421   7.256  21.917   4.086  0.0121  0.3536 -0.3502
 3336POPC   D2A40422   7.089  22.055   4.488  0.0312 -0.1194  0.0606
 3336POPC   C3A40423   7.218  21.888   4.819  0.0451 -0.0343  0.0523
 3336POPC   C4A40424   7.092  21.454   4.862  0.0015 -0.1143  0.3136
 3336POPC   C1B40425   7.526  22.320   3.991  0.1150 -0.1211 -0.3100
 3336POPC   C2B40426   7.254  22.499   4.311 -0.1199 -0.1958 -0.0266
 3336POPC   C3B40427   6.833  22.559   4.342  0.0536 -0.3826 -0.1674
 3336POPC   C4B40428   6.439  22.610   4.568  0.0240 -0.2279  0.0793
 3337POPC   NC340429   0.474  19.173   4.478  0.1043 -0.1442 -0.1949
 3337POPC   PO440430   0.257  19.429   4.234 -0.1159 -0.1121 -0.0086
 3337POPC   GL140431   0.348  19.646   4.547  0.1644  0.1649 -0.2901
 3337POPC   GL240432   0.644  19.656   4.494  0.2610 -0.1123 -0.0938
 3337POPC   C1A40433   0.190  19.310   4.841  0.0771 -0.1650 -0.5787
 3337POPC   D2A40434   0.176  18.957   5.142 -0.0101  0.0538  0.1395
 3337POPC   C3A40435  -0.128  19.110   5.456  0.1222  0.1189  0.0927
 3337POPC   C4A40436  -0.605  18.990   5.479 -0.1639 -0.0500  0.4668
 3337POPC   C1B40437   0.627  19.871   4.896  0.3166 -0.2157  0.1915
 3337POPC   C2B40438   0.798  20.061   5.271  0.0686 -0.1163  0.2566
 3337POPC   C3B40439   0.967  20.293   5.643 -0.0554 -0.2109  0.0324
 3337POPC   C4B40440   1.124  20.329   6.059  0.1501  0.0354  0.1914
 3338POPC   NC340441   8.649   8.758   2.829 -0.0936 -0.0263 -0.1559
 3338POPC   PO440442   8.997   8.593   2.869 -0.0269  0.4361  0.0857
 3338POPC   GL140443   9.057   8.968   3.089  0.1497 -0.2007  0.2504
 3338POPC   GL240444   8.814   9.161   3.055  0.0930  0.5001 -0.0960
 3338POPC   C1A40445   9.068   9.182   3.507 -0.0597  0.2093 -0.1368
 3338POPC   D2A40446   8.859   9.454   3.827 -0.0973  0.1327  0.3551
 3338POPC   C3A40447   8.813   9.840   3.943  0.2581 -0.1354 -0.1626
 3338POPC   C4A40448   8.917  10.246   4.121 -0.0909 -0.2746 -0.1935
 3338POPC   C1B40449   8.612   9.409   3.378 -0.0234  0.0443 -0.2172
 3338POPC   C2B40450   8.383   9.691   3.666  0.1698 -0.3442  0.1849
 3338POPC   C3B40451   8.395  10.050   3.966  0.1347  0.2291 -0.0237
 3338POPC   C4B40452   8.164  10.346   4.160  0.2151 -0.0141  0.1168
 3339POPC   NC340453   0.922  29.003   3.950 -0.2357  0.1479  0.2026
 3339POPC   PO440454   0.771  29.362   4.013 -0.0834 -0.3180  0.1480
 3339POPC   GL140455   0.800  29.282   4.403 -0.2559  0.2751 -0.1652
 3339POPC   GL240456   0.587  29.484   4.468  0.2714  0.1534 -0.2850
 3339POPC   C1A40457   0.902  28.900   4.651 -0.2489 -0.4515  0.0938
 3339POPC   D2A40458   0.995  28.661   5.085 -0.0705 -0.2272  0.0419
 3339POPC   C3A40459   0.993  28.792   5.552 -0.0727  0.1204 -0.1362
 3339POPC   C4A40460   1.181  28.942   5.982 -0.2120 -0.0170  0.0861
 3339POPC   C1B40461   0.699  29.306   4.907  0.1760  0.1629  0.1817
 3339POPC   C2B40462   0.752  29.213   5.372 -0.0547  0.0762  0.0445
 3339POPC   C3B40463   1.079  29.353   5.625 -0.2598  0.3129  0.0649
 3339POPC   C4B40464   1.444  29.584   5.743 -0.3686  0.2342  0.0735
 3340POPC   NC340465  12.559   3.365   3.870  0.1316 -0.1429 -0.0390
 3340POPC   PO440466  12.813   3.062   3.819  0.1799  0.2906  0.0785
 3340POPC   GL140467  12.902   3.254   4.213  0.0467 -0.3256  0.0991
 3340POPC   GL240468  13.067   2.936   4.267  0.0375 -0.0525  0.0963
 3340POPC   C1A40469  13.241   3.503   4.397 -0.1099  0.0995  0.1174
 3340POPC   D2A40470  13.443   3.723   4.715  0.0417  0.1143  0.2570
 3340POPC   C3A40471  13.401   3.525   5.111 -0.1021 -0.0842  0.0940
 3340POPC   C4A40472  13.427   3.349   5.493  0.0733  0.2442 -0.0095
 3340POPC   C1B40473  13.435   2.745   4.548 -0.0190 -0.1629  0.0312
 3340POPC   C2B40474  13.608   2.746   4.988 -0.1103 -0.1090 -0.1082
 3340POPC   C3B40475  13.959   2.579   5.219  0.0746 -0.0739 -0.1386
 3340POPC   C4B40476  14.128   2.648   5.630  0.3953  0.0648  0.2178
 3341POPC   NC340477   5.713  15.382   3.493 -0.0006 -0.2087  0.1812
 3341POPC   PO440478   5.609  15.002   3.625  0.0602 -0.3415  0.0277
 3341POPC   GL140479   5.492  15.027   3.973 -0.1228 -0.5475 -0.1842
 3341POPC   GL240480   5.277  14.839   4.094  0.0470 -0.0136  0.0230
 3341POPC   C1A40481   5.604  14.885   4.454  0.0441 -0.1068 -0.1701
 3341POPC   D2A40482   5.917  14.829   4.794  0.0213 -0.0116  0.3120
 3341POPC   C3A40483   6.010  14.580   5.184 -0.0858  0.1474 -0.0595
 3341POPC   C4A40484   6.176  14.260   5.504 -0.1757 -0.2109  0.0478
 3341POPC   C1B40485   5.065  14.747   4.449  0.2019 -0.1520 -0.1245
 3341POPC   C2B40486   5.003  14.504   4.822  0.0554  0.0610  0.0341
 3341POPC   C3B40487   4.849  14.548   5.329  0.0820 -0.0235  0.4119
 3341POPC   C4B40488   4.876  14.724   5.785 -0.0702  0.1483  0.0761
 3342POPC   NC340489  10.045  20.039   3.868  0.0479 -0.3105 -0.0578
 3342POPC   PO440490  10.037  20.352   3.583 -0.0792 -0.1295  0.1756
 3342POPC   GL140491  10.232  20.479   3.941  0.1548 -0.2517 -0.4932
 3342POPC   GL240492  10.447  20.322   4.094  0.0415  0.1662 -0.2888
 3342POPC   C1A40493  10.000  20.283   4.315 -0.2613  0.0355  0.0106
 3342POPC   D2A40494   9.977  20.131   4.703 -0.0780 -0.1035 -0.3258
 3342POPC   C3A40495   9.668  20.159   5.059  0.1457  0.2678 -0.1233
 3342POPC   C4A40496   9.475  20.037   5.465  0.1679 -0.1655  0.0722
 3342POPC   C1B40497  10.383  20.618   4.467 -0.3174  0.0258  0.0840
 3342POPC   C2B40498  10.439  20.906   4.854  0.0018  0.0852  0.0511
 3342POPC   C3B40499  10.499  20.932   5.297 -0.0680 -0.2406 -0.1146
 3342POPC   C4B40500  10.634  20.939   5.753 -0.2570 -0.0458 -0.0193
 3343POPC   NC340501  11.802  28.741   3.746  0.0202  0.0032 -0.2176
 3343POPC   PO440502  11.443  28.873   3.754  0.0587 -0.0560  0.1923
 3343POPC   GL140503  11.542  28.730   4.159  0.1049 -0.0822  0.0429
 3343POPC   GL240504  11.790  28.512   4.164  0.3272  0.1122 -0.0864
 3343POPC   C1A40505  11.551  29.003   4.536  0.0746  0.0048 -0.0516
 3343POPC   D2A40506  11.388  28.987   4.952  0.0152  0.2466  0.0094
 3343POPC   C3A40507  11.226  28.670   5.298  0.1553  0.0085 -0.1743
 3343POPC   C4A40508  11.200  28.575   5.764 -0.0543 -0.1046  0.2437
 3343POPC   C1B40509  11.872  28.642   4.614  0.0596  0.0092 -0.2549
 3343POPC   C2B40510  12.273  28.696   4.773 -0.0991 -0.1093 -0.1514
 3343POPC   C3B40511  12.694  28.770   5.074  0.0637  0.1831  0.1023
 3343POPC   C4B40512  12.893  28.603   5.409  0.2421 -0.0088  0.0022
 3344POPC   NC340513  13.734  26.136   3.725  0.0648  0.2135  0.2336
 3344POPC   PO440514  13.395  25.957   3.721  0.0695 -0.2826  0.1151
 3344POPC   GL140515  13.059  26.006   4.026 -0.0665 -0.2313  0.0215
 3344POPC   GL240516  13.057  25.668   4.029 -0.1536 -0.1251  0.2131
 3344POPC   C1A40517  12.789  26.003   4.396  0.0260  0.0841 -0.1968
 3344POPC   D2A40518  12.526  26.358   4.527  0.3254 -0.4462 -0.1003
 3344POPC   C3A40519  12.383  26.524   4.948  0.2507  0.1335 -0.2297
 3344POPC   C4A40520  12.327  26.803   5.323  0.0724 -0.1762 -0.3602
 3344POPC   C1B40521  13.363  25.753   4.353  0.0365  0.2768  0.1925
 3344POPC   C2B40522  13.446  25.751   4.790 -0.1851  0.0002 -0.0426
 3344POPC   C3B40523  13.471  25.635   5.252 -0.0876 -0.1934 -0.0037
 3344POPC   C4B40524  13.717  25.841   5.598  0.2831  0.1171  0.0313
 3345POPC   NC340525   5.978  13.065   3.203 -0.0211 -0.0290  0.1910
 3345POPC   PO440526   6.215  13.053   3.554 -0.1108  0.0753  0.0269
 3345POPC   GL140527   6.271  12.980   3.878  0.2073  0.1172  0.1533
 3345POPC   GL240528   6.420  12.769   4.040 -0.0894  0.0122  0.2455
 3345POPC   C1A40529   6.046  13.220   4.199  0.0124  0.2776 -0.1070
 3345POPC   D2A40530   5.897  13.583   4.488 -0.1385  0.0033  0.0092
 3345POPC   C3A40531   6.164  13.818   4.748  0.4421  0.1721  0.1420
 3345POPC   C4A40532   6.231  14.148   5.037  0.0609 -0.2489  0.0782
 3345POPC   C1B40533   6.175  12.790   4.417  0.0697 -0.0371  0.1313
 3345POPC   C2B40534   6.111  12.946   4.813  0.3249 -0.0972  0.0683
 3345POPC   C3B40535   6.058  13.363   5.072  0.1988 -0.0164  0.0094
 3345POPC   C4B40536   6.055  13.765   5.318 -0.2445  0.0753  0.0638
 3346POPC   NC340537   4.815   7.705   3.868 -0.0157  0.0788  0.0891
 3346POPC   PO440538   4.525   7.858   3.705  0.1432 -0.0193 -0.1577
 3346POPC   GL140539   4.483   7.733   4.172 -0.0946 -0.0588 -0.1113
 3346POPC   GL240540   4.204   7.724   4.271 -0.2923 -0.2918 -0.0998
 3346POPC   C1A40541   4.618   7.940   4.573  0.0059  0.4150 -0.2444
 3346POPC   D2A40542   4.602   7.934   5.039  0.0020  0.2272 -0.1540
 3346POPC   C3A40543   4.722   7.629   5.363  0.0801  0.0546  0.1907
 3346POPC   C4A40544   4.877   7.741   5.838 -0.0317 -0.1208 -0.0854
 3346POPC   C1B40545   4.172   7.743   4.742 -0.1759  0.1037 -0.4611
 3346POPC   C2B40546   3.982   7.904   5.131 -0.0625 -0.0527  0.0817
 3346POPC   C3B40547   3.864   7.760   5.565  0.1134 -0.0130 -0.0902
 3346POPC   C4B40548   3.959   7.462   5.947 -0.1018 -0.0125  0.1947
 3347POPC   NC340549  12.173   4.459   3.572  0.2457 -0.2425 -0.3959
 3347POPC   PO440550  11.822   4.383   3.749 -0.1709 -0.1359  0.3940
 3347POPC   GL140551  12.008   4.375   4.099 -0.1683  0.2822 -0.0451
 3347POPC   GL240552  11.866   4.631   4.222 -0.1372 -0.0480 -0.0072
 3347POPC   C1A40553  12.098   4.085   4.484  0.1292  0.2349  0.3187
 3347POPC   D2A40554  12.035   3.830   4.885 -0.0982 -0.0707 -0.0967
 3347POPC   C3A40555  11.855   4.092   5.242 -0.0625 -0.0342 -0.0274
 3347POPC   C4A40556  11.582   4.210   5.596  0.2351 -0.0462  0.4388
 3347POPC   C1B40557  11.891   4.855   4.640  0.0715 -0.1223 -0.0154
 3347POPC   C2B40558  11.789   4.862   5.034 -0.1075  0.3095 -0.1738
 3347POPC   C3B40559  11.898   4.583   5.318 -0.1438 -0.0461 -0.2338
 3347POPC   C4B40560  12.337   4.564   5.472  0.0217  0.2431 -0.0875
 3348POPC   NC340561  15.224   3.382   4.118  0.1735  0.2503  0.0890
 3348POPC   PO440562  15.286   3.635   3.765  0.0597  0.5108  0.0432
 3348POPC   GL140563  15.689   3.627   4.003 -0.0708  0.3395  0.2038
 3348POPC   GL240564  15.572   3.673   4.330 -0.1652  0.0175 -0.0893
 3348POPC   C1A40565  15.945   3.387   4.361  0.2846 -0.0917  0.0465
 3348POPC   D2A40566  15.969   3.188   4.793 -0.0707 -0.0289 -0.1278
 3348POPC   C3A40567  16.008   3.248   5.212 -0.2682 -0.0688  0.2797
 3348POPC   C4A40568  16.120   3.283   5.639 -0.0434  0.0875 -0.0266
 3348POPC   C1B40569  15.545   3.670   4.801 -0.0547  0.1829 -0.0506
 3348POPC   C2B40570  15.738   3.708   5.184 -0.1943  0.1157  0.1498
 3348POPC   C3B40571  15.658   3.818   5.621 -0.1036 -0.1454 -0.1468
 3348POPC   C4B40572  15.727   4.045   6.007  0.2465  0.1963  0.0878
 3349POPC   NC340573   3.841   1.094   3.126  0.1925 -0.4211  0.1448
 3349POPC   PO440574   3.971   1.161   3.510 -0.1679 -0.2857  0.3118
 3349POPC   GL140575   3.877   0.848   3.832 -0.2212 -0.1643 -0.3946
 3349POPC   GL240576   3.884   0.534   3.876  0.1156 -0.2996  0.1290
 3349POPC   C1A40577   3.861   0.808   4.308  0.1109 -0.0221  0.1565
 3349POPC   D2A40578   4.073   0.949   4.726 -0.0497  0.0470 -0.0964
 3349POPC   C3A40579   4.237   1.285   5.009  0.2070 -0.0039 -0.0014
 3349POPC   C4A40580   4.142   1.677   5.261 -0.1575  0.2295 -0.1083
 3349POPC   C1B40581   4.268   0.532   4.140 -0.0809  0.2138 -0.1639
 3349POPC   C2B40582   4.360   0.424   4.619 -0.0857 -0.0881  0.1025
 3349POPC   C3B40583   4.297   0.567   5.085  0.1913 -0.3128  0.1700
 3349POPC   C4B40584   3.995   0.304   5.364 -0.0840 -0.2150 -0.0574
 3350POPC   NC340585  14.626  30.112   3.309  0.0280 -0.0102 -0.0219
 3350POPC   PO440586  14.588  30.499   3.427 -0.0649  0.0700  0.0117
 3350POPC   GL140587  14.460  30.422   3.819  0.2327 -0.4300  0.0177
 3350POPC   GL240588  14.240  30.209   3.845 -0.1083 -0.3694 -0.1481
 3350POPC   C1A40589  14.593  30.164   4.204  0.2257 -0.0617 -0.3803
 3350POPC   D2A40590  14.476  30.105   4.634 -0.0871 -0.0754  0.2557
 3350POPC   C3A40591  14.354  30.108   5.069 -0.0135 -0.1212  0.2270
 3350POPC   C4A40592  14.260  30.407   5.472 -0.2408 -0.2376 -0.1376
 3350POPC   C1B40593  14.115  29.886   4.187 -0.5003 -0.0915 -0.2842
 3350POPC   C2B40594  13.986  29.815   4.604 -0.0423 -0.2723 -0.0891
 3350POPC   C3B40595  13.748  29.537   4.909  0.1530  0.2176 -0.2296
 3350POPC   C4B40596  13.675  29.507   5.315  0.1038 -0.2261 -0.1213
 3351POPC   NC340597  13.026  23.754   3.259  0.4473  0.1578  0.0710
 3351POPC   PO440598  12.762  23.433   3.316 -0.0802 -0.0316  0.1153
 3351POPC   GL140599  12.904  23.506   3.716  0.1361 -0.2189  0.2760
 3351POPC   GL240600  12.700  23.657   3.876 -0.1920  0.3555 -0.0778
 3351POPC   C1A40601  12.922  23.309   4.139  0.2114 -0.0478  0.1544
 3351POPC   D2A40602  12.834  23.225   4.593 -0.0215  0.0614 -0.0179
 3351POPC   C3A40603  13.226  23.036   4.798 -0.1338 -0.2605  0.2813
 3351POPC   C4A40604  13.443  22.710   4.969 -0.1984  0.1586  0.3000
 3351POPC   C1B40605  12.544  23.634   4.236  0.0329 -0.0587  0.1855
 3351POPC   C2B40606  12.627  23.739   4.731  0.2099  0.1835  0.0935
 3351POPC   C3B40607  12.608  23.877   5.153  0.2633 -0.0065 -0.1723
 3351POPC   C4B40608  12.258  23.845   5.522 -0.0475  0.0171  0.1880
 3352POPC   NC340609   8.443  31.458   3.108 -0.0992  0.3329  0.1389
 3352POPC   PO440610   8.462  31.333   3.481  0.0718  0.2589  0.0523
 3352POPC   GL140611   8.198  31.377   3.739 -0.2613  0.0853  0.1836
 3352POPC   GL240612   8.227  31.184   3.977 -0.0574 -0.1239  0.1874
 3352POPC   C1A40613   7.874  31.600   4.060 -0.0135  0.0477  0.0489
 3352POPC   D2A40614   7.512  31.702   4.275  0.0836  0.0398 -0.2086
 3352POPC   C3A40615   7.506  31.907   4.700  0.0390 -0.4986 -0.1283
 3352POPC   C4A40616   7.614  31.791   5.118  0.1901  0.0666  0.0007
 3352POPC   C1B40617   7.875  31.165   4.227 -0.0796  0.1562 -0.0665
 3352POPC   C2B40618   7.629  31.369   4.608  0.0384  0.2583  0.1991
 3352POPC   C3B40619   7.460  31.298   5.034 -0.0536 -0.1676 -0.0902
 3352POPC   C4B40620   7.136  31.426   5.401  0.1533 -0.1260  0.1913
 3353POPC   NC340621  10.893  12.963   3.591 -0.3832 -0.1437 -0.1051
 3353POPC   PO440622  10.708  12.600   3.607 -0.0360  0.1568  0.0226
 3353POPC   GL140623  10.667  12.639   3.965 -0.1743 -0.0132 -0.0313
 3353POPC   GL240624  10.628  12.396   4.051  0.0726 -0.0501 -0.0681
 3353POPC   C1A40625  10.393  12.692   4.374  0.3807 -0.0843 -0.0169
 3353POPC   D2A40626  10.253  12.775   4.802 -0.0905  0.0869 -0.0228
 3353POPC   C3A40627  10.368  12.596   5.177  0.2941  0.1271 -0.1385
 3353POPC   C4A40628  10.511  12.714   5.618 -0.0302 -0.0985  0.1966
 3353POPC   C1B40629  10.781  12.480   4.398  0.3224 -0.0961 -0.1881
 3353POPC   C2B40630  10.594  12.366   4.811 -0.0813  0.2877 -0.0473
 3353POPC   C3B40631  10.432  12.120   5.176  0.0324  0.0552 -0.1282
 3353POPC   C4B40632  10.364  11.668   5.333 -0.1921 -0.2618 -0.1107
 3354POPC   NC340633   2.072  22.326   3.031  0.0248  0.1728  0.2671
 3354POPC   PO440634   2.175  22.029   3.252  0.0677  0.1213 -0.0848
 3354POPC   GL140635   1.822  22.355   3.442 -0.0461 -0.1625  0.3608
 3354POPC   GL240636   1.885  22.353   3.731 -0.0513 -0.0838 -0.0391
 3354POPC   C1A40637   1.452  22.498   3.768  0.0379 -0.2489 -0.0871
 3354POPC   D2A40638   1.126  22.788   4.019  0.2809  0.1040 -0.0849
 3354POPC   C3A40639   1.085  23.216   4.122 -0.0827  0.0991  0.0567
 3354POPC   C4A40640   0.960  23.503   3.788  0.2226  0.0673  0.0691
 3354POPC   C1B40641   2.125  22.334   4.101 -0.1135  0.1660 -0.0635
 3354POPC   C2B40642   2.126  22.587   4.496 -0.0014 -0.3332 -0.1237
 3354POPC   C3B40643   2.059  22.466   4.959  0.0804 -0.1207 -0.0017
 3354POPC   C4B40644   1.709  22.651   5.226 -0.2949  0.0209 -0.0016
 3355POPC   NC340645  11.174   2.650   3.438  0.2162 -0.1314  0.0407
 3355POPC   PO440646  11.042   2.547   3.776  0.0606 -0.3044  0.0584
 3355POPC   GL140647  11.130   2.238   4.108  0.4337 -0.2392  0.2134
 3355POPC   GL240648  11.356   2.413   4.122 -0.2062 -0.0172  0.0050
 3355POPC   C1A40649  10.976   2.009   4.458 -0.0683  0.1678 -0.0068
 3355POPC   D2A40650  11.003   1.879   4.880 -0.0114 -0.1094 -0.1350
 3355POPC   C3A40651  11.147   1.843   5.306  0.0159  0.0793 -0.0351
 3355POPC   C4A40652  11.113   1.831   5.744  0.0867 -0.1692 -0.1101
 3355POPC   C1B40653  11.402   2.259   4.596 -0.1316  0.0382  0.1874
 3355POPC   C2B40654  11.272   2.356   5.025  0.0288  0.0416 -0.0049
 3355POPC   C3B40655  11.279   2.324   5.475  0.0495 -0.0229 -0.0908
 3355POPC   C4B40656  11.058   2.383   5.872 -0.1496 -0.1420  0.0883
 3356POPC   NC340657   1.533  26.474   3.166 -0.1873  0.0144 -0.4796
 3356POPC   PO440658   1.354  26.810   3.323 -0.1855 -0.1970  0.0852
 3356POPC   GL140659   1.361  26.675   3.739  0.2281 -0.2206 -0.2170
 3356POPC   GL240660   1.235  26.880   3.960  0.0241 -0.0657  0.0359
 3356POPC   C1A40661   1.753  26.694   4.056  0.1959  0.1033  0.0203
 3356POPC   D2A40662   1.930  26.881   4.458 -0.1678 -0.2443 -0.2965
 3356POPC   C3A40663   1.712  26.839   4.822  0.2692  0.2168 -0.3000
 3356POPC   C4A40664   1.338  26.754   5.054  0.3592 -0.3605  0.1111
 3356POPC   C1B40665   1.299  26.733   4.385  0.1931 -0.2681  0.1600
 3356POPC   C2B40666   1.489  26.422   4.710  0.0753 -0.0305 -0.0749
 3356POPC   C3B40667   1.545  26.319   5.154  0.3540 -0.0082  0.0406
 3356POPC   C4B40668   1.734  26.611   5.466 -0.1411  0.2093 -0.3873
 3357POPC   NC340669   6.139   9.306   4.003 -0.3331  0.1057  0.1462
 3357POPC   PO440670   5.796   9.409   3.947  0.0753 -0.1362 -0.0791
 3357POPC   GL140671   5.570   9.360   4.287  0.3400  0.0063  0.0804
 3357POPC   GL240672   5.701   9.470   4.550 -0.0148  0.3051  0.1658
 3357POPC   C1A40673   5.259   9.267   4.630 -0.0896  0.0802 -0.0249
 3357POPC   D2A40674   5.105   9.416   5.020 -0.0825  0.1537 -0.1173
 3357POPC   C3A40675   4.986   9.336   5.532 -0.3007  0.0241 -0.2819
 3357POPC   C4A40676   5.024   9.434   6.019  0.2024  0.0687  0.1064
 3357POPC   C1B40677   5.656   9.451   5.011 -0.0830  0.4395 -0.1518
 3357POPC   C2B40678   5.490   9.273   5.420 -0.0746 -0.2212  0.5191
 3357POPC   C3B40679   5.255   9.026   5.764  0.0042  0.1749  0.3009
 3357POPC   C4B40680   4.756   9.052   5.813 -0.1824 -0.0375 -0.0537
 3358POPC   NC340681  15.347  26.061   3.856  0.1963 -0.0121  0.0856
 3358POPC   PO440682  15.262  25.704   3.857  0.0676  0.3332 -0.1351
 3358POPC   GL140683  15.422  25.652   4.178  0.4721  0.0572  0.0347
 3358POPC   GL240684  15.186  25.839   4.357 -0.1180 -0.0759  0.0707
 3358POPC   C1A40685  15.489  25.498   4.614 -0.0629  0.1421  0.0406
 3358POPC   D2A40686  15.266  25.539   5.065 -0.0273 -0.1738 -0.0585
 3358POPC   C3A40687  15.420  25.224   5.373 -0.1299  0.3386  0.1372
 3358POPC   C4A40688  15.511  25.001   5.787  0.1536 -0.0664  0.1413
 3358POPC   C1B40689  15.257  25.956   4.775 -0.1636 -0.0015 -0.0206
 3358POPC   C2B40690  15.547  25.943   5.184  0.1843  0.1727  0.0672
 3358POPC   C3B40691  15.663  25.645   5.450  0.1651 -0.6047 -0.3517
 3358POPC   C4B40692  15.341  25.537   5.767 -0.1299  0.0518 -0.1027
 3359POPC   NC340693  12.806  14.207   3.634 -0.1496  0.0322 -0.4503
 3359POPC   PO440694  12.473  13.904   3.593  0.3657  0.1443 -0.1692
 3359POPC   GL140695  12.195  14.041   3.826 -0.3919 -0.1766  0.0718
 3359POPC   GL240696  12.323  14.316   3.870  0.1091 -0.1724 -0.1699
 3359POPC   C1A40697  12.171  13.938   4.252  0.0092 -0.1949 -0.1063
 3359POPC   D2A40698  12.396  13.634   4.506 -0.0085 -0.1786 -0.1117
 3359POPC   C3A40699  12.210  13.659   4.930  0.5222 -0.1615  0.2167
 3359POPC   C4A40700  12.333  13.785   5.368  0.2747 -0.1703 -0.0525
 3359POPC   C1B40701  12.441  14.366   4.313  0.0407  0.0646  0.0478
 3359POPC   C2B40702  12.205  14.117   4.697  0.0654 -0.0870 -0.2727
 3359POPC   C3B40703  12.078  14.139   5.105 -0.1523 -0.0972 -0.1463
 3359POPC   C4B40704  11.766  14.270   5.470 -0.0233  0.2226  0.0093
 3360POPC   NC340705   1.810  28.045   3.413 -0.1035  0.2312  0.0164
 3360POPC   PO440706   1.463  28.149   3.607 -0.3093 -0.0630 -0.1485
 3360POPC   GL140707   1.504  27.930   3.883  0.0205 -0.1483  0.1562
 3360POPC   GL240708   1.770  27.827   3.920 -0.1362 -0.1116 -0.2359
 3360POPC   C1A40709   1.374  27.690   4.312  0.1808 -0.1112  0.0418
 3360POPC   D2A40710   1.343  27.608   4.769  0.1042  0.0477  0.2682
 3360POPC   C3A40711   1.298  27.727   5.226 -0.3760  0.1058 -0.0874
 3360POPC   C4A40712   1.507  27.917   5.583  0.2302 -0.1860  0.0772
 3360POPC   C1B40713   1.943  27.648   4.301 -0.2610  0.2556 -0.3401
 3360POPC   C2B40714   1.836  27.523   4.737 -0.0539  0.1889 -0.1944
 3360POPC   C3B40715   1.536  27.261   5.043  0.0519  0.1269 -0.3348
 3360POPC   C4B40716   1.157  27.241   5.287  0.1410  0.0511 -0.1490
 3361POPC   NC340717  15.840  12.141   3.946  0.0640 -0.0454 -0.1045
 3361POPC   PO440718  16.095  12.223   3.679 -0.0924 -0.0112  0.1598
 3361POPC   GL140719  16.289  12.163   4.026  0.2155  0.3555  0.0839
 3361POPC   GL240720  16.450  12.297   4.177  0.0343  0.1113 -0.1170
 3361POPC   C1A40721  16.122  12.154   4.491  0.0378  0.0204 -0.2050
 3361POPC   D2A40722  16.316  12.086   4.920  0.0532 -0.2578 -0.0864
 3361POPC   C3A40723  16.296  12.228   5.359  0.0321  0.0135  0.0916
 3361POPC   C4A40724  16.343  12.485   5.743 -0.2729  0.1107  0.2576
 3361POPC   C1B40725  16.473  12.629   4.506 -0.1549  0.2907 -0.2728
 3361POPC   C2B40726  16.094  12.504   4.785  0.1781 -0.3338  0.0907
 3361POPC   C3B40727  15.734  12.407   5.079 -0.0725  0.2334  0.1750
 3361POPC   C4B40728  15.425  12.392   5.411 -0.2491  0.0585  0.0960
 3362POPC   NC340729   4.393  24.675   3.307  0.1386 -0.4236  0.0976
 3362POPC   PO440730   4.087  24.872   3.471 -0.3783 -0.2853 -0.1752
 3362POPC   GL140731   4.232  24.768   3.815 -0.1460  0.5006  0.0695
 3362POPC   GL240732   4.203  24.882   4.116  0.0359  0.2186 -0.1012
 3362POPC   C1A40733   4.058  24.384   4.034  0.0188  0.3686  0.0207
 3362POPC   D2A40734   3.636  24.116   4.011 -0.1382 -0.1876 -0.1100
 3362POPC   C3A40735   3.529  23.913   4.406 -0.0377 -0.1123 -0.0087
 3362POPC   C4A40736   3.341  23.860   4.810  0.1463  0.1315 -0.1406
 3362POPC   C1B40737   3.897  24.713   4.369 -0.2795 -0.2417 -0.2021
 3362POPC   C2B40738   3.514  24.536   4.641 -0.1137 -0.1180  0.1337
 3362POPC   C3B40739   3.227  24.351   4.890  0.1761  0.0362 -0.0699
 3362POPC   C4B40740   3.048  24.054   5.230 -0.0091  0.0515  0.0580
 3363POPC   NC340741  11.827   2.176   3.680 -0.0097  0.0229  0.1120
 3363POPC   PO440742  11.566   2.489   3.654 -0.0446 -0.0622  0.3030
 3363POPC   GL140743  11.789   2.605   3.952 -0.1091  0.4650  0.1413
 3363POPC   GL240744  11.619   2.847   4.098  0.0462  0.1769  0.5607
 3363POPC   C1A40745  12.068   2.598   4.367  0.1410  0.1485 -0.1022
 3363POPC   D2A40746  12.309   2.856   4.704 -0.1027 -0.0609  0.0852
 3363POPC   C3A40747  12.456   3.102   5.045 -0.0768 -0.1443  0.1662
 3363POPC   C4A40748  12.479   3.138   5.517  0.1448  0.0877  0.3247
 3363POPC   C1B40749  11.604   2.716   4.559  0.1950 -0.0526  0.0942
 3363POPC   C2B40750  11.555   2.774   4.948  0.1450  0.1625 -0.2308
 3363POPC   C3B40751  11.564   2.778   5.401 -0.4168  0.1022  0.2323
 3363POPC   C4B40752  11.176   2.861   5.633  0.2570 -0.2468 -0.2457
 3364POPC   NC340753  12.425  29.280   3.572 -0.1039 -0.0014  0.0135
 3364POPC   PO440754  12.631  29.109   3.307  0.1805 -0.0598 -0.0202
 3364POPC   GL140755  12.670  28.833   3.707  0.0240  0.0923 -0.4554
 3364POPC   GL240756  12.776  28.678   3.532  0.2594 -0.1837  0.1116
 3364POPC   C1A40757  12.577  29.169   4.037 -0.1180 -0.1262  0.0453
 3364POPC   D2A40758  12.489  29.370   4.468 -0.0446  0.1028 -0.0354
 3364POPC   C3A40759  12.421  29.167   4.927 -0.0431  0.1946 -0.1622
 3364POPC   C4A40760  12.305  28.971   5.327  0.1934 -0.1263  0.0492
 3364POPC   C1B40761  13.020  29.034   3.824  0.1744 -0.0341 -0.2299
 3364POPC   C2B40762  13.089  29.239   4.238  0.0006  0.4116 -0.0089
 3364POPC   C3B40763  13.357  29.255   4.656 -0.0473 -0.4778  0.2676
 3364POPC   C4B40764  13.734  29.034   4.923  0.0343  0.0583 -0.2276
 3365POPC   NC340765   5.651   1.314   3.578 -0.1061 -0.1818 -0.4440
 3365POPC   PO440766   5.937   1.148   3.388  0.0703 -0.0014 -0.0403
 3365POPC   GL140767   5.893   0.810   3.520  0.0278 -0.0546 -0.4143
 3365POPC   GL240768   6.080   0.639   3.400 -0.3331 -0.2530  0.0370
 3365POPC   C1A40769   6.024   0.615   3.978 -0.0045 -0.1903 -0.0840
 3365POPC   D2A40770   6.171   0.503   4.460  0.2160  0.1664  0.1104
 3365POPC   C3A40771   6.302   0.128   4.640 -0.0162 -0.1842 -0.2052
 3365POPC   C4A40772   6.385   0.016   5.032 -0.3185 -0.2363 -0.0804
 3365POPC   C1B40773   6.208   0.270   3.614  0.0735  0.1228 -0.1115
 3365POPC   C2B40774   6.067  -0.054   3.898  0.3631 -0.3039  0.0286
 3365POPC   C3B40775   5.978  -0.114   4.367  0.0006 -0.1368 -0.3142
 3365POPC   C4B40776   6.187  -0.356   4.715 -0.2304  0.1346  0.2849
 3366POPC   NC340777   4.975  10.886   3.850  0.0645 -0.1409 -0.0463
 3366POPC   PO440778   5.024  11.201   3.615 -0.0109 -0.0320  0.0035
 3366POPC   GL140779   4.975  11.489   3.938  0.0993 -0.0625 -0.0105
 3366POPC   GL240780   5.206  11.647   3.794 -0.0286 -0.1021  0.0483
 3366POPC   C1A40781   4.734  11.689   4.317  0.0665 -0.0136 -0.0429
 3366POPC   D2A40782   4.415  11.536   4.646 -0.2800 -0.0434 -0.1127
 3366POPC   C3A40783   4.180  11.844   4.965 -0.0818 -0.0894 -0.1546
 3366POPC   C4A40784   4.100  11.867   5.450  0.0661  0.2958 -0.3258
 3366POPC   C1B40785   5.259  11.614   4.272 -0.3744 -0.2160  0.1515
 3366POPC   C2B40786   5.359  11.605   4.723 -0.0660  0.0541  0.0996
 3366POPC   C3B40787   5.347  11.740   5.136 -0.1725  0.2838 -0.0724
 3366POPC   C4B40788   5.665  11.977   5.411 -0.0815  0.0679  0.0017
 3367POPC   NC340789   2.546   1.429   3.689 -0.0770 -0.0419  0.0230
 3367POPC   PO440790   2.272   1.242   3.848  0.0483  0.1210 -0.1912
 3367POPC   GL140791   2.245   1.335   4.209 -0.0691  0.1123 -0.1633
 3367POPC   GL240792   2.257   1.605   4.194  0.0618  0.2516 -0.1801
 3367POPC   C1A40793   2.448   1.282   4.616  0.0440  0.0754  0.1547
 3367POPC   D2A40794   2.177   1.352   5.021  0.1974  0.2042  0.1859
 3367POPC   C3A40795   2.054   1.491   5.447  0.1198 -0.1664 -0.2455
 3367POPC   C4A40796   1.819   1.801   5.694 -0.2249  0.0453  0.0817
 3367POPC   C1B40797   2.170   1.682   4.585 -0.2796 -0.0256  0.0664
 3367POPC   C2B40798   2.068   2.095   4.827  0.1973 -0.0594  0.0632
 3367POPC   C3B40799   1.834   2.476   4.993 -0.0290 -0.0576  0.2063
 3367POPC   C4B40800   1.552   2.720   5.322  0.2917 -0.2639  0.1486
 3368POPC   NC340801   7.939   3.730   3.788  0.0127  0.2033  0.0208
 3368POPC   PO440802   7.596   3.903   3.678 -0.1619  0.1588  0.3148
 3368POPC   GL140803   7.580   3.961   4.075  0.1432 -0.1253 -0.0212
 3368POPC   GL240804   7.702   3.779   4.232  0.0184 -0.2669  0.0614
 3368POPC   C1A40805   7.316   3.872   4.467  0.1558  0.0158 -0.0947
 3368POPC   D2A40806   7.099   3.872   4.899  0.0235 -0.1788  0.1385
 3368POPC   C3A40807   7.269   3.619   5.212 -0.0307  0.0499 -0.1119
 3368POPC   C4A40808   7.536   3.450   5.528 -0.0042 -0.3176  0.0866
 3368POPC   C1B40809   7.755   3.605   4.659  0.0369  0.2189 -0.1710
 3368POPC   C2B40810   7.908   3.558   5.076  0.0839 -0.0725 -0.0447
 3368POPC   C3B40811   8.150   3.499   5.475 -0.0434 -0.1304 -0.2868
 3368POPC   C4B40812   7.994   3.248   5.830 -0.0428 -0.2454 -0.2519
 3369POPC   NC340813  10.830   3.550   3.808  0.1309  0.1371  0.2821
 3369POPC   PO440814  11.233   3.564   3.688  0.0916 -0.1552  0.0213
 3369POPC   GL140815  11.201   3.755   4.027  0.5485  0.0704 -0.0555
 3369POPC   GL240816  11.358   3.601   4.201 -0.2242 -0.1140 -0.1679
 3369POPC   C1A40817  11.062   3.994   4.436 -0.0114 -0.4774 -0.1477
 3369POPC   D2A40818  10.924   3.839   4.868  0.1037 -0.2907  0.3862
 3369POPC   C3A40819  11.126   3.510   5.112 -0.4762 -0.2832  0.2335
 3369POPC   C4A40820  11.226   3.064   5.165  0.1776 -0.1779 -0.1952
 3369POPC   C1B40821  11.061   3.515   4.527  0.1100 -0.0975  0.3003
 3369POPC   C2B40822  10.973   3.188   4.754  0.1127 -0.3538 -0.1599
 3369POPC   C3B40823  11.048   2.698   4.838 -0.1843  0.0029  0.0120
 3369POPC   C4B40824  10.751   2.326   4.775  0.3432 -0.1994  0.1178
 3370POPC   NC340825  10.060   5.641   3.995  0.1561 -0.0787 -0.0815
 3370POPC   PO440826  10.279   5.362   3.827  0.1357  0.0915 -0.0891
 3370POPC   GL140827  10.174   5.268   4.180  0.0370  0.1760 -0.1218
 3370POPC   GL240828   9.924   5.147   4.147 -0.0681  0.2320  0.1666
 3370POPC   C1A40829  10.172   5.548   4.597  0.4191 -0.0049  0.0892
 3370POPC   D2A40830  10.193   5.360   4.978  0.0644 -0.0701  0.2455
 3370POPC   C3A40831  10.509   5.355   5.270 -0.1137  0.2734 -0.0690
 3370POPC   C4A40832  10.862   5.126   5.533  0.2729 -0.2390 -0.0308
 3370POPC   C1B40833   9.732   5.250   4.547 -0.0110  0.0579 -0.0204
 3370POPC   C2B40834   9.599   5.280   4.956  0.3424  0.2861  0.0879
 3370POPC   C3B40835   9.441   5.339   5.425 -0.1987  0.0133 -0.4896
 3370POPC   C4B40836   9.054   5.532   5.673 -0.1282 -0.2314 -0.0395
 3371POPC   NC340837   2.287  11.923   3.579 -0.2026  0.2423 -0.3703
 3371POPC   PO440838   2.001  11.701   3.736  0.1081  0.0657 -0.1296
 3371POPC   GL140839   2.060  11.777   4.136 -0.0454  0.4042  0.1522
 3371POPC   GL240840   2.193  12.077   4.179  0.0666  0.0714 -0.1340
 3371POPC   C1A40841   1.935  11.536   4.558 -0.1873  0.0294 -0.2047
 3371POPC   D2A40842   1.460  11.597   4.666  0.0199  0.2191 -0.1577
 3371POPC   C3A40843   1.151  11.533   5.000  0.0774  0.2041 -0.1683
 3371POPC   C4A40844   0.729  11.395   5.219 -0.4292  0.1235  0.1693
 3371POPC   C1B40845   2.308  11.874   4.536  0.1374  0.3123  0.1334
 3371POPC   C2B40846   2.495  11.711   4.922  0.1462  0.1857  0.1399
 3371POPC   C3B40847   2.554  11.417   5.259  0.0983 -0.3024 -0.1487
 3371POPC   C4B40848   2.893  11.376   5.532 -0.0264 -0.2415  0.0511
 3372POPC   NC340849  13.910   2.969   3.747  0.0781  0.0823 -0.0132
 3372POPC   PO440850  13.850   3.314   3.911  0.2748 -0.1030 -0.0112
 3372POPC   GL140851  13.586   3.243   4.272  0.0362  0.0218 -0.3019
 3372POPC   GL240852  13.843   3.390   4.423  0.1855  0.0352 -0.0275
 3372POPC   C1A40853  13.457   3.187   4.726 -0.1167 -0.1353 -0.1797
 3372POPC   D2A40854  13.292   3.057   5.122 -0.0165  0.2831 -0.0111
 3372POPC   C3A40855  12.956   3.422   5.255  0.1115  0.0016 -0.0765
 3372POPC   C4A40856  12.652   3.608   5.606  0.3915 -0.1564  0.2003
 3372POPC   C1B40857  13.957   3.464   4.885  0.0735  0.0595  0.3663
 3372POPC   C2B40858  13.866   3.576   5.321  0.1505  0.0141 -0.0414
 3372POPC   C3B40859  13.749   3.645   5.762 -0.2314  0.0646  0.1301
 3372POPC   C4B40860  13.474   3.768   6.118 -0.1696  0.0051  0.3001
 3373POPC   NC340861  10.493  20.594   3.607  0.0386  0.1537 -0.0504
 3373POPC   PO440862  10.814  20.665   3.419  0.1513  0.1173  0.0235
 3373POPC   GL140863  11.054  20.714   3.713 -0.1920  0.2383 -0.0626
 3373POPC   GL240864  10.921  20.644   3.941  0.1051  0.0919 -0.0960
 3373POPC   C1A40865  11.368  21.018   3.891 -0.1202  0.0530  0.1046
 3373POPC   D2A40866  11.439  21.517   3.853  0.0592 -0.4669  0.4690
 3373POPC   C3A40867  11.627  21.532   4.212  0.2881 -0.0621 -0.1700
 3373POPC   C4A40868  11.766  21.656   4.611  0.0050  0.0135 -0.1333
 3373POPC   C1B40869  10.873  20.624   4.388 -0.0518  0.0759  0.1506
 3373POPC   C2B40870  10.894  20.693   4.868 -0.1855  0.3179  0.0461
 3373POPC   C3B40871  10.772  20.504   5.317  0.1298  0.0994 -0.1684
 3373POPC   C4B40872  10.966  20.108   5.522  0.1575 -0.3007 -0.2298
 3374POPC   NC340873   8.351  22.444   3.574 -0.0716 -0.1396  0.0160
 3374POPC   PO440874   8.407  22.785   3.366  0.0998  0.2008  0.1549
 3374POPC   GL140875   8.797  22.787   3.596  0.0953  0.0900 -0.1460
 3374POPC   GL240876   8.959  22.510   3.677 -0.2105  0.2247  0.3042
 3374POPC   C1A40877   9.073  22.936   3.903  0.5167 -0.1828 -0.0462
 3374POPC   D2A40878   9.343  22.905   4.201  0.1134 -0.0742 -0.3035
 3374POPC   C3A40879   9.314  22.952   4.667  0.1042 -0.0589  0.1114
 3374POPC   C4A40880   9.061  22.993   5.099  0.1038 -0.0052  0.0369
 3374POPC   C1B40881   9.148  22.445   4.104  0.3394 -0.1388 -0.0862
 3374POPC   C2B40882   9.324  22.445   4.495 -0.3607 -0.2777  0.0968
 3374POPC   C3B40883   9.384  22.521   4.929 -0.1971 -0.0592  0.3500
 3374POPC   C4B40884   9.607  22.617   5.326  0.0057 -0.0873 -0.0240
 3375POPC   NC340885   2.696  18.372   3.356  0.0344  0.0964  0.2316
 3375POPC   PO440886   2.626  18.597   3.681 -0.2505  0.0280  0.0670
 3375POPC   GL140887   2.639  18.601   4.124 -0.2624 -0.0480 -0.1488
 3375POPC   GL240888   2.921  18.579   4.071 -0.0350 -0.1439 -0.2075
 3375POPC   C1A40889   2.290  18.447   4.419 -0.1265 -0.0815  0.2709
 3375POPC   D2A40890   2.167  18.105   4.753  0.0618  0.0342  0.1566
 3375POPC   C3A40891   1.923  18.138   5.172  0.4309 -0.2308  0.1754
 3375POPC   C4A40892   1.892  17.843   5.489  0.0482 -0.0462 -0.1581
 3375POPC   C1B40893   2.927  18.482   4.493 -0.1817 -0.0415  0.2032
 3375POPC   C2B40894   3.051  18.267   4.875 -0.1871  0.0983  0.2642
 3375POPC   C3B40895   3.397  18.420   5.131  0.1430  0.2330  0.0754
 3375POPC   C4B40896   3.761  18.173   5.098 -0.1485  0.1312  0.0909
 3376POPC   NC340897   5.986   4.219   3.367  0.1917 -0.1659 -0.1963
 3376POPC   PO440898   6.177   4.180   3.717  0.0250  0.3466  0.1102
 3376POPC   GL140899   6.241   4.273   4.174  0.2596  0.0705 -0.1713
 3376POPC   GL240900   6.348   4.152   4.459  0.4259 -0.0463 -0.1024
 3376POPC   C1A40901   6.248   4.640   4.458  0.0736 -0.0066  0.1602
 3376POPC   D2A40902   6.320   4.798   4.884 -0.0784  0.2792  0.0293
 3376POPC   C3A40903   6.473   4.716   5.319 -0.0991 -0.0616 -0.0578
 3376POPC   C4A40904   6.630   4.353   5.545 -0.3180  0.1294  0.1337
 3376POPC   C1B40905   6.298   4.219   4.928  0.1426 -0.2590 -0.2120
 3376POPC   C2B40906   6.079   4.058   5.228  0.0426  0.0451  0.1671
 3376POPC   C3B40907   5.791   3.915   5.573 -0.1040  0.1326 -0.0691
 3376POPC   C4B40908   5.891   3.745   6.028  0.1452 -0.1276 -0.1181
 3377POPC   NC340909  15.088   1.241   3.565 -0.1126  0.0279 -0.0459
 3377POPC   PO440910  14.821   1.439   3.435  0.2983 -0.0937 -0.1198
 3377POPC   GL140911  14.794   1.352   3.916  0.0845  0.1114  0.0392
 3377POPC   GL240912  14.605   1.230   4.136  0.2650  0.0405  0.0777
 3377POPC   C1A40913  15.153   1.549   4.153 -0.0791 -0.2834  0.0738
 3377POPC   D2A40914  15.459   1.530   4.493  0.1548  0.0660 -0.2418
 3377POPC   C3A40915  15.281   1.390   4.889  0.1557  0.0536 -0.0609
 3377POPC   C4A40916  15.447   1.366   5.293  0.3447  0.1743 -0.0475
 3377POPC   C1B40917  14.878   1.335   4.493  0.0628  0.2820  0.0419
 3377POPC   C2B40918  14.750   1.326   4.962  0.1389 -0.0767 -0.0898
 3377POPC   C3B40919  14.513   1.261   5.434 -0.5225 -0.1807 -0.0851
 3377POPC   C4B40920  14.446   1.404   5.846 -0.1152  0.1813 -0.2870
 3378POPC   NC340921   0.706  26.082   3.932 -0.2405  0.0963  0.1428
 3378POPC   PO440922   0.874  25.809   3.690  0.0043  0.0695  0.3123
 3378POPC   GL140923   0.976  25.724   4.104  0.2349 -0.0684  0.0302
 3378POPC   GL240924   1.126  25.450   4.056 -0.0112  0.1848 -0.1796
 3378POPC   C1A40925   1.096  25.605   4.556  0.1013 -0.0046 -0.1935
 3378POPC   D2A40926   1.327  25.620   4.944  0.2665  0.2278  0.0478
 3378POPC   C3A40927   1.554  25.260   5.120 -0.1638 -0.0316 -0.2837
 3378POPC   C4A40928   1.712  25.059   5.519 -0.0752  0.0731  0.2006
 3378POPC   C1B40929   1.309  25.169   4.325  0.0582 -0.2239  0.1612
 3378POPC   C2B40930   1.529  24.876   4.620 -0.2299 -0.1128  0.0663
 3378POPC   C3B40931   1.883  24.747   4.883  0.0653 -0.1179  0.5202
 3378POPC   C4B40932   2.266  24.922   5.009  0.2936  0.1311  0.0345
 3379POPC   NC340933  15.687  21.672   3.812  0.1280 -0.1235 -0.2239
 3379POPC   PO440934  15.942  21.368   3.667  0.0868 -0.0790  0.4101
 3379POPC   GL140935  15.891  21.190   4.019 -0.3719 -0.1550 -0.2390
 3379POPC   GL240936  15.583  21.259   4.088 -0.1551  0.0244  0.0093
 3379POPC   C1A40937  15.999  21.293   4.453 -0.1019 -0.2321 -0.1294
 3379POPC   D2A40938  15.977  21.127   4.886  0.1804 -0.0400  0.0361
 3379POPC   C3A40939  16.061  21.353   5.265  0.1031  0.2234  0.0374
 3379POPC   C4A40940  16.143  21.074   5.661 -0.3065  0.1743  0.2777
 3379POPC   C1B40941  15.306  21.368   4.414  0.0038  0.1917  0.1975
 3379POPC   C2B40942  15.167  21.396   4.883  0.1458  0.1395  0.1424
 3379POPC   C3B40943  14.898  21.492   5.252 -0.2133 -0.0289 -0.3285
 3379POPC   C4B40944  14.805  21.431   5.654 -0.1718 -0.0341 -0.3270
 3380POPC   NC340945  13.563   9.808   4.127 -0.0885 -0.3374 -0.0299
 3380POPC   PO440946  13.331   9.495   4.077 -0.0870  0.0799  0.2148
 3380POPC   GL140947  13.294   9.568   4.443  0.1026  0.0834 -0.0978
 3380POPC   GL240948  13.223   9.282   4.522 -0.0051 -0.2104  0.1963
 3380POPC   C1A40949  12.939   9.748   4.759 -0.0475  0.2618  0.4031
 3380POPC   D2A40950  12.514   9.956   4.914 -0.0636 -0.0982 -0.2867
 3380POPC   C3A40951  12.455   9.909   5.404 -0.0681 -0.0809  0.0960
 3380POPC   C4A40952  12.521   9.942   5.879 -0.1131  0.1078 -0.3065
 3380POPC   C1B40953  13.106   9.247   5.010 -0.0953 -0.1797  0.1723
 3380POPC   C2B40954  12.993   9.184   5.416 -0.0674  0.1904 -0.2129
 3380POPC   C3B40955  12.805   9.316   5.839  0.0658  0.1330  0.4890
 3380POPC   C4B40956  12.474   9.144   6.038 -0.0170  0.1279  0.1004
 3381POPC   NC340957   3.321   9.070   4.091 -0.0209  0.1372 -0.2585
 3381POPC   PO440958   3.643   8.797   4.108 -0.2541  0.3880  0.0350
 3381POPC   GL140959   3.746   8.839   4.511  0.1341 -0.2568 -0.1894
 3381POPC   GL240960   3.786   8.597   4.603 -0.1312 -0.0779 -0.0256
 3381POPC   C1A40961   3.675   8.925   4.969  0.1528  0.2582 -0.3246
 3381POPC   D2A40962   3.525   8.778   5.383 -0.1383  0.1960  0.1428
 3381POPC   C3A40963   3.598   8.971   5.753  0.0803  0.0055 -0.0771
 3381POPC   C4A40964   3.410   9.233   6.064 -0.2077  0.4080 -0.1217
 3381POPC   C1B40965   3.782   8.479   5.075  0.0400  0.1648  0.1933
 3381POPC   C2B40966   3.701   8.313   5.495  0.2528 -0.1043  0.5302
 3381POPC   C3B40967   3.331   8.418   5.757  0.1212 -0.1365  0.0167
 3381POPC   C4B40968   2.961   8.626   5.907 -0.0478  0.0764  0.3300
 3382POPC   NC340969   1.493  17.853   3.905 -0.0148  0.0057  0.1887
 3382POPC   PO440970   1.708  17.616   3.666  0.1312 -0.0441  0.0362
 3382POPC   GL140971   1.959  17.718   3.967  0.0389  0.1152  0.5019
 3382POPC   GL240972   2.108  17.565   4.126 -0.1006  0.1096  0.0072
 3382POPC   C1A40973   1.803  18.039   4.293 -0.0903 -0.0715  0.2175
 3382POPC   D2A40974   1.643  17.972   4.757  0.1194 -0.0877 -0.0681
 3382POPC   C3A40975   1.550  17.714   5.115  0.1062  0.1891 -0.2162
 3382POPC   C4A40976   1.453  17.615   5.591 -0.0097  0.0075  0.3126
 3382POPC   C1B40977   2.043  17.692   4.572 -0.2958  0.1545  0.1895
 3382POPC   C2B40978   2.016  17.626   5.045 -0.0631 -0.2183 -0.2067
 3382POPC   C3B40979   2.255  17.422   5.392 -0.1696 -0.0516 -0.0273
 3382POPC   C4B40980   2.320  17.208   5.783  0.2934  0.0360 -0.0455
 3383POPC   NC340981  15.372  18.954   3.937 -0.0479 -0.0752  0.1323
 3383POPC   PO440982  15.293  18.564   3.938 -0.2286 -0.2362 -0.0659
 3383POPC   GL140983  15.403  18.668   4.323  0.0459  0.0363 -0.0240
 3383POPC   GL240984  15.670  18.607   4.302  0.1129 -0.1504  0.0221
 3383POPC   C1A40985  15.182  18.661   4.707  0.0284 -0.1295  0.0003
 3383POPC   D2A40986  14.799  18.476   4.837  0.0011 -0.0001 -0.0202
 3383POPC   C3A40987  14.692  18.303   5.218  0.0799  0.1206  0.3995
 3383POPC   C4A40988  14.679  18.287   5.668 -0.0375 -0.3451  0.2065
 3383POPC   C1B40989  15.714  18.554   4.761 -0.0392  0.3367  0.1694
 3383POPC   C2B40990  15.851  18.545   5.226  0.0419  0.1699 -0.0555
 3383POPC   C3B40991  15.888  18.673   5.645 -0.0190 -0.0370  0.3752
 3383POPC   C4B40992  15.532  18.760   5.962 -0.1210  0.2435 -0.1951
 3384POPC   NC340993  13.433  19.923   3.457  0.0906 -0.2175  0.1722
 3384POPC   PO440994  13.586  19.661   3.231  0.1848  0.0161 -0.1426
 3384POPC   GL140995  13.449  19.523   3.583 -0.0106  0.1255  0.1441
 3384POPC   GL240996  13.578  19.653   3.818 -0.1183  0.1144 -0.0080
 3384POPC   C1A40997  13.295  19.297   3.928  0.0214 -0.2058  0.0271
 3384POPC   D2A40998  13.234  18.894   4.103  0.2059  0.0854  0.0603
 3384POPC   C3A40999  13.176  18.935   4.562 -0.1703  0.0359 -0.3057
 3384POPC   C4A41000  13.036  18.728   4.943 -0.2037  0.0017 -0.1117
 3384POPC   C1B41001  13.463  19.615   4.258 -0.0570  0.4393 -0.0341
 3384POPC   C2B41002  13.274  19.739   4.675  0.0461 -0.0819 -0.0763
 3384POPC   C3B41003  13.126  19.885   5.051 -0.0774 -0.1421  0.0295
 3384POPC   C4B41004  12.937  20.088   5.467  0.0384  0.0215  0.6486
 3385POPC   NC341005   2.773  14.939   3.176  0.1297  0.0032 -0.3868
 3385POPC   PO441006   2.481  15.063   3.452 -0.1241 -0.1244  0.2196
 3385POPC   GL141007   2.522  15.146   3.836 -0.2022 -0.0457 -0.4399
 3385POPC   GL241008   2.438  15.408   3.836 -0.2565 -0.0813 -0.3844
 3385POPC   C1A41009   2.699  15.100   4.253  0.0347  0.0791 -0.0846
 3385POPC   D2A41010   2.677  15.120   4.731  0.1043  0.1474 -0.1383
 3385POPC   C3A41011   2.801  14.747   4.913  0.0064 -0.0191  0.1267
 3385POPC   C4A41012   3.089  14.440   4.751  0.2467 -0.0141 -0.3868
 3385POPC   C1B41013   2.161  15.221   4.097 -0.0337  0.1372  0.0957
 3385POPC   C2B41014   2.202  15.009   4.533 -0.3171 -0.0757  0.1160
 3385POPC   C3B41015   2.315  14.943   4.968 -0.0412  0.1540 -0.1415
 3385POPC   C4B41016   2.522  14.847   5.367  0.2185  0.0044  0.2908
 3386POPC   NC341017  10.804  17.223   3.524  0.0924 -0.0877  0.0230
 3386POPC   PO441018  10.483  17.415   3.638  0.1714  0.2559 -0.0502
 3386POPC   GL141019  10.312  17.275   3.984 -0.2233 -0.0823 -0.1809
 3386POPC   GL241020  10.076  17.405   3.950  0.1142  0.0967 -0.0475
 3386POPC   C1A41021  10.537  17.081   4.390  0.1829 -0.0986  0.0255
 3386POPC   D2A41022  10.795  16.971   4.795 -0.0720 -0.1365  0.0710
 3386POPC   C3A41023  10.632  17.042   5.228  0.1347 -0.0000 -0.0203
 3386POPC   C4A41024  10.705  17.158   5.681 -0.0006 -0.0407 -0.0680
 3386POPC   C1B41025  10.009  17.228   4.392 -0.0634 -0.1458 -0.3643
 3386POPC   C2B41026  10.138  17.070   4.823  0.0323  0.0732 -0.1739
 3386POPC   C3B41027  10.159  17.072   5.281 -0.1039 -0.1482 -0.0003
 3386POPC   C4B41028  10.030  17.088   5.731 -0.0415  0.1118 -0.0052
 3387POPC   NC341029   1.006  28.215   3.760  0.1254  0.0584  0.1196
 3387POPC   PO441030   0.680  28.486   3.790  0.2120 -0.2137 -0.1228
 3387POPC   GL141031   0.910  28.621   4.140  0.3795 -0.0083  0.2282
 3387POPC   GL241032   0.718  28.542   4.307  0.1480 -0.2106  0.0066
 3387POPC   C1A41033   1.169  28.482   4.510  0.0000  0.2895 -0.2032
 3387POPC   D2A41034   1.229  28.253   4.943  0.2236 -0.0750 -0.0408
 3387POPC   C3A41035   1.138  28.216   5.382  0.0243 -0.1582  0.1877
 3387POPC   C4A41036   0.960  28.351   5.757  0.0707 -0.0798  0.1664
 3387POPC   C1B41037   0.696  28.381   4.762  0.4009 -0.1880 -0.2203
 3387POPC   C2B41038   0.521  28.330   5.236  0.1967  0.2410 -0.0567
 3387POPC   C3B41039   0.240  28.198   5.517  0.1125  0.1196  0.0931
 3387POPC   C4B41040  -0.199  27.965   5.506  0.2357 -0.0658  0.0280
 3388POPC   NC341041  10.809   3.171   4.143  0.2782  0.1879 -0.1882
 3388POPC   PO441042  10.537   2.906   3.948  0.1370  0.0845 -0.1433
 3388POPC   GL141043  10.541   2.641   4.301 -0.3768 -0.2292  0.0342
 3388POPC   GL241044  10.857   2.601   4.340 -0.2244  0.0497  0.2372
 3388POPC   C1A41045  10.597   2.850   4.726  0.3176 -0.1523  0.0300
 3388POPC   D2A41046  10.745   2.933   5.206 -0.2419 -0.1128  0.0167
 3388POPC   C3A41047  10.344   3.034   5.350 -0.2546  0.0667 -0.2100
 3388POPC   C4A41048   9.890   3.004   5.249 -0.0117  0.2697 -0.0299
 3388POPC   C1B41049  11.228   2.937   4.366 -0.2020 -0.0050  0.1876
 3388POPC   C2B41050  11.519   3.259   4.579  0.1197  0.0791 -0.0010
 3388POPC   C3B41051  11.625   3.494   4.994  0.1402 -0.1264  0.1230
 3388POPC   C4B41052  11.595   3.676   5.408 -0.4501 -0.0254  0.0098
 3389POPC   NC341053  10.084   2.784   3.741  0.1026 -0.1453 -0.1850
 3389POPC   PO441054   9.833   3.009   3.479 -0.2156  0.1404 -0.1159
 3389POPC   GL141055   9.697   3.034   3.819 -0.0817 -0.1187  0.1344
 3389POPC   GL241056   9.924   3.114   4.053 -0.0437  0.0427  0.2225
 3389POPC   C1A41057   9.683   2.764   4.205  0.1682  0.0274 -0.2203
 3389POPC   D2A41058   9.588   2.773   4.666 -0.3088 -0.2381 -0.2559
 3389POPC   C3A41059   9.450   2.398   4.913  0.0939  0.6222 -0.1137
 3389POPC   C4A41060   9.285   2.448   5.330 -0.0746 -0.1544  0.1077
 3389POPC   C1B41061  10.026   3.158   4.523  0.1958  0.1284 -0.0963
 3389POPC   C2B41062  10.129   3.427   4.944  0.1493  0.1072 -0.1395
 3389POPC   C3B41063  10.183   3.504   5.407 -0.0946  0.0535  0.0099
 3389POPC   C4B41064  10.238   3.293   5.778 -0.4904 -0.0142  0.2800
 3390POPC   NC341065  12.997  23.042   3.607 -0.1195 -0.1037 -0.0875
 3390POPC   PO441066  13.228  22.786   3.511 -0.0061 -0.2699  0.1417
 3390POPC   GL141067  13.267  22.788   3.892  0.0397  0.1358  0.2050
 3390POPC   GL241068  13.347  23.083   4.014  0.1162  0.3022  0.0526
 3390POPC   C1A41069  13.239  22.775   4.368  0.1624 -0.1607  0.1434
 3390POPC   D2A41070  13.009  22.549   4.697  0.1590 -0.0337  0.1582
 3390POPC   C3A41071  13.051  22.371   5.128 -0.3535 -0.3171  0.1729
 3390POPC   C4A41072  13.078  21.926   5.249  0.1299 -0.2521 -0.1073
 3390POPC   C1B41073  13.407  23.344   4.330 -0.1939 -0.2125 -0.1006
 3390POPC   C2B41074  13.564  23.418   4.736  0.0813 -0.0725  0.0605
 3390POPC   C3B41075  13.433  23.299   5.189 -0.2344  0.0058 -0.1083
 3390POPC   C4B41076  13.519  22.958   5.513  0.0435  0.1007  0.0460
 3391POPC   NC341077   1.167   0.075   3.840  0.2284 -0.1224 -0.0284
 3391POPC   PO441078   0.910  -0.106   3.624 -0.1034 -0.1941  0.2281
 3391POPC   GL141079   0.621   0.045   3.931  0.3139 -0.0679  0.0342
 3391POPC   GL241080   0.459   0.247   4.148  0.0531 -0.0615 -0.1732
 3391POPC   C1A41081   0.763  -0.148   4.307  0.0363  0.0149  0.0420
 3391POPC   D2A41082   1.066  -0.418   4.498 -0.0982  0.1612  0.0887
 3391POPC   C3A41083   1.266  -0.542   4.892  0.2651 -0.0253  0.2678
 3391POPC   C4A41084   1.489  -0.681   5.263 -0.2630  0.0250  0.0366
 3391POPC   C1B41085   0.409   0.056   4.572  0.4274  0.2847 -0.1278
 3391POPC   C2B41086   0.672  -0.232   4.843  0.1489 -0.1318 -0.1040
 3391POPC   C3B41087   1.003  -0.207   5.165 -0.0820  0.0015  0.0811
 3391POPC   C4B41088   1.456  -0.214   5.310  0.2690 -0.2626  0.2354
 3392POPC   NC341089   8.711  29.523   4.144  0.1141 -0.0644 -0.1360
 3392POPC   PO441090   9.008  29.263   4.176 -0.1160  0.2245  0.2415
 3392POPC   GL141091   9.242  29.150   4.374  0.3631 -0.2941 -0.2701
 3392POPC   GL241092   9.376  29.397   4.610  0.0768  0.1548  0.1310
 3392POPC   C1A41093   9.013  29.020   4.811 -0.2490 -0.2537 -0.1336
 3392POPC   D2A41094   9.028  28.984   5.288  0.1184 -0.0276 -0.0585
 3392POPC   C3A41095   9.139  29.230   5.678 -0.0012  0.1233 -0.2571
 3392POPC   C4A41096   9.352  29.460   5.952 -0.0990  0.0371 -0.1352
 3392POPC   C1B41097   9.427  29.278   5.049 -0.0556 -0.0283 -0.2796
 3392POPC   C2B41098   9.550  29.080   5.419  0.1832  0.2094  0.0261
 3392POPC   C3B41099   9.482  28.959   5.924  0.0150 -0.1411 -0.1032
 3392POPC   C4B41100   9.100  29.099   6.174 -0.0691  0.0274 -0.0875
 3393POPC   NC341101  12.072  24.864   3.389 -0.0778  0.2097 -0.1532
 3393POPC   PO441102  12.247  25.212   3.315 -0.3457  0.1116 -0.0926
 3393POPC   GL141103  12.144  25.376   3.665 -0.3797 -0.2723 -0.4920
 3393POPC   GL241104  12.187  25.690   3.658 -0.0609 -0.0428 -0.0588
 3393POPC   C1A41105  12.317  25.150   4.029  0.1866 -0.3281 -0.2513
 3393POPC   D2A41106  12.074  24.835   4.321 -0.0252  0.3183  0.0647
 3393POPC   C3A41107  12.095  24.584   4.733  0.0401  0.2001  0.2859
 3393POPC   C4A41108  12.133  24.497   5.150  0.0740  0.0571  0.3203
 3393POPC   C1B41109  12.107  26.175   3.610  0.3136 -0.1098 -0.2595
 3393POPC   C2B41110  11.961  26.564   3.827 -0.0868 -0.0020 -0.2310
 3393POPC   C3B41111  12.104  26.537   4.265  0.0679 -0.0434  0.1126
 3393POPC   C4B41112  11.986  26.671   4.698 -0.1451  0.4856 -0.0249
 3394POPC   NC341113   0.764  14.875   3.626 -0.0956 -0.2815 -0.0797
 3394POPC   PO441114   1.000  15.065   3.840 -0.4871 -0.1494  0.3339
 3394POPC   GL141115   0.844  15.004   4.259  0.0523 -0.1276  0.0678
 3394POPC   GL241116   0.695  14.767   4.210 -0.0972  0.0979 -0.2808
 3394POPC   C1A41117   0.978  14.983   4.647 -0.2853 -0.2167 -0.1759
 3394POPC   D2A41118   1.024  15.256   5.032 -0.4981 -0.1986 -0.0069
 3394POPC   C3A41119   0.917  15.542   5.419 -0.0311 -0.1275  0.1303
 3394POPC   C4A41120   1.098  15.762   5.800  0.1165  0.3058 -0.5608
 3394POPC   C1B41121   0.599  14.669   4.628  0.3181  0.2596  0.2341
 3394POPC   C2B41122   0.441  14.618   5.040 -0.4934 -0.2709  0.1432
 3394POPC   C3B41123   0.229  14.584   5.440 -0.0573  0.3160 -0.1552
 3394POPC   C4B41124  -0.126  14.534   5.768 -0.0938 -0.0311  0.3721
 3395POPC   NC341125   8.076  23.471   3.824  0.0091 -0.0287 -0.2499
 3395POPC   PO441126   8.031  23.841   3.874 -0.1168 -0.2035  0.2044
 3395POPC   GL141127   7.945  23.816   4.251 -0.1157 -0.0608  0.1760
 3395POPC   GL241128   7.724  23.668   4.287  0.0895 -0.2271  0.0996
 3395POPC   C1A41129   8.242  23.825   4.608  0.0278 -0.0214  0.0362
 3395POPC   D2A41130   8.427  23.753   5.034  0.0056 -0.1553  0.1600
 3395POPC   C3A41131   8.289  23.583   5.439  0.2715  0.2224  0.0793
 3395POPC   C4A41132   8.520  23.492   5.774 -0.4018  0.0929 -0.1461
 3395POPC   C1B41133   7.322  23.508   4.348  0.2157 -0.1732 -0.1721
 3395POPC   C2B41134   7.011  23.401   4.710 -0.3394 -0.1483  0.0620
 3395POPC   C3B41135   6.848  23.298   5.136 -0.0739 -0.1294 -0.3759
 3395POPC   C4B41136   6.729  23.330   5.600  0.0668 -0.0754 -0.1851
 3396POPC   NC341137   2.923  20.548   3.863  0.0333 -0.1191  0.1496
 3396POPC   PO441138   3.136  20.253   3.861 -0.2541 -0.0621 -0.4058
 3396POPC   GL141139   3.323  20.392   4.283 -0.1471  0.4338 -0.0671
 3396POPC   GL241140   3.380  20.112   4.377 -0.1460  0.0406  0.0067
 3396POPC   C1A41141   3.375  20.598   4.688  0.1389 -0.1025 -0.0029
 3396POPC   D2A41142   3.358  20.892   5.008  0.0453  0.0102 -0.2687
 3396POPC   C3A41143   3.160  20.773   5.434  0.1374  0.1055  0.3782
 3396POPC   C4A41144   2.772  20.573   5.569 -0.0648  0.4523 -0.2620
 3396POPC   C1B41145   3.195  19.773   4.639  0.0183 -0.2393  0.1842
 3396POPC   C2B41146   3.203  19.394   4.937 -0.0459 -0.0699  0.0327
 3396POPC   C3B41147   3.072  19.146   5.248  0.1704  0.1911 -0.1471
 3396POPC   C4B41148   2.604  19.099   5.374 -0.3025 -0.1961 -0.0846
 3397POPC   NC341149  15.032   7.317   4.045 -0.1810  0.0511  0.0044
 3397POPC   PO441150  15.316   7.197   3.821 -0.1790 -0.3491  0.2610
 3397POPC   GL141151  15.686   7.290   3.958 -0.0073 -0.0613 -0.0400
 3397POPC   GL241152  15.619   7.538   4.045 -0.0249 -0.0544  0.1373
 3397POPC   C1A41153  15.871   7.301   4.413  0.0644  0.3734 -0.1741
 3397POPC   D2A41154  15.899   7.344   4.880 -0.1876 -0.1182  0.0176
 3397POPC   C3A41155  15.709   7.095   5.226 -0.0397  0.3334 -0.2267
 3397POPC   C4A41156  15.508   6.887   5.581 -0.1271 -0.0647 -0.1142
 3397POPC   C1B41157  15.389   7.416   4.419  0.2265 -0.0097 -0.3609
 3397POPC   C2B41158  15.400   7.285   4.820 -0.3520  0.4105 -0.1475
 3397POPC   C3B41159  15.206   7.173   5.307  0.1518  0.0454  0.0003
 3397POPC   C4B41160  15.067   7.110   5.743  0.0553  0.0252 -0.0966
 3398POPC   NC341161   1.637  12.421   4.075 -0.0542  0.0028 -0.2234
 3398POPC   PO441162   1.732  12.714   3.861  0.3239 -0.0398 -0.1258
 3398POPC   GL141163   1.721  12.847   4.283  0.0428  0.1424 -0.3986
 3398POPC   GL241164   1.636  13.100   4.236 -0.0514  0.0873  0.1125
 3398POPC   C1A41165   1.978  12.816   4.704 -0.1912  0.1637  0.0921
 3398POPC   D2A41166   2.065  12.805   5.143 -0.5148  0.0174  0.2035
 3398POPC   C3A41167   2.248  12.580   5.543  0.3269 -0.0544  0.0604
 3398POPC   C4A41168   2.583  12.319   5.623  0.0430  0.0979 -0.1139
 3398POPC   C1B41169   1.857  13.267   4.583  0.2770 -0.2385 -0.2644
 3398POPC   C2B41170   2.102  13.397   4.994  0.1023 -0.0120  0.0026
 3398POPC   C3B41171   2.099  13.264   5.421  0.0954 -0.0200  0.0632
 3398POPC   C4B41172   2.216  13.046   5.787  0.2337  0.0926 -0.1334
 3399POPC   NC341173   7.929   2.173   3.392  0.2750 -0.2584  0.0152
 3399POPC   PO441174   7.777   2.534   3.261  0.2863 -0.0462  0.1232
 3399POPC   GL141175   7.822   2.565   3.649  0.1053  0.2000  0.0870
 3399POPC   GL241176   7.679   2.429   3.871 -0.0755  0.0571 -0.1578
 3399POPC   C1A41177   8.212   2.507   3.950  0.1235  0.0330  0.0714
 3399POPC   D2A41178   8.421   2.102   4.137  0.0484 -0.1273 -0.1733
 3399POPC   C3A41179   8.274   1.929   4.535 -0.4165  0.1642 -0.0023
 3399POPC   C4A41180   8.421   1.894   4.934  0.0095  0.2778  0.1211
 3399POPC   C1B41181   7.491   2.367   4.326 -0.0421  0.1607  0.0515
 3399POPC   C2B41182   7.504   2.409   4.798 -0.0244 -0.0157  0.3137
 3399POPC   C3B41183   7.418   2.672   5.114  0.1926 -0.0328 -0.1268
 3399POPC   C4B41184   7.250   2.829   5.486  0.1664  0.0552 -0.1102
 3400POPC   NC341185   1.234  17.871   4.440 -0.2686 -0.0193 -0.0548
 3400POPC   PO441186   0.938  17.948   4.174  0.2474 -0.1635  0.1614
 3400POPC   GL141187   0.662  17.746   4.383  0.2517  0.3671 -0.3267
 3400POPC   GL241188   0.780  17.693   4.647 -0.1088  0.4228  0.2923
 3400POPC   C1A41189   0.305  17.678   4.710  0.0767 -0.1427 -0.0311
 3400POPC   D2A41190   0.123  17.583   5.121  0.3078 -0.2540 -0.0651
 3400POPC   C3A41191  -0.213  17.795   5.305 -0.0022  0.0693 -0.0272
 3400POPC   C4A41192  -0.415  17.764   5.715 -0.0599 -0.0161  0.2505
 3400POPC   C1B41193   0.634  17.594   5.085  0.1213 -0.1173 -0.0181
 3400POPC   C2B41194   0.748  17.463   5.556 -0.2432  0.0770  0.2461
 3400POPC   C3B41195   0.750  17.224   5.883  0.4461 -0.0881 -0.1810
 3400POPC   C4B41196   0.578  17.065   6.271  0.0228  0.2513 -0.0695
 3401POPC   NC341197  11.488  15.571   3.601  0.1759 -0.1068  0.1259
 3401POPC   PO441198  11.279  15.893   3.749 -0.1424 -0.0595 -0.2102
 3401POPC   GL141199  11.035  15.820   4.154  0.0801  0.0192 -0.4256
 3401POPC   GL241200  11.177  15.568   4.110 -0.0139  0.4215  0.0724
 3401POPC   C1A41201  10.996  15.947   4.596 -0.2655 -0.4063 -0.0242
 3401POPC   D2A41202  11.170  16.141   4.997  0.1764 -0.0531 -0.0352
 3401POPC   C3A41203  11.206  15.766   5.310  0.1381 -0.1671 -0.1050
 3401POPC   C4A41204  11.577  15.753   5.578  0.1183 -0.2726 -0.2082
 3401POPC   C1B41205  10.955  15.457   4.552 -0.0642  0.0214 -0.3185
 3401POPC   C2B41206  11.033  15.343   4.955  0.3925 -0.1494 -0.1413
 3401POPC   C3B41207  11.196  14.964   5.159  0.0687  0.2607  0.1890
 3401POPC   C4B41208  11.565  14.702   5.335 -0.0871 -0.3862  0.2969
 3402POPC   NC341209   2.565  28.159   3.337  0.0245 -0.1964  0.1892
 3402POPC   PO441210   2.677  28.268   3.680  0.1342 -0.1055  0.1839
 3402POPC   GL141211   2.666  28.163   4.044 -0.4289 -0.0204 -0.0696
 3402POPC   GL241212   2.366  28.201   4.069  0.0419 -0.1562  0.1628
 3402POPC   C1A41213   2.919  27.977   4.397  0.4611 -0.1262  0.0604
 3402POPC   D2A41214   2.765  28.074   4.799 -0.0669 -0.0975  0.2496
 3402POPC   C3A41215   2.847  28.003   5.273 -0.2057 -0.0087 -0.0398
 3402POPC   C4A41216   2.943  27.774   5.650  0.0471 -0.1208 -0.1160
 3402POPC   C1B41217   2.289  28.235   4.447  0.4988  0.0416 -0.0850
 3402POPC   C2B41218   2.244  28.144   4.909 -0.0161  0.1882 -0.0688
 3402POPC   C3B41219   2.277  28.017   5.339  0.0899  0.1529  0.2680
 3402POPC   C4B41220   2.024  27.862   5.703 -0.0561  0.2318  0.0881
 3403POPC   NC341221   0.602  17.510   4.033  0.0632 -0.0629  0.1626
 3403POPC   PO441222   1.008  17.485   4.069  0.1801  0.0437  0.0785
 3403POPC   GL141223   1.129  17.362   4.410  0.2788 -0.2770 -0.0460
 3403POPC   GL241224   0.846  17.211   4.493  0.4650  0.0072  0.1271
 3403POPC   C1A41225   1.205  17.495   4.870 -0.1719  0.1858 -0.0972
 3403POPC   D2A41226   1.127  17.410   5.318 -0.0642  0.1642  0.0042
 3403POPC   C3A41227   1.221  17.197   5.767 -0.0888  0.3369  0.0202
 3403POPC   C4A41228   1.343  16.999   6.146  0.2761  0.4747  0.4473
 3403POPC   C1B41229   0.845  17.184   4.952  0.0937  0.1254  0.1018
 3403POPC   C2B41230   0.862  16.967   5.347  0.0107 -0.1400  0.2473
 3403POPC   C3B41231   1.250  16.797   5.556  0.1036  0.0335  0.0008
 3403POPC   C4B41232   1.591  16.673   5.809 -0.2474  0.0740  0.0004
 3404POPC   NC341233   4.185  10.227   4.169 -0.1583  0.1166  0.2298
 3404POPC   PO441234   4.460   9.934   4.064 -0.1368  0.2709  0.0937
 3404POPC   GL141235   4.552  10.133   4.382 -0.3032  0.1594 -0.0452
 3404POPC   GL241236   4.561   9.975   4.619 -0.2252  0.0570 -0.1349
 3404POPC   C1A41237   4.446  10.521   4.642 -0.2457  0.0657  0.1442
 3404POPC   D2A41238   4.103  10.697   4.952 -0.0053  0.0306 -0.1200
 3404POPC   C3A41239   4.225  10.611   5.410 -0.3787  0.1186  0.0645
 3404POPC   C4A41240   4.368  10.799   5.786  0.0158  0.1966  0.2338
 3404POPC   C1B41241   4.791   9.822   4.944 -0.0971  0.4633 -0.2223
 3404POPC   C2B41242   4.753   9.745   5.356 -0.0659  0.1102 -0.0208
 3404POPC   C3B41243   4.702   9.811   5.766 -0.3531  0.0848 -0.3489
 3404POPC   C4B41244   4.322   9.888   6.053  0.1559  0.1552  0.1562
 3405POPC   NC341245   9.601  16.342   3.867 -0.1311 -0.0372 -0.0116
 3405POPC   PO441246   9.879  16.586   3.801 -0.2549 -0.1086  0.0979
 3405POPC   GL141247   9.896  16.730   4.157 -0.2588  0.0904 -0.0105
 3405POPC   GL241248  10.136  16.840   4.142 -0.0003  0.1927 -0.1173
 3405POPC   C1A41249   9.791  16.836   4.615 -0.1194  0.3063 -0.1560
 3405POPC   D2A41250   9.751  16.800   5.050  0.0943  0.1259 -0.1913
 3405POPC   C3A41251   9.613  16.982   5.455 -0.1030  0.0064 -0.1335
 3405POPC   C4A41252   9.533  16.951   5.962  0.0002 -0.4635 -0.3250
 3405POPC   C1B41253  10.286  16.690   4.569 -0.1485 -0.1924 -0.2641
 3405POPC   C2B41254  10.323  16.546   5.037  0.1078 -0.1605  0.1925
 3405POPC   C3B41255  10.426  16.686   5.474 -0.0644  0.0009 -0.1365
 3405POPC   C4B41256  10.429  16.848   5.925 -0.0071 -0.1686  0.0091
 3406POPC   NC341257  13.116   0.223   3.688  0.2069  0.1613  0.0149
 3406POPC   PO441258  13.270   0.479   3.949 -0.2264  0.0693  0.0422
 3406POPC   GL141259  13.089   0.663   4.224  0.2597  0.1920 -0.3467
 3406POPC   GL241260  13.378   0.728   4.461  0.0577  0.2772 -0.0437
 3406POPC   C1A41261  12.871   0.696   4.667 -0.3033  0.4300 -0.1259
 3406POPC   D2A41262  12.816   0.692   5.118  0.3029  0.1477  0.1132
 3406POPC   C3A41263  12.732   0.334   5.411  0.2146 -0.0794  0.1004
 3406POPC   C4A41264  12.945   0.138   5.794  0.1258  0.2453  0.0270
 3406POPC   C1B41265  13.497   0.701   4.910 -0.5063  0.0671 -0.1159
 3406POPC   C2B41266  13.712   0.657   5.282  0.2068  0.3120 -0.0462
 3406POPC   C3B41267  13.997   0.480   5.605  0.1418 -0.0365  0.0683
 3406POPC   C4B41268  14.362   0.434   5.804 -0.1399  0.0474 -0.0176
 3407POPC   NC341269   1.121   2.875   3.641 -0.2839  0.4641 -0.1117
 3407POPC   PO441270   1.423   2.643   3.588 -0.1027  0.2098 -0.3042
 3407POPC   GL141271   1.411   2.330   3.820  0.4781 -0.2393 -0.0679
 3407POPC   GL241272   1.395   2.512   4.062 -0.2514  0.0952  0.2143
 3407POPC   C1A41273   1.228   1.945   4.045  0.1207 -0.1614  0.0093
 3407POPC   D2A41274   0.923   1.650   4.305 -0.0794  0.0491  0.1630
 3407POPC   C3A41275   0.808   1.691   4.763 -0.1088  0.0096  0.0334
 3407POPC   C4A41276   0.950   1.926   5.073 -0.3783  0.2329  0.0732
 3407POPC   C1B41277   1.351   2.351   4.454  0.1407 -0.1891  0.0681
 3407POPC   C2B41278   1.264   2.301   4.923 -0.2978  0.1498 -0.0499
 3407POPC   C3B41279   1.223   2.265   5.394  0.1971  0.0797 -0.4607
 3407POPC   C4B41280   1.330   1.869   5.595 -0.1614 -0.0933  0.2785
 3408POPC   NC341281   0.252   3.766   3.275  0.2661  0.1102  0.2697
 3408POPC   PO441282   0.410   3.931   3.580  0.0842  0.0050 -0.1062
 3408POPC   GL141283   0.393   3.860   3.978 -0.0004  0.0656  0.2348
 3408POPC   GL241284   0.110   3.940   4.131  0.1571 -0.1416 -0.0351
 3408POPC   C1A41285   0.556   3.997   4.364 -0.2398  0.5099  0.0137
 3408POPC   D2A41286   0.537   4.174   4.793 -0.5176 -0.0216 -0.1381
 3408POPC   C3A41287   0.710   4.040   5.228  0.0092  0.0353  0.2471
 3408POPC   C4A41288   0.696   3.859   5.672 -0.3427  0.1505  0.1691
 3408POPC   C1B41289   0.071   3.919   4.580  0.1909 -0.2819  0.0519
 3408POPC   C2B41290  -0.190   4.215   4.862 -0.2590  0.0305  0.3268
 3408POPC   C3B41291  -0.196   4.325   5.287 -0.1163  0.3548 -0.2090
 3408POPC   C4B41292  -0.349   4.439   5.713 -0.0289  0.1888  0.7064
 3409POPC   NC341293   2.975   4.688   3.873 -0.0372  0.1298 -0.1073
 3409POPC   PO441294   3.293   4.451   3.870 -0.0225 -0.2269  0.1370
 3409POPC   GL141295   3.327   4.211   4.224 -0.1330 -0.0686 -0.1367
 3409POPC   GL241296   3.105   4.033   4.065  0.2826  0.2446  0.0382
 3409POPC   C1A41297   3.235   4.211   4.675  0.3677 -0.0446 -0.2007
 3409POPC   D2A41298   3.093   4.395   5.071  0.2757  0.2978 -0.3397
 3409POPC   C3A41299   3.285   4.213   5.570 -0.0064 -0.0067  0.0621
 3409POPC   C4A41300   3.492   4.351   5.928 -0.3392  0.1808  0.0331
 3409POPC   C1B41301   2.848   3.785   4.343  0.1662 -0.1518  0.0653
 3409POPC   C2B41302   2.624   3.587   4.647  0.0835 -0.0056  0.2071
 3409POPC   C3B41303   2.423   3.196   4.805  0.1471 -0.0468  0.1645
 3409POPC   C4B41304   2.264   2.866   5.110 -0.2034 -0.0103 -0.0680
 3410POPC   NC341305  14.721  30.858   3.734 -0.1317 -0.4530 -0.1159
 3410POPC   PO441306  14.403  30.963   3.548  0.1437  0.1843  0.0560
 3410POPC   GL141307  14.210  30.930   3.851 -0.3403 -0.2197 -0.2739
 3410POPC   GL241308  14.087  30.724   3.924  0.0195  0.0351  0.1540
 3410POPC   C1A41309  14.148  31.138   4.252  0.0848 -0.2443  0.1241
 3410POPC   D2A41310  14.346  31.010   4.641  0.0963 -0.0679 -0.1292
 3410POPC   C3A41311  14.125  31.215   4.994  0.1015  0.2695  0.0259
 3410POPC   C4A41312  14.322  31.317   5.372  0.1307 -0.1885 -0.1533
 3410POPC   C1B41313  14.507  30.714   4.204 -0.0275 -0.3001 -0.0121
 3410POPC   C2B41314  14.774  30.492   4.552 -0.1224  0.1672 -0.2150
 3410POPC   C3B41315  14.928  30.520   5.018  0.1649 -0.3251  0.1052
 3410POPC   C4B41316  15.008  30.233   5.449  0.1095 -0.3110  0.1992
 3411POPC   NC341317  12.886  15.120   3.770 -0.0409 -0.0765 -0.0012
 3411POPC   PO441318  12.521  15.246   3.881  0.3087 -0.0801  0.1001
 3411POPC   GL141319  12.527  15.167   4.215  0.4057 -0.0757 -0.0545
 3411POPC   GL241320  12.673  15.394   4.313 -0.1122 -0.0485  0.1204
 3411POPC   C1A41321  12.375  15.239   4.665  0.0717 -0.2604  0.3546
 3411POPC   D2A41322  12.130  15.050   5.085  0.0450 -0.1859  0.1444
 3411POPC   C3A41323  12.369  15.284   5.411 -0.1135  0.0686  0.1496
 3411POPC   C4A41324  12.433  15.299   5.868  0.2410  0.3226  0.1198
 3411POPC   C1B41325  12.833  15.322   4.697  0.0599  0.1618 -0.1210
 3411POPC   C2B41326  12.556  15.554   4.988  0.2811  0.0117 -0.3777
 3411POPC   C3B41327  12.103  15.710   5.227  0.1333  0.2953  0.0567
 3411POPC   C4B41328  12.067  15.836   5.695  0.3064  0.0881 -0.0073
 3412POPC   NC341329   9.751  19.347   3.494 -0.3126 -0.1069 -0.1240
 3412POPC   PO441330  10.035  19.122   3.578  0.2470  0.1720 -0.0957
 3412POPC   GL141331  10.062  18.946   3.947  0.0358  0.0857 -0.2299
 3412POPC   GL241332   9.861  18.745   3.991 -0.3394  0.0437  0.1900
 3412POPC   C1A41333  10.113  18.775   4.408 -0.0379  0.0337 -0.2363
 3412POPC   D2A41334  10.173  18.672   4.829 -0.3302  0.1776  0.1033
 3412POPC   C3A41335  10.469  18.707   5.166 -0.2226 -0.1002 -0.0065
 3412POPC   C4A41336  10.976  18.748   5.220 -0.0914 -0.1078  0.0924
 3412POPC   C1B41337   9.649  18.593   4.326 -0.0913  0.2768 -0.0301
 3412POPC   C2B41338   9.732  18.604   4.806  0.4730  0.0173  0.2299
 3412POPC   C3B41339   9.755  18.773   5.214  0.0304  0.0929  0.1696
 3412POPC   C4B41340   9.699  19.057   5.596 -0.0670  0.2700 -0.3867
 3413POPC   NC341341   7.402   1.604   3.505 -0.0735 -0.1761 -0.2145
 3413POPC   PO441342   7.586   1.925   3.718 -0.0829  0.3530 -0.1322
 3413POPC   GL141343   7.966   2.025   3.885 -0.2295 -0.0460  0.0612
 3413POPC   GL241344   7.826   2.056   4.182 -0.6485 -0.0061  0.0660
 3413POPC   C1A41345   8.188   1.605   4.032  0.2245 -0.0181 -0.0539
 3413POPC   D2A41346   8.602   1.437   4.173 -0.2697 -0.2375  0.0826
 3413POPC   C3A41347   8.750   1.784   4.408  0.0094 -0.0118  0.4723
 3413POPC   C4A41348   8.744   2.242   4.509 -0.1931 -0.1294  0.0981
 3413POPC   C1B41349   7.874   1.659   4.407  0.0781 -0.0648  0.1995
 3413POPC   C2B41350   8.021   1.392   4.786  0.2595  0.0117  0.1591
 3413POPC   C3B41351   7.822   1.078   5.147 -0.2385  0.0187 -0.2429
 3413POPC   C4B41352   7.762   0.744   5.496  0.1326  0.1432 -0.0400
 3414POPC   NC341353   5.802  22.463   3.491  0.4961 -0.0887 -0.4540
 3414POPC   PO441354   5.680  22.821   3.641  0.1861  0.5129 -0.0449
 3414POPC   GL141355   5.739  23.004   3.976 -0.4170  0.1881 -0.0927
 3414POPC   GL241356   5.710  22.837   4.193  0.3913 -0.0431  0.1522
 3414POPC   C1A41357   5.435  23.332   4.108  0.5445 -0.0675  0.0427
 3414POPC   D2A41358   5.247  23.728   4.276 -0.1150 -0.1473  0.1183
 3414POPC   C3A41359   5.144  23.881   4.709  0.1808  0.2066 -0.1527
 3414POPC   C4A41360   5.145  24.215   5.036 -0.0346  0.1928 -0.2342
 3414POPC   C1B41361   5.674  23.168   4.556  0.0656  0.0753 -0.1174
 3414POPC   C2B41362   5.453  23.484   4.818  0.3694 -0.0952  0.1372
 3414POPC   C3B41363   5.259  23.699   5.223 -0.1001  0.3350  0.0369
 3414POPC   C4B41364   5.169  24.011   5.581  0.2195 -0.1026  0.1728
 3415POPS   CNO41365   8.942  22.054   3.210 -0.0501  0.0492  0.0620
 3415POPS   PO441366   8.657  22.244   3.195  0.0901 -0.0054 -0.1388
 3415POPS   GL141367   8.756  22.111   3.653  0.5590 -0.1865 -0.3398
 3415POPS   GL241368   8.538  21.888   3.805  0.0188 -0.2774  0.0280
 3415POPS   C1A41369   8.648  22.398   4.006 -0.1901 -0.0496 -0.1282
 3415POPS   D2A41370   8.377  22.755   3.992 -0.0704 -0.0601 -0.0494
 3415POPS   C3A41371   8.308  22.797   4.490  0.4441  0.3434 -0.0299
 3415POPS   C4A41372   8.365  22.654   4.921 -0.2014 -0.0730 -0.0414
 3415POPS   C1B41373   8.258  21.942   4.137 -0.0816 -0.2727 -0.0188
 3415POPS   C2B41374   8.286  22.027   4.603 -0.3929  0.1873 -0.2579
 3415POPS   C3B41375   8.032  21.991   4.985  0.1631 -0.1176 -0.0445
 3415POPS   C4B41376   7.613  22.066   5.081  0.3155 -0.1623  0.1786
 3416POPS   CNO41377   6.320   5.802   3.418  0.0273 -0.3628 -0.0073
 3416POPS   PO441378   6.258   5.867   3.770  0.2833 -0.0731 -0.1640
 3416POPS   GL141379   6.569   5.754   4.080 -0.0296  0.0600 -0.1060
 3416POPS   GL241380   6.721   5.465   4.097 -0.2454  0.0776  0.1127
 3416POPS   C1A41381   6.566   5.737   4.550 -0.4703 -0.1527 -0.3733
 3416POPS   D2A41382   6.397   5.661   4.945  0.1548  0.0155  0.1212
 3416POPS   C3A41383   6.656   5.876   5.254 -0.0196 -0.3276  0.1545
 3416POPS   C4A41384   7.066   5.818   5.476  0.0418  0.0172 -0.3020
 3416POPS   C1B41385   7.091   5.333   4.402 -0.0395 -0.0984  0.0848
 3416POPS   C2B41386   7.240   5.202   4.782  0.1645 -0.0215 -0.0823
 3416POPS   C3B41387   7.413   5.112   5.202 -0.5222 -0.0227 -0.1091
 3416POPS   C4B41388   7.434   4.950   5.591 -0.2236  0.2635 -0.5949
 3417POPS   CNO41389   9.965   7.694   3.233 -0.2357  0.0222 -0.0061
 3417POPS   PO441390   9.590   7.738   3.354 -0.1405 -0.1584  0.2179
 3417POPS   GL141391   9.592   7.741   3.752 -0.3326 -0.2501 -0.2544
 3417POPS   GL241392   9.452   7.999   3.847  0.0216  0.0633  0.0652
 3417POPS   C1A41393   9.693   7.366   4.058 -0.3892 -0.1652  0.2241
 3417POPS   D2A41394   9.689   7.528   4.468 -0.0468  0.1336  0.0408
 3417POPS   C3A41395   9.962   7.516   4.870  0.1249 -0.0622 -0.4737
 3417POPS   C4A41396  10.078   7.861   5.136 -0.2129 -0.1125  0.0756
 3417POPS   C1B41397   9.453   7.893   4.281  0.1104 -0.2314  0.0207
 3417POPS   C2B41398   9.476   7.835   4.758  0.2389  0.0597 -0.0902
 3417POPS   C3B41399   9.464   7.896   5.228 -0.1308 -0.3617  0.1149
 3417POPS   C4B41400   9.746   7.981   5.583  0.0838  0.0296 -0.0579
 3418POPS   CNO41401  10.653   1.313   4.226 -0.0365  0.0737  0.0877
 3418POPS   PO441402  10.378   1.448   3.965  0.2017 -0.1551 -0.1161
 3418POPS   GL141403  10.122   1.459   4.225  0.0627 -0.1369 -0.0803
 3418POPS   GL241404  10.065   1.732   4.309 -0.1776  0.3069  0.0442
 3418POPS   C1A41405   9.985   1.360   4.681  0.2001  0.1826 -0.0386
 3418POPS   D2A41406   9.819   1.560   5.004  0.0598  0.0751 -0.1603
 3418POPS   C3A41407   9.556   1.479   5.377 -0.3092  0.0546  0.2377
 3418POPS   C4A41408   9.164   1.273   5.520 -0.0932  0.3364  0.1613
 3418POPS   C1B41409  10.165   1.812   4.754  0.0627 -0.0682  0.0733
 3418POPS   C2B41410  10.558   1.882   4.979  0.4060 -0.1968  0.1283
 3418POPS   C3B41411  10.687   1.800   5.405 -0.1134 -0.1022  0.0275
 3418POPS   C4B41412  10.409   1.864   5.706  0.0468  0.0322 -0.0783
 3419POPS   CNO41413  15.690   4.487   3.521  0.3869 -0.0599  0.3276
 3419POPS   PO441414  15.958   4.375   3.696 -0.4191  0.1892 -0.0135
 3419POPS   GL141415  16.130   4.346   4.006 -0.2663  0.1818 -0.1072
 3419POPS   GL241416  16.348   4.590   3.986  0.0202  0.1281  0.0456
 3419POPS   C1A41417  16.025   4.398   4.446 -0.2385 -0.0884  0.0369
 3419POPS   D2A41418  16.064   4.524   4.879  0.2052 -0.0915 -0.0852
 3419POPS   C3A41419  16.093   4.105   5.113  0.1375  0.2132 -0.1414
 3419POPS   C4A41420  16.160   3.733   5.436  0.0341 -0.1910  0.0453
 3419POPS   C1B41421  16.471   4.657   4.431  0.3226  0.1976 -0.3547
 3419POPS   C2B41422  16.473   4.827   4.875 -0.0628 -0.1365 -0.6659
 3419POPS   C3B41423  16.191   5.000   5.240  0.0059 -0.2717 -0.2222
 3419POPS   C4B41424  15.871   4.822   5.496 -0.1613 -0.1570  0.1040
 3420POPS   CNO41425   6.446  17.656   3.026  0.2424  0.3893  0.1338
 3420POPS   PO441426   6.364  17.375   3.212 -0.1289  0.2132  0.0245
 3420POPS   GL141427   6.349  17.313   3.607 -0.0399  0.2508  0.3371
 3420POPS   GL241428   6.577  17.374   3.845  0.1123 -0.0250  0.0800
 3420POPS   C1A41429   6.073  17.466   3.918 -0.2224 -0.0462  0.1642
 3420POPS   D2A41430   6.128  17.177   4.319  0.2119  0.0106 -0.1201
 3420POPS   C3A41431   6.468  16.844   4.350  0.2668 -0.1224  0.2244
 3420POPS   C4A41432   6.716  16.580   4.032  0.1835 -0.1671  0.2207
 3420POPS   C1B41433   6.444  17.603   4.205  0.2584 -0.1504 -0.1129
 3420POPS   C2B41434   6.267  17.501   4.648  0.1231  0.1266 -0.0260
 3420POPS   C3B41435   6.023  17.226   4.942  0.0661  0.0863 -0.3029
 3420POPS   C4B41436   5.751  17.003   5.202 -0.1421  0.2271  0.4087
 3421POPS   CNO41437   1.159   9.007   3.836  0.0234  0.0561 -0.1184
 3421POPS   PO441438   1.288   9.316   3.826  0.0953  0.3256  0.2396
 3421POPS   GL141439   0.945   9.224   4.163  0.2240 -0.1464 -0.0388
 3421POPS   GL241440   1.141   9.116   4.313 -0.0304 -0.0520  0.0904
 3421POPS   C1A41441   0.753   9.317   4.571 -0.0281  0.4476  0.0094
 3421POPS   D2A41442   0.924   9.662   4.846  0.0224 -0.0523  0.1220
 3421POPS   C3A41443   1.136   9.488   5.222 -0.0649  0.0962 -0.2932
 3421POPS   C4A41444   1.329   9.273   5.576 -0.0892  0.0954  0.0361
 3421POPS   C1B41445   1.232   8.786   4.682  0.0422 -0.1496  0.0275
 3421POPS   C2B41446   1.309   8.499   5.044  0.2221  0.0391 -0.0721
 3421POPS   C3B41447   1.358   8.158   5.337  0.0829  0.1823  0.2818
 3421POPS   C4B41448   1.513   8.023   5.724  0.2145 -0.0750 -0.0561
 3422POPS   CNO41449   7.024   9.445   3.579 -0.2672  0.5473 -0.0555
 3422POPS   PO441450   7.318   9.655   3.652 -0.0496 -0.4061 -0.0510
 3422POPS   GL141451   7.543   9.725   3.882 -0.3159 -0.4267 -0.3450
 3422POPS   GL241452   7.818   9.643   3.820  0.3768  0.2475 -0.3855
 3422POPS   C1A41453   7.493   9.696   4.333  0.0541  0.4524 -0.0364
 3422POPS   D2A41454   7.694   9.865   4.721  0.0786  0.3881 -0.0024
 3422POPS   C3A41455   7.376  10.193   4.856 -0.4209 -0.0990  0.2384
 3422POPS   C4A41456   7.248  10.363   5.223  0.1098 -0.0205  0.0777
 3422POPS   C1B41457   7.923   9.876   4.232 -0.3218 -0.0968 -0.0693
 3422POPS   C2B41458   8.164  10.097   4.589 -0.0347  0.0238 -0.3507
 3422POPS   C3B41459   7.982  10.149   5.038 -0.1169  0.0542 -0.2951
 3422POPS   C4B41460   7.698  10.017   5.361  0.0418 -0.1117 -0.1171
 3423POPS   CNO41461   5.218  10.260   3.489 -0.2356  0.0653  0.3454
 3423POPS   PO441462   5.363  10.042   3.755  0.2174 -0.3498 -0.0860
 3423POPS   GL141463   5.368  10.056   4.104 -0.0080  0.0053 -0.2574
 3423POPS   GL241464   5.455   9.837   4.291 -0.0568 -0.2026 -0.0686
 3423POPS   C1A41465   5.098  10.185   4.479 -0.0024 -0.1098 -0.3275
 3423POPS   D2A41466   4.903  10.312   4.833  0.0251  0.2081  0.1683
 3423POPS   C3A41467   4.978  10.223   5.229 -0.0226 -0.0852 -0.0390
 3423POPS   C4A41468   5.088  10.157   5.645  0.0900 -0.2552  0.2133
 3423POPS   C1B41469   5.626  10.122   4.621  0.0954 -0.1758 -0.0955
 3423POPS   C2B41470   5.581  10.254   5.081  0.0565 -0.0718  0.0607
 3423POPS   C3B41471   5.883  10.295   5.478  0.1151  0.0874  0.0970
 3423POPS   C4B41472   5.979  10.673   5.743  0.2022 -0.0387  0.1372
 3424POPS   CNO41473  10.418  26.038   3.726  0.0936  0.0673 -0.0104
 3424POPS   PO441474  10.650  26.059   4.039 -0.1987  0.0025  0.3349
 3424POPS   GL141475  10.557  25.972   4.416  0.0002 -0.2203  0.2871
 3424POPS   GL241476  10.795  25.881   4.547 -0.3000 -0.1467  0.1125
 3424POPS   C1A41477  10.347  25.721   4.690 -0.1797  0.0389 -0.4583
 3424POPS   D2A41478  10.363  25.292   4.902  0.1889  0.0446  0.1008
 3424POPS   C3A41479  10.350  25.141   5.337 -0.0399  0.0242 -0.2135
 3424POPS   C4A41480  10.653  24.947   5.670  0.1471 -0.2879  0.0692
 3424POPS   C1B41481  11.245  25.897   4.704 -0.0003 -0.1434  0.2504
 3424POPS   C2B41482  11.639  26.002   4.923 -0.2193  0.2666  0.0008
 3424POPS   C3B41483  11.947  25.896   5.247  0.1878  0.0682 -0.1315
 3424POPS   C4B41484  12.314  26.099   5.268 -0.3139 -0.1791  0.0056
 3425POPS   CNO41485  13.274  16.060   3.373 -0.0315 -0.4146  0.1857
 3425POPS   PO441486  13.358  16.420   3.252 -0.0268 -0.3010 -0.2296
 3425POPS   GL141487  13.290  16.759   3.556  0.4251  0.0292  0.0630
 3425POPS   GL241488  13.118  17.065   3.640  0.1203 -0.0239  0.1466
 3425POPS   C1A41489  13.366  16.768   4.058  0.0174 -0.1386  0.1537
 3425POPS   D2A41490  13.398  16.618   4.441 -0.0615  0.0952 -0.1521
 3425POPS   C3A41491  13.504  16.766   4.868  0.0291 -0.2329 -0.2735
 3425POPS   C4A41492  13.676  16.941   5.264 -0.1148  0.4851 -0.0245
 3425POPS   C1B41493  12.998  17.093   4.123  0.2109  0.0420  0.0754
 3425POPS   C2B41494  13.102  17.020   4.587 -0.0541  0.0712  0.0399
 3425POPS   C3B41495  13.112  17.053   5.033 -0.1175  0.3281 -0.0162
 3425POPS   C4B41496  13.052  16.958   5.458  0.0060 -0.1564 -0.1987
 3426POPS   CNO41497   0.717   6.074   3.116  0.1046  0.0523 -0.2937
 3426POPS   PO441498   0.416   6.149   3.284 -0.3542  0.3213 -0.0903
 3426POPS   GL141499   0.513   6.090   3.660  0.1613 -0.1395  0.3403
 3426POPS   GL241500   0.476   6.371   3.825 -0.4697 -0.1852 -0.3730
 3426POPS   C1A41501   0.897   5.993   3.758 -0.2363 -0.1658  0.0620
 3426POPS   D2A41502   1.379   5.942   3.707 -0.0285  0.0462 -0.0942
 3426POPS   C3A41503   1.817   5.941   3.647  0.0453  0.0980 -0.0732
 3426POPS   C4A41504   2.299   5.940   3.611  0.0386 -0.1209  0.1638
 3426POPS   C1B41505   0.388   6.061   4.094  0.0724 -0.2189  0.1349
 3426POPS   C2B41506   0.587   5.676   4.186  0.1863  0.1256  0.0958
 3426POPS   C3B41507   0.880   5.527   4.510  0.0810  0.1516 -0.1866
 3426POPS   C4B41508   1.125   5.613   4.832  0.1611 -0.2170  0.3605
 3427POPS   CNO41509  15.497  22.430   3.432 -0.2248  0.0951  0.1730
 3427POPS   PO441510  15.481  22.087   3.536 -0.0526  0.3116 -0.0323
 3427POPS   GL141511  15.631  22.124   3.965 -0.1608  0.3579  0.1673
 3427POPS   GL241512  15.894  22.221   3.925  0.1777 -0.0127  0.3533
 3427POPS   C1A41513  15.588  21.808   4.366 -0.0954  0.1077  0.3215
 3427POPS   D2A41514  15.684  21.567   4.792 -0.2303  0.1440  0.1616
 3427POPS   C3A41515  15.524  21.677   5.247  0.0852  0.1925  0.0977
 3427POPS   C4A41516  15.336  21.682   5.660 -0.1829 -0.2641 -0.1448
 3427POPS   C1B41517  15.791  22.251   4.358  0.0504  0.1170  0.0572
 3427POPS   C2B41518  15.649  22.098   4.819 -0.1797 -0.2006  0.3102
 3427POPS   C3B41519  15.687  22.112   5.272 -0.0202  0.0517 -0.0542
 3427POPS   C4B41520  15.370  22.207   5.608 -0.0406  0.1453 -0.1903
 3428POPS   CNO41521  14.259   7.200   3.467 -0.1933  0.0380  0.1262
 3428POPS   PO441522  14.225   7.241   3.837 -0.2011 -0.3945 -0.0805
 3428POPS   GL141523  14.329   7.281   4.248  0.3481  0.5577  0.4529
 3428POPS   GL241524  14.614   7.108   4.257 -0.3224  0.0930 -0.1464
 3428POPS   C1A41525  14.467   7.300   4.710  0.3037 -0.1158  0.0824
 3428POPS   D2A41526  14.751   7.361   5.092  0.1505  0.0858  0.0453
 3428POPS   C3A41527  14.646   7.025   5.400 -0.1331  0.2010 -0.0125
 3428POPS   C4A41528  14.662   6.820   5.808 -0.1419  0.1050  0.1972
 3428POPS   C1B41529  14.430   6.846   4.590 -0.2420 -0.1155 -0.0131
 3428POPS   C2B41530  14.301   6.829   5.038  0.2724 -0.0613 -0.0142
 3428POPS   C3B41531  14.376   6.513   5.409 -0.2022 -0.0691  0.0219
 3428POPS   C4B41532  14.495   6.315   5.819  0.0124  0.0263  0.1279
 3429POPS   CNO41533  13.912  18.284   3.283 -0.0861  0.0218 -0.0714
 3429POPS   PO441534  13.689  17.995   3.194 -0.0481 -0.1639  0.2403
 3429POPS   GL141535  13.767  17.900   3.582  0.2607 -0.3018 -0.0885
 3429POPS   GL241536  13.986  17.811   3.696 -0.0730 -0.1853  0.2469
 3429POPS   C1A41537  13.517  17.931   4.006 -0.2658  0.0519  0.1187
 3429POPS   D2A41538  13.496  17.735   4.411 -0.1230  0.0561 -0.2771
 3429POPS   C3A41539  13.911  17.721   4.675 -0.0226 -0.1821  0.1249
 3429POPS   C4A41540  13.927  17.734   5.129  0.0861 -0.0106 -0.3380
 3429POPS   C1B41541  13.973  17.926   4.187  0.0312  0.0664  0.0453
 3429POPS   C2B41542  13.855  18.200   4.557  0.0788 -0.1564  0.0981
 3429POPS   C3B41543  13.650  18.197   4.972 -0.4563 -0.2396 -0.1235
 3429POPS   C4B41544  13.415  18.465   5.266  0.0851  0.2995  0.1220
 3430POPS   CNO41545  10.806  29.709   3.404  0.0590  0.0488  0.3466
 3430POPS   PO441546  10.817  29.650   3.793  0.0668  0.1041  0.1705
 3430POPS   GL141547  10.878  29.500   4.226 -0.1770  0.0518 -0.2955
 3430POPS   GL241548  10.880  29.280   4.481 -0.0749  0.1357 -0.0390
 3430POPS   C1A41549  10.746  29.824   4.564  0.0266 -0.3459 -0.1029
 3430POPS   D2A41550  10.728  29.971   5.013  0.0993 -0.1848  0.0625
 3430POPS   C3A41551  10.467  29.733   5.286 -0.1026 -0.0431 -0.1575
 3430POPS   C4A41552  10.117  29.856   5.599 -0.0170  0.1595  0.0003
 3430POPS   C1B41553  11.033  29.540   4.872  0.1063  0.1184 -0.1096
 3430POPS   C2B41554  11.312  29.432   5.211 -0.0351  0.0258 -0.4756
 3430POPS   C3B41555  11.536  29.561   5.630 -0.2077  0.0171  0.1961
 3430POPS   C4B41556  11.704  29.895   5.891 -0.1841  0.0906  0.0200
 3431POPS   CNO41557   9.882  27.742   3.763  0.2480  0.0103  0.2482
 3431POPS   PO441558   9.706  27.989   3.995  0.0877  0.3317  0.1307
 3431POPS   GL141559   9.590  27.790   4.255  0.6172  0.6539  0.4895
 3431POPS   GL241560   9.294  27.731   4.263  0.3791 -0.0869 -0.2161
 3431POPS   C1A41561   9.770  27.763   4.665 -0.0226 -0.1505  0.3526
 3431POPS   D2A41562   9.748  27.682   5.123 -0.0514  0.1111  0.3243
 3431POPS   C3A41563  10.043  27.385   5.331 -0.0916 -0.1506  0.0200
 3431POPS   C4A41564  10.204  26.930   5.501 -0.0392  0.0510  0.1940
 3431POPS   C1B41565   9.291  27.622   4.708 -0.0883 -0.0220  0.1625
 3431POPS   C2B41566   9.185  27.607   5.158 -0.1139  0.0232  0.3389
 3431POPS   C3B41567   9.477  27.610   5.577  0.1044 -0.0342  0.0253
 3431POPS   C4B41568   9.588  27.584   6.044  0.1365  0.0512 -0.1694
 3432POPS   CNO41569   3.243   9.330   3.670  0.2064 -0.0959 -0.1139
 3432POPS   PO441570   3.275   9.586   3.951  0.0244 -0.0073 -0.2025
 3432POPS   GL141571   3.122   9.818   4.233 -0.0427 -0.1078  0.0033
 3432POPS   GL241572   2.999  10.012   4.069  0.1978  0.1310 -0.0622
 3432POPS   C1A41573   3.171   9.908   4.679  0.1355  0.2068  0.0187
 3432POPS   D2A41574   3.005  10.257   4.906  0.1276 -0.0337  0.0650
 3432POPS   C3A41575   3.090  10.673   5.143 -0.0638  0.1251  0.1794
 3432POPS   C4A41576   3.165  11.124   5.197  0.0451  0.0166  0.0519
 3432POPS   C1B41577   2.717  10.148   4.353  0.0853 -0.1685  0.4172
 3432POPS   C2B41578   2.529  10.284   4.756  0.2037 -0.1308  0.3123
 3432POPS   C3B41579   2.602  10.462   5.185  0.1371 -0.0096  0.0772
 3432POPS   C4B41580   2.737  10.371   5.585 -0.0842  0.0257 -0.0492
 3433POPS   CNO41581   6.872  27.702   3.683 -0.1853  0.0880 -0.0547
 3433POPS   PO441582   6.990  27.360   3.771  0.3246 -0.0401 -0.2772
 3433POPS   GL141583   7.079  27.443   4.142 -0.3447  0.1002  0.2975
 3433POPS   GL241584   6.907  27.706   4.272 -0.1659  0.0171 -0.0278
 3433POPS   C1A41585   7.180  27.317   4.534 -0.1892 -0.1717 -0.3133
 3433POPS   D2A41586   7.478  27.496   4.849  0.0022  0.1911 -0.0733
 3433POPS   C3A41587   7.300  27.572   5.277  0.1855  0.2570  0.1214
 3433POPS   C4A41588   7.367  27.412   5.702 -0.2115 -0.1340 -0.1526
 3433POPS   C1B41589   6.766  27.753   4.716  0.2341  0.2477  0.0393
 3433POPS   C2B41590   6.955  27.493   4.989 -0.1734  0.0548  0.0633
 3433POPS   C3B41591   6.948  27.252   5.414 -0.0066 -0.2672 -0.1306
 3433POPS   C4B41592   7.067  26.828   5.490  0.0727  0.1954  0.0371
 3434POPS   CNO41593   5.305   1.838   3.040 -0.0515  0.1052  0.0999
 3434POPS   PO441594   5.396   1.679   3.371  0.0641  0.2525 -0.4888
 3434POPS   GL141595   5.219   1.554   3.724  0.1526 -0.0256 -0.3865
 3434POPS   GL241596   5.238   1.293   3.939 -0.0733  0.0677 -0.1556
 3434POPS   C1A41597   5.343   1.770   4.149  0.1691  0.2183  0.1825
 3434POPS   D2A41598   5.567   1.853   4.522 -0.1589  0.1860  0.0370
 3434POPS   C3A41599   5.668   1.651   4.957 -0.1641  0.1321  0.1664
 3434POPS   C4A41600   5.843   1.490   5.313  0.3623  0.3022 -0.1439
 3434POPS   C1B41601   5.181   1.391   4.413  0.0275 -0.0903  0.3858
 3434POPS   C2B41602   4.959   1.722   4.665 -0.2248  0.0428 -0.2463
 3434POPS   C3B41603   4.655   1.834   4.982 -0.0790  0.0309  0.0988
 3434POPS   C4B41604   4.656   1.463   5.262  0.0513 -0.0248  0.1225
 3435POPS   CNO41605  13.507   1.587   3.660 -0.2136 -0.1403 -0.1681
 3435POPS   PO441606  13.636   1.219   3.736  0.0234  0.0721 -0.1627
 3435POPS   GL141607  13.885   1.188   3.988 -0.1402 -0.2657 -0.5384
 3435POPS   GL241608  13.700   1.121   4.216  0.2697  0.0404  0.0113
 3435POPS   C1A41609  14.130   1.081   4.373  0.3163  0.1000  0.2408
 3435POPS   D2A41610  13.937   0.920   4.781 -0.0939 -0.3489  0.0408
 3435POPS   C3A41611  13.647   1.201   5.051 -0.2580 -0.0232  0.2571
 3435POPS   C4A41612  13.681   1.585   5.279  0.1015  0.0360  0.2615
 3435POPS   C1B41613  13.812   1.478   4.485 -0.3155 -0.2201 -0.0953
 3435POPS   C2B41614  13.972   1.653   4.905  0.1453  0.1024 -0.0866
 3435POPS   C3B41615  14.145   1.674   5.312  0.1933  0.0135 -0.1449
 3435POPS   C4B41616  14.234   1.849   5.727  0.0061 -0.0814 -0.3342
 3436POPS   CNO41617   1.346   0.448   3.428 -0.1667 -0.0623  0.3492
 3436POPS   PO441618   1.356   0.522   3.792 -0.1307 -0.2255 -0.3081
 3436POPS   GL141619   1.147   0.548   4.147 -0.1506  0.3076 -0.1322
 3436POPS   GL241620   0.965   0.293   4.270 -0.0619 -0.2416 -0.1482
 3436POPS   C1A41621   0.758   0.847   4.209  0.1452  0.1760  0.0563
 3436POPS   D2A41622   0.438   1.221   4.193 -0.0122 -0.0504  0.2804
 3436POPS   C3A41623   0.402   1.483   4.627  0.0733 -0.2096 -0.2271
 3436POPS   C4A41624   0.410   1.694   5.035 -0.3075 -0.0415  0.2154
 3436POPS   C1B41625   0.901   0.216   4.696  0.1494 -0.0652 -0.0725
 3436POPS   C2B41626   0.830   0.207   5.135  0.1564  0.1454 -0.3360
 3436POPS   C3B41627   1.004   0.163   5.598  0.1082 -0.2573 -0.2543
 3436POPS   C4B41628   1.435   0.144   5.777  0.2575  0.1149  0.0613
 3437POPS   CNO41629   0.235  25.131   3.496 -0.1763 -0.0412 -0.0818
 3437POPS   PO441630   0.274  25.159   3.886 -0.0525 -0.0621 -0.0592
 3437POPS   GL141631   0.454  25.265   4.229  0.1831 -0.0383  0.0159
 3437POPS   GL241632   0.714  25.390   4.304  0.3262  0.1951 -0.5070
 3437POPS   C1A41633   0.124  25.350   4.569  0.0180  0.2565  0.0389
 3437POPS   D2A41634  -0.026  25.156   4.939 -0.2202  0.0279 -0.0530
 3437POPS   C3A41635   0.108  25.145   5.407 -0.5216 -0.2459  0.0085
 3437POPS   C4A41636  -0.019  25.337   5.827 -0.2232 -0.2056 -0.0527
 3437POPS   C1B41637   0.852  25.148   4.689  0.0579  0.0769 -0.0342
 3437POPS   C2B41638   1.161  24.963   4.958  0.1150 -0.1794  0.0914
 3437POPS   C3B41639   1.520  24.745   5.227  0.2504 -0.0188  0.0872
 3437POPS   C4B41640   1.492  24.474   5.541 -0.2725 -0.1049 -0.1083
 3438POPS   CNO41641   5.210   1.173   3.392  0.1671 -0.1499 -0.1781
 3438POPS   PO441642   5.450   0.927   3.439  0.0891 -0.0267  0.1273
 3438POPS   GL141643   5.447   0.914   3.809 -0.1640 -0.1073  0.2949
 3438POPS   GL241644   5.524   0.609   3.864  0.3487 -0.2168 -0.1735
 3438POPS   C1A41645   5.243   0.854   4.224 -0.0870  0.0393  0.2231
 3438POPS   D2A41646   5.167   0.842   4.654  0.2750  0.2001 -0.1842
 3438POPS   C3A41647   5.448   0.631   4.918 -0.1119  0.1156  0.1672
 3438POPS   C4A41648   5.621   0.341   5.227  0.2816  0.1713  0.3788
 3438POPS   C1B41649   5.669   0.694   4.329  0.1601  0.2554 -0.0952
 3438POPS   C2B41650   5.869   0.796   4.731 -0.3358 -0.2055 -0.1084
 3438POPS   C3B41651   6.073   0.466   5.032 -0.0200 -0.0120 -0.0689
 3438POPS   C4B41652   6.484   0.594   5.072 -0.1119  0.0222 -0.0252
 3439POPS   CNO41653  15.360  14.589   3.331 -0.2899  0.3421  0.0178
 3439POPS   PO441654  15.009  14.654   3.434 -0.3370 -0.0811  0.2579
 3439POPS   GL141655  15.189  14.778   3.774  0.0226  0.0274  0.1406
 3439POPS   GL241656  15.368  14.498   3.826 -0.1976  0.1200  0.1167
 3439POPS   C1A41657  15.042  14.799   4.180 -0.2063  0.0258  0.1003
 3439POPS   D2A41658  14.629  14.803   4.364 -0.0090 -0.0393  0.0302
 3439POPS   C3A41659  14.239  14.903   4.600  0.4480 -0.2195 -0.0084
 3439POPS   C4A41660  14.238  14.926   5.074  0.3250  0.3242  0.0461
 3439POPS   C1B41661  15.502  14.643   4.219 -0.2011  0.2936 -0.1453
 3439POPS   C2B41662  15.457  14.636   4.682  0.3165  0.2763 -0.0023
 3439POPS   C3B41663  15.241  14.430   5.059  0.1523  0.2938  0.2115
 3439POPS   C4B41664  15.067  14.367   5.482 -0.1097  0.1899 -0.1242
 3440POPS   CNO41665   1.108  13.601   3.515  0.3087  0.2236 -0.2404
 3440POPS   PO441666   1.483  13.497   3.600  0.1266  0.0260 -0.0429
 3440POPS   GL141667   1.637  13.402   3.892 -0.0880 -0.0659  0.1135
 3440POPS   GL241668   1.945  13.313   3.874  0.0916  0.1737 -0.0621
 3440POPS   C1A41669   1.604  13.646   4.273  0.0893 -0.4691  0.2184
 3440POPS   D2A41670   1.413  13.635   4.673  0.0480  0.2509  0.0830
 3440POPS   C3A41671   1.016  13.892   4.817  0.2201 -0.2396  0.0588
 3440POPS   C4A41672   0.793  14.278   4.809 -0.0071  0.3360 -0.0333
 3440POPS   C1B41673   2.149  13.108   4.242  0.0422 -0.1433  0.0429
 3440POPS   C2B41674   2.349  13.117   4.661 -0.0232 -0.1913 -0.0028
 3440POPS   C3B41675   2.554  13.234   5.068  0.0145  0.1992  0.4065
 3440POPS   C4B41676   2.519  13.516   5.439 -0.1984 -0.0173  0.2483
 3441POPS   CNO41677   0.934  26.739   3.570  0.2217  0.1177  0.0295
 3441POPS   PO441678   0.616  26.576   3.708 -0.1370  0.0550 -0.2624
 3441POPS   GL141679   0.791  26.690   4.065 -0.1339  0.3473  0.2058
 3441POPS   GL241680   0.578  26.656   4.231  0.0716  0.3156  0.1351
 3441POPS   C1A41681   0.847  26.942   4.431  0.1522 -0.0132 -0.2082
 3441POPS   D2A41682   1.168  27.109   4.699  0.0869  0.0854 -0.0223
 3441POPS   C3A41683   1.530  27.213   4.389  0.1622  0.2797 -0.4184
 3441POPS   C4A41684   1.910  27.150   4.034 -0.0062 -0.1708  0.2343
 3441POPS   C1B41685   0.616  26.639   4.704  0.0950 -0.1528  0.1913
 3441POPS   C2B41686   0.313  26.662   5.041  0.3156  0.1517 -0.0393
 3441POPS   C3B41687   0.210  26.990   5.389  0.1178 -0.3192 -0.2074
 3441POPS   C4B41688   0.074  27.464   5.528 -0.2622 -0.1607 -0.1258
 3442POPS   CNO41689   6.519  22.707   3.276  0.2015  0.3060 -0.2376
 3442POPS   PO441690   6.257  22.531   3.481 -0.1478  0.0302  0.0545
 3442POPS   GL141691   6.199  22.698   3.784  0.1019  0.0328 -0.0151
 3442POPS   GL241692   6.266  22.962   3.920  0.2715 -0.0550  0.0699
 3442POPS   C1A41693   6.133  22.586   4.225  0.3399 -0.2067 -0.0178
 3442POPS   D2A41694   5.913  22.663   4.615 -0.1866 -0.0109 -0.0544
 3442POPS   C3A41695   5.722  22.550   5.022  0.1431  0.1710  0.0659
 3442POPS   C4A41696   5.369  22.470   5.284  0.3142 -0.1661  0.1584
 3442POPS   C1B41697   6.164  23.031   4.399  0.5204  0.2048  0.2595
 3442POPS   C2B41698   6.058  23.079   4.852  0.0041  0.0874 -0.2260
 3442POPS   C3B41699   6.243  22.927   5.292 -0.1873 -0.1831 -0.0930
 3442POPS   C4B41700   6.548  22.895   5.577 -0.0115 -0.1213 -0.1160
 3443POPS   CNO41701   6.140   1.917   3.515 -0.2731  0.2443 -0.0127
 3443POPS   PO441702   6.164   2.088   3.798  0.0682  0.1071 -0.0504
 3443POPS   GL141703   6.026   2.100   4.235 -0.2419 -0.2730 -0.0938
 3443POPS   GL241704   5.919   1.884   4.172  0.0806 -0.3485  0.2579
 3443POPS   C1A41705   6.060   2.070   4.705  0.1142 -0.2221 -0.0446
 3443POPS   D2A41706   5.857   2.129   5.092  0.2829  0.0867 -0.1331
 3443POPS   C3A41707   5.482   2.015   5.341  0.0111  0.2458  0.1032
 3443POPS   C4A41708   5.206   2.048   5.747 -0.2220 -0.0045 -0.1683
 3443POPS   C1B41709   5.992   1.593   4.485  0.0921 -0.0386  0.1006
 3443POPS   C2B41710   6.013   1.299   4.826 -0.2609 -0.2547 -0.0620
 3443POPS   C3B41711   6.160   1.011   5.153 -0.4027  0.0015  0.2974
 3443POPS   C4B41712   6.361   0.835   5.534 -0.3497  0.0852  0.0921
 3444POPS   CNO41713   4.547  25.596   3.492 -0.1204 -0.1828 -0.0727
 3444POPS   PO441714   4.454  25.678   3.853 -0.1940  0.3170 -0.0458
 3444POPS   GL141715   4.178  25.773   4.164 -0.0424  0.3520 -0.3646
 3444POPS   GL241716   4.192  25.478   4.372 -0.0431 -0.5255  0.0430
 3444POPS   C1A41717   4.071  26.089   4.469 -0.0557 -0.1355  0.0416
 3444POPS   D2A41718   4.109  26.490   4.715 -0.0417  0.0669 -0.0541
 3444POPS   C3A41719   4.410  26.422   5.045 -0.3389  0.1488  0.0229
 3444POPS   C4A41720   4.575  26.341   5.471 -0.2649 -0.1442 -0.1999
 3444POPS   C1B41721   4.149  25.160   4.738  0.2956  0.0733 -0.0555
 3444POPS   C2B41722   3.797  24.827   4.843 -0.1069 -0.3285  0.1572
 3444POPS   C3B41723   3.448  24.698   5.108 -0.3327  0.1308 -0.0639
 3444POPS   C4B41724   3.101  24.582   5.360 -0.0676  0.0142 -0.0391
 3445POPS   CNO41725   7.303  30.906   2.960 -0.2761  0.1091  0.0160
 3445POPS   PO441726   7.461  31.066   3.267  0.0268  0.2759  0.1241
 3445POPS   GL141727   7.577  30.891   3.610  0.3836 -0.0323  0.0717
 3445POPS   GL241728   7.652  31.112   3.793  0.0607  0.1763  0.0570
 3445POPS   C1A41729   7.246  30.822   3.930  0.0152  0.1600  0.0899
 3445POPS   D2A41730   6.886  30.829   4.169 -0.0728 -0.4275  0.1569
 3445POPS   C3A41731   6.655  30.982   4.519  0.1285 -0.1712  0.1124
 3445POPS   C4A41732   6.504  31.041   4.924  0.0115  0.3114 -0.0243
 3445POPS   C1B41733   7.354  31.213   4.204  0.0217  0.1027 -0.0535
 3445POPS   C2B41734   7.116  31.392   4.626 -0.1879 -0.2659  0.0199
 3445POPS   C3B41735   7.037  31.817   4.457  0.0048  0.1644  0.2064
 3445POPS   C4B41736   6.782  32.034   4.823 -0.1833  0.0621 -0.1584
 3446POPS   CNO41737  14.148  23.705   3.176  0.2939 -0.2244  0.2731
 3446POPS   PO441738  14.359  23.692   3.518  0.1760  0.2007 -0.0223
 3446POPS   GL141739  14.600  23.539   3.864  0.2656 -0.2118  0.2039
 3446POPS   GL241740  14.499  23.381   4.114 -0.2660  0.1647 -0.1811
 3446POPS   C1A41741  14.986  23.335   3.989  0.1243  0.2684 -0.1343
 3446POPS   D2A41742  15.410  23.287   4.072  0.1589  0.1637 -0.1139
 3446POPS   C3A41743  15.559  23.087   4.448  0.1500  0.2324 -0.2228
 3446POPS   C4A41744  15.746  23.036   4.852  0.2700  0.4233  0.0198
 3446POPS   C1B41745  14.501  23.185   4.548  0.1033 -0.4812 -0.0170
 3446POPS   C2B41746  14.504  23.131   5.000 -0.0008 -0.0320 -0.2994
 3446POPS   C3B41747  14.401  23.301   5.391 -0.1075  0.0005  0.1145
 3446POPS   C4B41748  14.344  23.135   5.839  0.1350  0.1415 -0.1054
 3447POPS   CNO41749  11.107  13.927   3.648 -0.3101  0.1911 -0.2697
 3447POPS   PO441750  10.714  13.894   3.577 -0.4842  0.1586 -0.2574
 3447POPS   GL141751  10.626  13.797   3.902  0.0576  0.1191 -0.1535
 3447POPS   GL241752  10.809  13.929   4.073  0.0136  0.1053 -0.2143
 3447POPS   C1A41753  10.465  13.702   4.330  0.3246  0.1987 -0.1506
 3447POPS   D2A41754  10.380  13.797   4.779 -0.0106  0.2073  0.0916
 3447POPS   C3A41755  10.718  13.946   4.953 -0.1209 -0.0511 -0.0549
 3447POPS   C4A41756  11.124  14.061   5.041 -0.1304  0.2273 -0.1182
 3447POPS   C1B41757  10.941  13.875   4.467  0.1552  0.2961 -0.0408
 3447POPS   C2B41758  11.223  13.659   4.707 -0.1830  0.3104  0.0183
 3447POPS   C3B41759  11.210  13.536   5.166  0.0458  0.0643  0.0553
 3447POPS   C4B41760  11.059  13.459   5.594  0.1379 -0.2225 -0.2433
 3448POPS   CNO41761   8.580  18.196   3.051  0.2886 -0.3066  0.2132
 3448POPS   PO441762   8.735  18.338   3.398  0.1746  0.1214  0.0984
 3448POPS   GL141763   8.717  18.556   3.828 -0.0902 -0.0188 -0.2755
 3448POPS   GL241764   8.937  18.491   3.965 -0.0199 -0.0642  0.1058
 3448POPS   C1A41765   8.462  18.914   4.070 -0.2192  0.3078  0.0753
 3448POPS   D2A41766   8.485  19.255   4.346  0.1513  0.0470 -0.0057
 3448POPS   C3A41767   8.621  19.415   4.743  0.0980  0.0863  0.2654
 3448POPS   C4A41768   8.618  19.781   5.025  0.0520  0.4330 -0.2178
 3448POPS   C1B41769   9.175  18.467   4.372  0.1416  0.0318  0.0287
 3448POPS   C2B41770   9.249  18.472   4.832 -0.1008 -0.1119  0.1183
 3448POPS   C3B41771   9.225  18.746   5.221 -0.2176 -0.0559 -0.1541
 3448POPS   C4B41772   9.196  19.009   5.623 -0.0553 -0.0094 -0.0267
 3449POPS   CNO41773  10.407  11.673   3.214 -0.1288 -0.0705  0.0005
 3449POPS   PO441774  10.675  11.771   3.486  0.2441 -0.2620  0.1121
 3449POPS   GL141775  10.523  11.736   3.851  0.1319 -0.3063 -0.1632
 3449POPS   GL241776  10.663  11.896   4.115  0.0303 -0.0645  0.0412
 3449POPS   C1A41777  10.139  11.885   4.088  0.2232  0.1316  0.1416
 3449POPS   D2A41778   9.878  12.045   4.335 -0.0010  0.0093 -0.1757
 3449POPS   C3A41779   9.487  12.247   4.619 -0.4512 -0.0148 -0.3492
 3449POPS   C4A41780   9.196  12.302   5.004  0.2721  0.3590  0.2034
 3449POPS   C1B41781  10.387  12.093   4.466 -0.2054 -0.0395  0.0934
 3449POPS   C2B41782  10.019  12.238   4.729 -0.0062 -0.2021  0.1682
 3449POPS   C3B41783   9.864  12.057   5.113  0.0127  0.1128  0.0211
 3449POPS   C4B41784   9.896  11.858   5.515  0.3611  0.0811  0.3015
 3450POPS   CNO41785  13.460   3.668   3.865 -0.0192 -0.2223 -0.1476
 3450POPS   PO441786  13.393   4.024   3.755 -0.0479 -0.3511  0.3648
 3450POPS   GL141787  13.266   4.055   4.097 -0.0538  0.1625 -0.2304
 3450POPS   GL241788  13.194   4.381   4.097 -0.1052  0.3062  0.2364
 3450POPS   C1A41789  13.102   4.070   4.531  0.2049  0.1733 -0.0284
 3450POPS   D2A41790  13.021   3.825   4.976 -0.3351 -0.1511 -0.2444
 3450POPS   C3A41791  13.187   3.798   5.451 -0.0064 -0.2121 -0.1436
 3450POPS   C4A41792  13.028   3.639   5.938  0.0629 -0.1156  0.1842
 3450POPS   C1B41793  12.910   4.588   4.331  0.2351 -0.0182  0.1055
 3450POPS   C2B41794  12.747   4.871   4.687 -0.1617  0.2169  0.0493
 3450POPS   C3B41795  12.716   5.064   5.101 -0.0861  0.0762 -0.0483
 3450POPS   C4B41796  12.662   5.130   5.513 -0.0242  0.0752 -0.0266
 3451POPS   CNO41797   0.444   8.599   3.907 -0.1598  0.1179 -0.0720
 3451POPS   PO441798   0.653   8.891   4.040 -0.2410 -0.0872  0.4522
 3451POPS   GL141799   0.733   8.874   4.357  0.3591 -0.0117 -0.2752
 3451POPS   GL241800   0.756   8.602   4.485  0.0108  0.0692  0.2275
 3451POPS   C1A41801   0.501   8.919   4.772 -0.2195 -0.0393  0.2716
 3451POPS   D2A41802   0.366   8.851   5.206  0.0829 -0.0588  0.1564
 3451POPS   C3A41803   0.121   9.207   5.295 -0.1293 -0.0033 -0.0830
 3451POPS   C4A41804   0.191   9.357   5.737 -0.1029  0.0440  0.2776
 3451POPS   C1B41805   0.890   8.300   4.766 -0.2301 -0.0779  0.1098
 3451POPS   C2B41806   0.736   7.945   4.996 -0.2313  0.0744 -0.3457
 3451POPS   C3B41807   0.768   7.649   5.395 -0.1133 -0.0787 -0.1406
 3451POPS   C4B41808   0.985   7.837   5.757 -0.1464 -0.0139  0.2289
 3452POPS   CNO41809   7.955  20.007   3.803 -0.1110  0.1254  0.4261
 3452POPS   PO441810   8.124  19.842   4.082 -0.0568  0.0020  0.3010
 3452POPS   GL141811   8.010  19.458   4.305 -0.4421 -0.0979  0.2184
 3452POPS   GL241812   7.848  19.643   4.431  0.0994  0.0568 -0.2057
 3452POPS   C1A41813   8.166  19.331   4.747  0.2353  0.1108  0.1016
 3452POPS   D2A41814   8.178  19.383   5.169 -0.0349  0.0716  0.0255
 3452POPS   C3A41815   8.326  19.742   5.488  0.1044 -0.0978  0.0697
 3452POPS   C4A41816   8.420  19.769   5.914  0.0977  0.0673  0.0227
 3452POPS   C1B41817   7.732  19.588   4.914  0.4222  0.1444 -0.1701
 3452POPS   C2B41818   7.839  19.601   5.388 -0.0027 -0.0051 -0.1500
 3452POPS   C3B41819   7.870  19.663   5.831  0.0585 -0.1715 -0.3543
 3452POPS   C4B41820   7.763  19.737   6.249  0.1125 -0.2089 -0.1118
 3453POPS   CNO41821   3.899   2.554   3.357  0.0994  0.0541  0.0398
 3453POPS   PO441822   4.181   2.554   3.619 -0.0858  0.0262 -0.0720
 3453POPS   GL141823   4.135   2.618   3.969 -0.2117 -0.1717  0.2167
 3453POPS   GL241824   4.318   2.317   4.054  0.1161  0.0128  0.0459
 3453POPS   C1A41825   3.959   2.669   4.386 -0.0525 -0.2882 -0.3406
 3453POPS   D2A41826   4.105   2.580   4.823  0.0493  0.1879  0.2597
 3453POPS   C3A41827   4.281   2.875   5.127  0.1015  0.0026 -0.3893
 3453POPS   C4A41828   4.245   3.074   5.558 -0.1199  0.1575  0.4756
 3453POPS   C1B41829   4.613   2.470   4.365 -0.1159  0.0689 -0.1081
 3453POPS   C2B41830   4.706   2.397   4.792  0.1501  0.0916 -0.1790
 3453POPS   C3B41831   4.377   2.332   5.129 -0.1800  0.1830  0.1023
 3453POPS   C4B41832   4.116   2.532   5.436 -0.1253  0.2503 -0.0523
 3454POPS   CNO41833  15.440  27.689   3.325 -0.0987  0.3999 -0.1446
 3454POPS   PO441834  15.737  27.788   3.483  0.3440 -0.1915  0.1687
 3454POPS   GL141835  15.827  27.986   3.771 -0.0057  0.1345 -0.0528
 3454POPS   GL241836  15.944  27.823   3.958  0.1479  0.0332  0.1839
 3454POPS   C1A41837  15.595  28.190   4.048  0.0550 -0.0184  0.2879
 3454POPS   D2A41838  15.553  28.323   4.478 -0.0165 -0.3348  0.0050
 3454POPS   C3A41839  15.123  28.272   4.620 -0.1105 -0.0541 -0.2534
 3454POPS   C4A41840  14.776  28.084   4.485  0.1038 -0.3268 -0.0559
 3454POPS   C1B41841  15.805  27.920   4.386  0.2091 -0.0132 -0.0296
 3454POPS   C2B41842  15.473  27.784   4.692  0.2087  0.0519 -0.3712
 3454POPS   C3B41843  15.056  27.851   4.866  0.1284 -0.4068 -0.0370
 3454POPS   C4B41844  14.789  28.166   4.987  0.2526  0.0808 -0.0264
 3455POPS   CNO41845   2.350  16.625   3.700  0.1586 -0.0973 -0.0003
 3455POPS   PO441846   2.521  16.284   3.804  0.2391 -0.1639  0.1082
 3455POPS   GL141847   2.706  15.981   4.102 -0.0024  0.3230  0.1398
 3455POPS   GL241848   2.473  15.839   4.115  0.1596  0.3898  0.1836
 3455POPS   C1A41849   2.627  15.933   4.596  0.1746 -0.3621  0.0636
 3455POPS   D2A41850   2.671  16.016   5.065 -0.1050  0.0046  0.1742
 3455POPS   C3A41851   2.415  16.218   5.329  0.0939  0.2147 -0.0060
 3455POPS   C4A41852   2.131  16.268   5.710  0.1568 -0.1227  0.1656
 3455POPS   C1B41853   2.471  15.472   4.409 -0.1494  0.0411 -0.0933
 3455POPS   C2B41854   2.315  15.502   4.848  0.0311  0.1627 -0.1744
 3455POPS   C3B41855   2.025  15.672   5.231  0.1162 -0.2263 -0.2183
 3455POPS   C4B41856   1.671  15.899   5.394 -0.2033  0.0663 -0.1384
 3456POPS   CNO41857   9.346  15.255   3.475  0.0920 -0.0019  0.0726
 3456POPS   PO441858   9.279  15.352   3.837  0.0103 -0.0865  0.1148
 3456POPS   GL141859   9.275  15.594   4.178  0.0228  0.0820  0.1696
 3456POPS   GL241860   9.352  15.367   4.337  0.0905  0.0228  0.2873
 3456POPS   C1A41861   9.106  15.657   4.615  0.2291  0.0251  0.2027
 3456POPS   D2A41862   8.953  15.647   5.060  0.0603 -0.4568 -0.0436
 3456POPS   C3A41863   8.536  15.601   5.133  0.1211  0.1002  0.1472
 3456POPS   C4A41864   8.405  15.351   5.527 -0.0690 -0.5168  0.0989
 3456POPS   C1B41865   9.489  15.354   4.774  0.0545 -0.0591 -0.3198
 3456POPS   C2B41866   9.483  15.626   5.139 -0.4261 -0.2133 -0.3323
 3456POPS   C3B41867   9.310  16.026   5.297 -0.0295  0.0889  0.3459
 3456POPS   C4B41868   9.160  16.278   5.645 -0.0076 -0.1797  0.1835
 3457POPS   CNO41869   9.533  26.330   3.732 -0.0151 -0.0146 -0.2081
 3457POPS   PO441870   9.151  26.371   3.600  0.1361  0.2691 -0.4591
 3457POPS   GL141871   9.173  26.393   4.013  0.0525  0.0764  0.0262
 3457POPS   GL241872   8.944  26.581   4.084  0.2497 -0.0352  0.0709
 3457POPS   C1A41873   9.154  26.043   4.322 -0.0749  0.0659  0.1909
 3457POPS   D2A41874   9.289  25.933   4.727  0.1165  0.0220 -0.0306
 3457POPS   C3A41875   9.149  26.221   5.079 -0.0981 -0.1719 -0.0322
 3457POPS   C4A41876   9.330  26.316   5.511 -0.2039 -0.0093 -0.1075
 3457POPS   C1B41877   8.938  26.553   4.515 -0.0093  0.1336  0.2214
 3457POPS   C2B41878   8.807  26.631   4.933  0.1650 -0.0314  0.2724
 3457POPS   C3B41879   8.771  26.593   5.377 -0.1495 -0.3379  0.3704
 3457POPS   C4B41880   8.503  26.729   5.706  0.1837 -0.0330  0.3110
 3458POPS   CNO41881  11.808  31.317   3.354  0.0800 -0.1036 -0.0902
 3458POPS   PO441882  12.130  31.374   3.565 -0.0680 -0.0543  0.3506
 3458POPS   GL141883  12.046  31.328   4.012  0.2619  0.0809 -0.1101
 3458POPS   GL241884  11.920  31.105   4.090 -0.4186 -0.4915  0.4320
 3458POPS   C1A41885  12.325  31.385   4.364 -0.2172  0.2157 -0.2485
 3458POPS   D2A41886  12.305  31.244   4.833 -0.1296  0.1154  0.0436
 3458POPS   C3A41887  12.420  31.409   5.223 -0.1098  0.1693 -0.0094
 3458POPS   C4A41888  12.618  31.458   5.657 -0.1089  0.2461 -0.2260
 3458POPS   C1B41889  12.071  30.920   4.410 -0.0675 -0.0225 -0.4700
 3458POPS   C2B41890  12.051  30.739   4.843  0.2840  0.1172  0.0408
 3458POPS   C3B41891  12.191  30.852   5.282  0.3131  0.0655  0.0565
 3458POPS   C4B41892  12.214  30.766   5.719 -0.0365 -0.0572  0.0606
 3459POPS   CNO41893   4.522  21.639   3.678 -0.0106  0.1349  0.0167
 3459POPS   PO441894   4.444  21.628   4.060 -0.2417  0.0103 -0.2091
 3459POPS   GL141895   4.234  21.653   4.482 -0.1548  0.1347  0.2170
 3459POPS   GL241896   4.518  21.556   4.580  0.0745 -0.0745 -0.1623
 3459POPS   C1A41897   3.810  21.550   4.603 -0.2052 -0.0920  0.1306
 3459POPS   D2A41898   3.444  21.797   4.412 -0.0732 -0.2756 -0.1608
 3459POPS   C3A41899   3.447  22.087   4.796  0.0606 -0.2352 -0.1630
 3459POPS   C4A41900   3.717  22.328   5.075 -0.2307 -0.1545 -0.0393
 3459POPS   C1B41901   4.667  21.497   5.031 -0.2176 -0.2642 -0.1659
 3459POPS   C2B41902   4.837  21.601   5.425 -0.1115  0.0941 -0.2545
 3459POPS   C3B41903   4.684  21.905   5.756  0.2479  0.2604  0.0618
 3459POPS   C4B41904   4.462  22.271   5.714  0.1251  0.0229  0.0835
 3460POPS   CNO41905   4.746  20.206   3.436  0.0434 -0.2034  0.1602
 3460POPS   PO441906   4.925  20.475   3.645 -0.1594 -0.0097  0.1945
 3460POPS   GL141907   4.874  20.325   4.104 -0.0963 -0.0770 -0.3687
 3460POPS   GL241908   4.781  20.082   4.079  0.0375  0.0074  0.0088
 3460POPS   C1A41909   5.243  20.292   4.385  0.0068  0.1416 -0.2481
 3460POPS   D2A41910   5.638  20.125   4.573  0.1000  0.0374  0.0234
 3460POPS   C3A41911   5.584  19.955   5.036 -0.0310 -0.0036 -0.3471
 3460POPS   C4A41912   5.570  19.794   5.445 -0.0166 -0.1596 -0.0792
 3460POPS   C1B41913   4.810  20.232   4.576 -0.1050 -0.2303  0.2284
 3460POPS   C2B41914   4.993  20.056   4.901 -0.2228 -0.3004 -0.0425
 3460POPS   C3B41915   5.028  19.954   5.338 -0.3015 -0.2331 -0.2940
 3460POPS   C4B41916   4.793  20.194   5.667 -0.1907  0.1121 -0.2509
 3461POPS   CNO41917  13.038   8.125   3.360  0.0414  0.0488  0.0823
 3461POPS   PO441918  13.127   8.292   3.673  0.0979 -0.2669 -0.0249
 3461POPS   GL141919  13.057   8.185   4.056 -0.0314 -0.0685  0.1560
 3461POPS   GL241920  13.157   8.433   4.165  0.1171 -0.2319 -0.0267
 3461POPS   C1A41921  13.007   8.074   4.549 -0.1980 -0.0850  0.0474
 3461POPS   D2A41922  12.990   8.292   4.950 -0.1971 -0.0582 -0.0108
 3461POPS   C3A41923  12.580   8.424   4.961  0.2253  0.1944  0.3785
 3461POPS   C4A41924  12.285   8.716   4.876 -0.0855  0.0332  0.1394
 3461POPS   C1B41925  13.312   8.591   4.600 -0.1399  0.2537  0.0158
 3461POPS   C2B41926  13.428   8.868   4.941 -0.2334 -0.0283 -0.1890
 3461POPS   C3B41927  13.677   9.011   5.272 -0.1437 -0.2915 -0.0521
 3461POPS   C4B41928  14.164   9.108   5.375  0.2013 -0.0496 -0.0342
 3462POPS   CNO41929  12.255  26.841   3.402 -0.1972  0.0076  0.0370
 3462POPS   PO441930  12.512  26.776   3.166 -0.0602  0.2170  0.2542
 3462POPS   GL141931  12.855  26.906   3.415 -0.2173 -0.0009  0.2297
 3462POPS   GL241932  12.807  26.803   3.618  0.1413 -0.0381  0.0320
 3462POPS   C1A41933  13.015  27.265   3.631 -0.1206 -0.0051 -0.1510
 3462POPS   D2A41934  13.152  27.392   4.078 -0.2892 -0.0870 -0.0130
 3462POPS   C3A41935  13.325  27.378   4.467  0.1192 -0.2022 -0.2313
 3462POPS   C4A41936  13.556  27.507   4.823  0.0790 -0.1387  0.2168
 3462POPS   C1B41937  13.094  26.931   4.017 -0.1406  0.0714 -0.3292
 3462POPS   C2B41938  13.412  26.889   4.401  0.2416  0.0601 -0.0003
 3462POPS   C3B41939  13.619  26.952   4.821 -0.1191 -0.2179 -0.0257
 3462POPS   C4B41940  13.576  27.167   5.233 -0.1539  0.3933 -0.0461
 3463POPS   CNO41941   4.186  25.568   3.109 -0.0332 -0.0153 -0.0317
 3463POPS   PO441942   4.075  25.401   3.427 -0.0864  0.0093 -0.3342
 3463POPS   GL141943   3.897  25.229   3.667  0.1341 -0.1401 -0.0373
 3463POPS   GL241944   3.912  25.444   3.908 -0.1622 -0.0684  0.3921
 3463POPS   C1A41945   3.433  25.320   3.939  0.3387  0.2055  0.0798
 3463POPS   D2A41946   3.009  25.155   4.001 -0.3480 -0.0807 -0.2240
 3463POPS   C3A41947   2.813  24.724   4.133 -0.1545 -0.0144 -0.0079
 3463POPS   C4A41948   2.699  24.225   4.088  0.3063 -0.3297 -0.1327
 3463POPS   C1B41949   3.728  25.266   4.342  0.1689 -0.0051  0.0466
 3463POPS   C2B41950   3.580  25.277   4.745 -0.3592 -0.0864 -0.1453
 3463POPS   C3B41951   3.599  25.606   5.043 -0.2151  0.0742  0.1017
 3463POPS   C4B41952   3.629  25.689   5.494 -0.2903  0.2284  0.2529
 3464POPS   CNO41953  15.716  26.270   3.367 -0.2615  0.1661 -0.1091
 3464POPS   PO441954  15.990  26.204   3.574 -0.3103  0.1214 -0.3476
 3464POPS   GL141955  15.907  26.317   3.929 -0.0376  0.1092  0.3310
 3464POPS   GL241956  16.092  26.152   4.197 -0.1022 -0.0170  0.6407
 3464POPS   C1A41957  15.949  26.612   4.271  0.1082 -0.0476 -0.1482
 3464POPS   D2A41958  16.063  26.916   4.587 -0.2145  0.0137 -0.1366
 3464POPS   C3A41959  15.825  27.071   4.956 -0.2742 -0.0043  0.0334
 3464POPS   C4A41960  15.610  26.986   5.363  0.2079 -0.0078 -0.1118
 3464POPS   C1B41961  16.083  26.286   4.673 -0.0237  0.1982  0.1725
 3464POPS   C2B41962  16.022  26.167   5.118 -0.2494 -0.1106 -0.0265
 3464POPS   C3B41963  15.955  26.082   5.534 -0.3224 -0.0570 -0.0049
 3464POPS   C4B41964  16.229  25.773   5.788 -0.1259 -0.0566  0.1320
 3465POPS   CNO41965   9.001  27.305   3.647 -0.3428 -0.1834 -0.2555
 3465POPS   PO441966   8.940  27.523   3.916  0.1414  0.0587  0.3401
 3465POPS   GL141967   8.908  27.401   4.262 -0.2458  0.2682  0.2203
 3465POPS   GL241968   9.090  27.116   4.216  0.3034  0.0131 -0.0981
 3465POPS   C1A41969   8.831  27.523   4.739  0.1295  0.4593  0.1114
 3465POPS   D2A41970   8.729  27.481   5.176 -0.0391 -0.1654 -0.3777
 3465POPS   C3A41971   9.018  27.366   5.555 -0.1301 -0.0005  0.0294
 3465POPS   C4A41972   9.155  27.306   6.005  0.1382  0.1337  0.0236
 3465POPS   C1B41973   9.124  27.066   4.658 -0.1836  0.1304 -0.1055
 3465POPS   C2B41974   9.041  27.070   5.099  0.0497  0.2887  0.0147
 3465POPS   C3B41975   8.692  27.090   5.381  0.0183  0.2112  0.3318
 3465POPS   C4B41976   8.458  27.251   5.771  0.0434  0.1885  0.1044
 3466POPS   CNO41977   0.244  20.582   3.664 -0.2469  0.0144 -0.3397
 3466POPS   PO441978   0.162  20.259   3.848  0.0238 -0.0633  0.0039
 3466POPS   GL141979  -0.020  20.629   4.066  0.0534  0.0900 -0.0704
 3466POPS   GL241980   0.228  20.673   4.229  0.1626 -0.0087  0.1246
 3466POPS   C1A41981  -0.321  20.878   4.382 -0.3118  0.0938 -0.0071
 3466POPS   D2A41982  -0.371  21.077   4.747 -0.1984 -0.1388 -0.3872
 3466POPS   C3A41983  -0.732  20.935   5.039 -0.0618 -0.4140  0.2402
 3466POPS   C4A41984  -1.086  20.681   5.091  0.1347  0.0764  0.4007
 3466POPS   C1B41985   0.113  20.714   4.621  0.0818  0.0280  0.0591
 3466POPS   C2B41986  -0.160  20.664   4.969 -0.0792 -0.0586 -0.2863
 3466POPS   C3B41987  -0.206  21.000   5.266  0.1197 -0.0408  0.1729
 3466POPS   C4B41988  -0.583  21.201   5.518 -0.0730  0.4402  0.2333
 3467POPS   CNO41989   9.936  21.784   3.366  0.0078  0.0014  0.0985
 3467POPS   PO441990   9.745  21.661   3.663  0.2265 -0.1445 -0.0359
 3467POPS   GL141991   9.628  21.654   4.021 -0.1559  0.2453 -0.1291
 3467POPS   GL241992   9.329  21.614   3.993  0.0433 -0.0723 -0.0694
 3467POPS   C1A41993   9.685  21.605   4.454 -0.2886  0.0970 -0.1288
 3467POPS   D2A41994   9.653  21.660   4.886  0.0194  0.2662 -0.2523
 3467POPS   C3A41995   9.822  21.661   5.330 -0.0139  0.1377  0.0895
 3467POPS   C4A41996   9.837  21.496   5.720 -0.1647  0.3587 -0.1653
 3467POPS   C1B41997   9.321  21.884   4.321 -0.2154  0.0901  0.1907
 3467POPS   C2B41998   9.231  21.952   4.754 -0.0533  0.2048 -0.3729
 3467POPS   C3B41999   9.465  22.066   5.161 -0.0135  0.4144  0.0703
 3467POPS   C4B42000   9.841  22.218   5.398 -0.0879 -0.0820 -0.1205
 3468POPS   CNO42001  12.623   3.874   3.734  0.1861  0.1177 -0.0632
 3468POPS   PO442002  12.338   4.063   3.874  0.2666  0.2848  0.2201
 3468POPS   GL142003  12.485   4.230   4.264  0.0290  0.0530 -0.0307
 3468POPS   GL242004  12.720   4.042   4.214  0.0712 -0.3874  0.1245
 3468POPS   C1A42005  12.630   4.313   4.676 -0.0170 -0.1693 -0.0379
 3468POPS   D2A42006  12.651   4.532   5.059 -0.1751 -0.2835 -0.1153
 3468POPS   C3A42007  12.907   4.215   5.315  0.0901  0.0281  0.1476
 3468POPS   C4A42008  12.866   4.120   5.764 -0.1237 -0.1779 -0.4705
 3468POPS   C1B42009  12.693   3.818   4.592 -0.0086  0.0310  0.0124
 3468POPS   C2B42010  12.518   3.542   4.895  0.3956  0.1519  0.1312
 3468POPS   C3B42011  12.211   3.523   5.275  0.0467 -0.2461 -0.0479
 3468POPS   C4B42012  12.048   3.630   5.680 -0.1953 -0.0576  0.0682
 3469POPS   CNO42013   1.569  18.504   3.649  0.0340 -0.0539  0.3286
 3469POPS   PO442014   1.383  18.742   3.879  0.0345 -0.2392 -0.0432
 3469POPS   GL142015   1.358  18.793   4.326  0.0036  0.0015  0.0142
 3469POPS   GL242016   1.300  18.906   4.515  0.2583 -0.1266 -0.0187
 3469POPS   C1A42017   1.384  18.434   4.610  0.0638 -0.1115  0.1923
 3469POPS   D2A42018   1.447  18.299   5.072 -0.1157  0.2290  0.2655
 3469POPS   C3A42019   1.494  18.173   5.474 -0.1298 -0.0981  0.3008
 3469POPS   C4A42020   1.500  17.956   5.932  0.4352  0.0977  0.2816
 3469POPS   C1B42021   1.341  18.833   4.981 -0.0956 -0.2220 -0.0892
 3469POPS   C2B42022   1.300  18.723   5.383  0.0703  0.0862 -0.0434
 3469POPS   C3B42023   1.257  18.811   5.844 -0.0038 -0.1548  0.0366
 3469POPS   C4B42024   1.016  19.026   6.176  0.1428  0.1928 -0.0758
 3470POPS   CNO42025   7.220  12.850   3.437 -0.0256 -0.4407 -0.0707
 3470POPS   PO442026   7.461  12.740   3.733 -0.0290 -0.0822 -0.1273
 3470POPS   GL142027   7.520  12.513   4.088 -0.0944  0.0037 -0.1374
 3470POPS   GL242028   7.646  12.286   3.946 -0.1746  0.2424 -0.1106
 3470POPS   C1A42029   7.578  12.757   4.481 -0.2621  0.1779 -0.2341
 3470POPS   D2A42030   7.733  12.946   4.901 -0.1129 -0.1473  0.3504
 3470POPS   C3A42031   7.705  12.754   5.356  0.3370 -0.0612  0.2585
 3470POPS   C4A42032   7.385  12.610   5.642 -0.3117 -0.0966 -0.0355
 3470POPS   C1B42033   7.931  12.293   4.322  0.0154  0.0363 -0.0647
 3470POPS   C2B42034   8.290  12.184   4.632  0.0811 -0.1644  0.0602
 3470POPS   C3B42035   8.208  11.900   5.010  0.2616 -0.5443  0.0837
 3470POPS   C4B42036   8.111  11.996   5.459 -0.0986 -0.0811 -0.1844
 3471POPS   CNO42037  15.750   4.781   3.915  0.0328  0.0787 -0.4003
 3471POPS   PO442038  15.894   5.056   3.682  0.1387  0.1279 -0.3390
 3471POPS   GL142039  16.176   5.054   4.029 -0.1889  0.2045  0.2648
 3471POPS   GL242040  16.053   5.296   4.162  0.0786 -0.3631  0.2774
 3471POPS   C1A42041  16.598   5.240   3.994  0.0107 -0.2671  0.1652
 3471POPS   D2A42042  17.001   5.446   3.969  0.0772  0.0089  0.2037
 3471POPS   C3A42043  17.001   5.899   4.190  0.0563 -0.1028  0.1046
 3471POPS   C4A42044  16.731   6.054   4.569 -0.3700  0.0645  0.0801
 3471POPS   C1B42045  16.333   5.237   4.526 -0.0828  0.0073 -0.0795
 3471POPS   C2B42046  16.467   5.280   4.958 -0.3044 -0.2431 -0.1789
 3471POPS   C3B42047  16.538   5.470   5.414 -0.5949  0.1560  0.1975
 3471POPS   C4B42048  16.774   5.571   5.752 -0.2634 -0.0378 -0.0403
 3472POPS   CNO42049   9.721  15.549   3.292 -0.0764  0.3863  0.2528
 3472POPS   PO442050   9.823  15.429   3.628  0.1091  0.3298  0.0867
 3472POPS   GL142051   9.735  15.367   4.007 -0.2560 -0.1081  0.2672
 3472POPS   GL242052   9.964  15.158   4.023 -0.0937  0.0428  0.2164
 3472POPS   C1A42053   9.759  15.632   4.378 -0.0108  0.4561  0.2808
 3472POPS   D2A42054   9.583  15.955   4.725 -0.0729  0.1910 -0.2225
 3472POPS   C3A42055   9.110  16.080   4.806 -0.0017 -0.1838 -0.0770
 3472POPS   C4A42056   8.828  16.191   5.222 -0.1241 -0.3122  0.0203
 3472POPS   C1B42057   9.736  14.970   4.340  0.1809  0.1820 -0.2503
 3472POPS   C2B42058   9.673  14.619   4.614 -0.0480  0.2321  0.1508
 3472POPS   C3B42059   9.721  14.289   4.985 -0.0618  0.3125 -0.0251
 3472POPS   C4B42060   9.567  13.914   5.284  0.2319 -0.1553  0.2456
 3473POPS   CNO42061   7.430  17.502   3.354 -0.3270 -0.1672  0.0224
 3473POPS   PO442062   7.627  17.195   3.287 -0.0889 -0.3192 -0.1848
 3473POPS   GL142063   7.702  17.185   3.679 -0.3725  0.3657 -0.0161
 3473POPS   GL242064   7.841  17.068   3.879 -0.0903 -0.1581  0.1259
 3473POPS   C1A42065   7.971  17.539   3.911  0.1948 -0.0988  0.3416
 3473POPS   D2A42066   8.279  17.619   4.298 -0.1327  0.0004  0.0616
 3473POPS   C3A42067   8.016  17.603   4.672 -0.5818  0.0621 -0.0141
 3473POPS   C4A42068   7.853  17.500   5.086 -0.1891 -0.0012 -0.4272
 3473POPS   C1B42069   7.488  17.045   4.184 -0.2852  0.2408  0.1006
 3473POPS   C2B42070   7.223  16.985   4.631  0.2620  0.0621  0.1100
 3473POPS   C3B42071   7.041  17.149   5.013 -0.2592 -0.1022  0.0933
 3473POPS   C4B42072   6.834  17.007   5.484 -0.1819  0.1423  0.3598
 3474POPS   CNO42073   7.101  15.097   3.448 -0.0446 -0.1904 -0.1970
 3474POPS   PO442074   7.100  15.259   3.801  0.0203 -0.1165  0.2155
 3474POPS   GL142075   6.959  15.386   4.129  0.0433  0.0850 -0.2421
 3474POPS   GL242076   6.694  15.426   4.098 -0.3088  0.0225  0.0609
 3474POPS   C1A42077   7.119  15.685   4.428  0.1689 -0.2011 -0.2032
 3474POPS   D2A42078   7.157  16.063   4.668  0.1629  0.2003  0.1700
 3474POPS   C3A42079   7.026  16.287   5.028  0.0188 -0.1584  0.2458
 3474POPS   C4A42080   6.684  16.542   5.335  0.2680 -0.0461  0.0023
 3474POPS   C1B42081   6.734  15.406   4.592  0.1533  0.2338 -0.0951
 3474POPS   C2B42082   6.715  15.764   4.896  0.0436  0.0215  0.0416
 3474POPS   C3B42083   6.673  16.016   5.330  0.4238  0.2478  0.1360
 3474POPS   C4B42084   6.591  15.879   5.745  0.0517  0.2487 -0.2863
 3475POPS   CNO42085   7.668  26.959   3.704 -0.2094 -0.1308  0.2698
 3475POPS   PO442086   7.790  26.767   3.433 -0.1517 -0.1493 -0.1011
 3475POPS   GL142087   7.926  26.542   3.754 -0.0088  0.1149  0.1462
 3475POPS   GL242088   8.004  26.694   3.947  0.0690 -0.2942 -0.1515
 3475POPS   C1A42089   7.935  26.146   4.039 -0.1052  0.1177  0.0909
 3475POPS   D2A42090   7.969  26.035   4.505  0.0350  0.0631 -0.2179
 3475POPS   C3A42091   8.334  25.742   4.624 -0.0882 -0.1945  0.1036
 3475POPS   C4A42092   8.632  25.741   4.968  0.3688 -0.2008  0.0856
 3475POPS   C1B42093   7.727  26.977   4.242  0.1315  0.1755 -0.2066
 3475POPS   C2B42094   7.709  27.027   4.670  0.1411 -0.0520 -0.0742
 3475POPS   C3B42095   7.882  26.933   5.073  0.1742  0.2290 -0.1173
 3475POPS   C4B42096   8.080  27.085   5.495 -0.2393 -0.0361  0.1780
 3476POPS   CNO42097  13.573  15.362   3.796  0.0822  0.3592 -0.1346
 3476POPS   PO442098  13.390  15.069   3.701  0.1009 -0.0316 -0.3604
 3476POPS   GL142099  13.302  15.002   3.964 -0.2481 -0.0242 -0.0749
 3476POPS   GL242100  13.278  14.743   4.029  0.0488 -0.1073  0.0269
 3476POPS   C1A42101  13.173  15.128   4.373 -0.0738  0.0835  0.0384
 3476POPS   D2A42102  13.321  15.450   4.700  0.0785  0.0914  0.0641
 3476POPS   C3A42103  13.342  15.874   4.680  0.1460 -0.2346  0.1521
 3476POPS   C4A42104  13.206  16.173   4.341 -0.0599 -0.2113  0.3773
 3476POPS   C1B42105  13.421  14.688   4.500 -0.2879 -0.0930  0.0186
 3476POPS   C2B42106  13.310  14.493   4.871  0.3389  0.2767 -0.1647
 3476POPS   C3B42107  13.049  14.230   5.254  0.0101  0.1041 -0.1330
 3476POPS   C4B42108  12.930  13.805   5.437 -0.0375 -0.0808 -0.1307
 3477POPS   CNO42109  14.911   9.986   3.961 -0.0010 -0.0310  0.0119
 3477POPS   PO442110  14.716  10.270   3.900  0.0593  0.3225  0.1103
 3477POPS   GL142111  14.880  10.364   4.266  0.0301  0.1289  0.0401
 3477POPS   GL242112  14.713  10.564   4.333 -0.0806  0.3271 -0.0744
 3477POPS   C1A42113  15.112  10.050   4.530  0.3641 -0.1324  0.0298
 3477POPS   D2A42114  15.477   9.780   4.562  0.0029  0.2732  0.0705
 3477POPS   C3A42115  15.726   9.743   4.972  0.1223  0.2397 -0.1377
 3477POPS   C4A42116  16.101   9.782   5.255 -0.5606  0.3581  0.1543
 3477POPS   C1B42117  14.766  10.424   4.805  0.0531  0.0305 -0.1766
 3477POPS   C2B42118  14.846  10.435   5.304  0.0033  0.0032 -0.0494
 3477POPS   C3B42119  14.714  10.708   5.646 -0.1856  0.0623  0.1155
 3477POPS   C4B42120  14.774  11.115   5.864  0.1083 -0.3475  0.0599
 3478POPS   CNO42121   5.860   2.812   3.687 -0.0401  0.0558 -0.0438
 3478POPS   PO442122   5.842   2.929   4.085 -0.0393  0.0529 -0.0392
 3478POPS   GL142123   6.087   2.871   4.401 -0.1255 -0.0442  0.1360
 3478POPS   GL242124   6.117   2.648   4.410 -0.1098 -0.3803 -0.1357
 3478POPS   C1A42125   5.771   2.810   4.734  0.0427  0.1644 -0.2179
 3478POPS   D2A42126   5.587   2.962   5.124 -0.3371  0.2323 -0.3475
 3478POPS   C3A42127   5.676   2.917   5.586 -0.0487  0.0263  0.2504
 3478POPS   C4A42128   5.431   2.826   5.918  0.2301 -0.0602  0.1474
 3478POPS   C1B42129   6.150   2.572   4.895  0.1367 -0.5400  0.1005
 3478POPS   C2B42130   5.999   2.610   5.369  0.2755 -0.2500  0.2755
 3478POPS   C3B42131   5.972   2.583   5.829  0.0063 -0.1216 -0.1568
 3478POPS   C4B42132   6.271   2.336   6.149  0.1860  0.0026  0.3801
 3479POPS   CNO42133  12.199  28.640   3.205 -0.0663 -0.1208 -0.2030
 3479POPS   PO442134  12.239  28.801   3.525  0.3012  0.2729 -0.1314
 3479POPS   GL142135  12.331  28.652   3.922  0.2939  0.0417  0.1854
 3479POPS   GL242136  12.123  28.861   4.093  0.0007  0.0424 -0.0279
 3479POPS   C1A42137  12.703  28.682   4.169  0.0215  0.1685  0.1586
 3479POPS   D2A42138  13.132  28.773   4.261  0.1837  0.1124 -0.0925
 3479POPS   C3A42139  13.206  28.800   4.739 -0.0708 -0.0272 -0.1939
 3479POPS   C4A42140  13.279  28.969   5.166  0.1406 -0.0506  0.1433
 3479POPS   C1B42141  12.285  28.503   4.338 -0.0549  0.2209 -0.1511
 3479POPS   C2B42142  12.435  28.266   4.667 -0.0851 -0.2237 -0.2382
 3479POPS   C3B42143  12.683  28.222   5.093  0.0285  0.0095  0.2528
 3479POPS   C4B42144  13.027  28.017   5.310  0.0591  0.2374 -0.2971
 3480POPS   CNO42145  14.195  20.351   3.202 -0.2794  0.0907  0.1371
 3480POPS   PO442146  14.532  20.356   3.365 -0.3303 -0.1031  0.0723
 3480POPS   GL142147  14.675  20.306   3.801 -0.0537 -0.2085  0.2557
 3480POPS   GL242148  14.723  20.565   3.866 -0.1093 -0.0517 -0.2090
 3480POPS   C1A42149  14.825  20.255   4.245  0.1385  0.0972  0.4797
 3480POPS   D2A42150  14.821  20.442   4.644  0.2669 -0.0499  0.1477
 3480POPS   C3A42151  14.425  20.622   4.763 -0.1475 -0.0170  0.0759
 3480POPS   C4A42152  14.093  20.906   4.929  0.2208 -0.1216  0.1412
 3480POPS   C1B42153  14.548  20.698   4.275 -0.1275  0.2858  0.0223
 3480POPS   C2B42154  14.294  21.012   4.442 -0.0426 -0.1526 -0.2071
 3480POPS   C3B42155  14.281  21.386   4.801 -0.0683  0.1112 -0.0274
 3480POPS   C4B42156  13.860  21.382   5.015  0.2758  0.4463  0.1529
 3481POPS   CNO42157  10.677  28.664   3.594  0.0555  0.0916  0.0713
 3481POPS   PO442158  11.011  28.626   3.770 -0.0916 -0.0584 -0.2128
 3481POPS   GL142159  11.083  28.638   4.159 -0.1525  0.1929 -0.4138
 3481POPS   GL242160  10.964  28.346   4.169  0.0861  0.0338  0.2327
 3481POPS   C1A42161  11.112  28.806   4.597  0.3342 -0.0519 -0.0355
 3481POPS   D2A42162  10.839  28.930   4.901 -0.0574  0.0606 -0.1246
 3481POPS   C3A42163  10.882  29.235   5.282  0.5071  0.0622  0.2004
 3481POPS   C4A42164  11.122  29.180   5.690  0.0345  0.2463 -0.1079
 3481POPS   C1B42165  11.014  28.201   4.578  0.0548  0.0214  0.1849
 3481POPS   C2B42166  11.013  28.030   5.022 -0.0023  0.0302  0.0465
 3481POPS   C3B42167  10.836  27.812   5.399  0.0603 -0.0127  0.1867
 3481POPS   C4B42168  10.884  27.455   5.705 -0.1868 -0.1619 -0.0863
 3482POPS   CNO42169   4.492   0.486   3.126  0.1664 -0.2377 -0.3278
 3482POPS   PO442170   4.596   0.601   3.505  0.2324  0.3338 -0.1293
 3482POPS   GL142171   4.845   0.422   3.718 -0.3204  0.2234 -0.1059
 3482POPS   GL242172   4.709   0.196   3.833 -0.3868  0.2073  0.2670
 3482POPS   C1A42173   5.135   0.370   4.067 -0.0537  0.0519  0.1263
 3482POPS   D2A42174   5.323   0.374   4.454 -0.0027 -0.2125  0.0325
 3482POPS   C3A42175   5.231   0.100   4.759 -0.1662  0.3632  0.4667
 3482POPS   C4A42176   5.328  -0.057   5.180 -0.0521 -0.0226  0.0134
 3482POPS   C1B42177   4.679   0.138   4.276  0.3022 -0.1019  0.1120
 3482POPS   C2B42178   4.687   0.036   4.732  0.1974  0.2475 -0.1377
 3482POPS   C3B42179   4.841  -0.073   5.166  0.2609  0.2789 -0.0764
 3482POPS   C4B42180   4.988  -0.131   5.575  0.1254  0.2058 -0.0518
 3483POPS   CNO42181   9.772  21.211   3.418 -0.1153  0.0819 -0.2837
 3483POPS   PO442182   9.877  20.859   3.390 -0.2036 -0.0638  0.1057
 3483POPS   GL142183  10.107  20.873   3.732 -0.2304  0.3053  0.0497
 3483POPS   GL242184  10.000  21.102   3.865  0.5932  0.0432  0.0039
 3483POPS   C1A42185   9.981  20.774   4.215 -0.4423 -0.1462  0.0887
 3483POPS   D2A42186   9.988  20.836   4.670  0.0468  0.0710  0.0550
 3483POPS   C3A42187  10.004  20.785   5.100  0.0406  0.2706  0.0684
 3483POPS   C4A42188   9.923  20.443   5.394 -0.1848  0.0630  0.1261
 3483POPS   C1B42189  10.032  21.276   4.341  0.0984  0.2695  0.0149
 3483POPS   C2B42190  10.006  21.339   4.780  0.0526 -0.0728 -0.0728
 3483POPS   C3B42191  10.130  21.262   5.239 -0.1084  0.1294  0.0281
 3483POPS   C4B42192  10.055  21.022   5.632  0.1173  0.1212  0.0998
 3484POPS   CNO42193  15.783  15.021   2.821 -0.1921  0.0773 -0.1358
 3484POPS   PO442194  15.807  14.892   3.198 -0.1845 -0.1535 -0.0540
 3484POPS   GL142195  15.778  14.754   3.652  0.2653  0.1726 -0.0256
 3484POPS   GL242196  15.887  15.003   3.844 -0.2281  0.2566  0.1060
 3484POPS   C1A42197  15.811  14.347   3.955  0.0912  0.0823  0.0401
 3484POPS   D2A42198  15.978  14.142   4.272 -0.1184 -0.0366 -0.0177
 3484POPS   C3A42199  15.836  14.020   4.645 -0.0153  0.0603  0.0351
 3484POPS   C4A42200  15.701  13.888   5.060  0.0509  0.1382 -0.3590
 3484POPS   C1B42201  16.060  14.809   4.234 -0.1590  0.2456 -0.1451
 3484POPS   C2B42202  15.949  14.551   4.600 -0.0448 -0.1329 -0.0165
 3484POPS   C3B42203  15.773  14.432   5.011  0.1783  0.0364 -0.3197
 3484POPS   C4B42204  15.533  14.191   5.391 -0.1516 -0.1690  0.2935
 3485POPS   CNO42205  13.316  20.604   3.017  0.1225  0.0236  0.0902
 3485POPS   PO442206  13.168  20.315   3.206  0.2051 -0.3122 -0.4181
 3485POPS   GL142207  13.252  20.575   3.527 -0.0296 -0.3086 -0.0898
 3485POPS   GL242208  13.069  20.414   3.727 -0.4408  0.1359  0.0631
 3485POPS   C1A42209  13.037  20.858   3.906  0.0821 -0.1143 -0.0349
 3485POPS   D2A42210  12.725  20.814   4.192 -0.0436  0.0930 -0.0713
 3485POPS   C3A42211  12.715  20.624   4.648  0.1805  0.0226  0.0505
 3485POPS   C4A42212  12.886  20.305   5.020  0.0063  0.0214  0.3906
 3485POPS   C1B42213  12.921  20.346   4.144 -0.0157  0.2483 -0.0237
 3485POPS   C2B42214  12.701  20.124   4.562  0.0607 -0.2381 -0.1282
 3485POPS   C3B42215  12.446  20.067   4.992  0.1277 -0.1525  0.1016
 3485POPS   C4B42216  12.440  20.100   5.473 -0.0582 -0.1509 -0.1815
 3486POPS   CNO42217   2.436   9.302   3.867 -0.0529 -0.0548 -0.0281
 3486POPS   PO442218   2.786   9.394   3.862  0.1792 -0.2686 -0.2600
 3486POPS   GL142219   2.686   9.380   4.234 -0.2675  0.0674 -0.1005
 3486POPS   GL242220   2.984   9.329   4.384 -0.1188  0.3342  0.0159
 3486POPS   C1A42221   2.731   9.699   4.537  0.1817  0.1543 -0.1204
 3486POPS   D2A42222   2.816   9.729   4.996  0.0724  0.2823  0.2466
 3486POPS   C3A42223   3.178   9.542   5.027 -0.0726  0.1785  0.3671
 3486POPS   C4A42224   3.493   9.300   5.357  0.0898 -0.1072 -0.0830
 3486POPS   C1B42225   2.838   9.217   4.798 -0.3124 -0.0624  0.0135
 3486POPS   C2B42226   2.800   9.284   5.256 -0.0021 -0.0305 -0.0258
 3486POPS   C3B42227   3.081   9.442   5.567 -0.1681 -0.0851  0.0304
 3486POPS   C4B42228   3.419   9.758   5.625  0.0345  0.0719  0.2807
 3487POPS   CNO42229   6.535   7.978   3.704 -0.2751 -0.1024 -0.2157
 3487POPS   PO442230   6.424   8.332   3.798 -0.0658 -0.1627 -0.0104
 3487POPS   GL142231   6.538   8.167   4.142 -0.3238  0.0685  0.0573
 3487POPS   GL242232   6.861   8.196   4.224  0.0159 -0.0082 -0.1804
 3487POPS   C1A42233   6.613   7.849   4.464 -0.2013  0.1047  0.0623
 3487POPS   D2A42234   6.856   7.694   4.775  0.0791  0.0656  0.1156
 3487POPS   C3A42235   7.084   7.868   5.135 -0.1303 -0.1176 -0.2766
 3487POPS   C4A42236   7.518   7.760   5.304 -0.1187 -0.1444  0.1009
 3487POPS   C1B42237   6.862   8.228   4.689  0.1094  0.2411 -0.3104
 3487POPS   C2B42238   7.059   8.469   4.987 -0.3702  0.2465  0.2675
 3487POPS   C3B42239   7.089   8.452   5.445  0.1983 -0.1800 -0.2235
 3487POPS   C4B42240   7.184   8.467   5.870 -0.0022  0.2806 -0.2625
 3488POPS   CNO42241   5.642   4.309   3.667  0.0559 -0.0725  0.1204
 3488POPS   PO442242   5.348   4.346   3.844 -0.1371 -0.4068 -0.0424
 3488POPS   GL142243   5.569   4.401   4.267  0.2398  0.0158  0.1867
 3488POPS   GL242244   5.838   4.386   4.421  0.3570  0.3969  0.1309
 3488POPS   C1A42245   5.431   4.687   4.543  0.0520 -0.0950  0.0145
 3488POPS   D2A42246   5.141   5.047   4.520  0.1550 -0.1035 -0.1205
 3488POPS   C3A42247   5.114   5.177   4.984 -0.4512 -0.1173  0.0745
 3488POPS   C4A42248   5.216   5.135   5.479  0.1163  0.2777 -0.0318
 3488POPS   C1B42249   5.906   4.526   4.849 -0.0543  0.2224  0.0024
 3488POPS   C2B42250   5.987   4.591   5.288 -0.2202 -0.1336 -0.2068
 3488POPS   C3B42251   6.184   4.562   5.734 -0.3059 -0.0816 -0.0200
 3488POPS   C4B42252   6.027   4.539   6.170  0.1771 -0.0925  0.0027
 3489POPS   CNO42253   1.491  17.211   3.547 -0.0899  0.1712  0.1997
 3489POPS   PO442254   1.297  17.019   3.782  0.1290 -0.2697  0.0758
 3489POPS   GL142255   1.448  17.341   3.999  0.1013  0.0354 -0.2360
 3489POPS   GL242256   1.732  17.211   4.092 -0.4870  0.0888 -0.4529
 3489POPS   C1A42257   1.566  17.522   4.392 -0.0580 -0.1506 -0.2005
 3489POPS   D2A42258   1.722  17.328   4.745 -0.1390  0.0212 -0.2588
 3489POPS   C3A42259   1.936  17.048   5.034 -0.0458  0.1257  0.2314
 3489POPS   C4A42260   1.854  16.768   5.391  0.1565  0.5176 -0.0516
 3489POPS   C1B42261   1.759  16.899   4.469 -0.1153 -0.1031  0.0903
 3489POPS   C2B42262   2.119  16.701   4.656  0.1361  0.3005  0.0294
 3489POPS   C3B42263   2.302  16.645   5.075 -0.0485 -0.1662 -0.1120
 3489POPS   C4B42264   2.454  16.813   5.482 -0.3039 -0.3813 -0.2391
 3490POPS   CNO42265   6.404  23.482   3.309  0.1962  0.0408 -0.2238
 3490POPS   PO442266   6.392  23.498   3.699  0.0956  0.0923 -0.2579
 3490POPS   GL142267   6.461  23.382   4.084  0.2169 -0.0323 -0.1982
 3490POPS   GL242268   6.699  23.160   4.066 -0.1246 -0.0922  0.2215
 3490POPS   C1A42269   6.411  23.514   4.541 -0.2983 -0.1551  0.0595
 3490POPS   D2A42270   6.400  23.525   5.027 -0.0913 -0.1045 -0.0803
 3490POPS   C3A42271   6.754  23.726   5.268 -0.1942 -0.1895 -0.0301
 3490POPS   C4A42272   6.781  24.049   5.603 -0.2262 -0.2316  0.0699
 3490POPS   C1B42273   6.637  23.065   4.489 -0.1580 -0.1549 -0.0109
 3490POPS   C2B42274   6.710  22.885   4.931  0.0552  0.1538 -0.0918
 3490POPS   C3B42275   7.015  22.825   5.302 -0.1287  0.2236  0.1408
 3490POPS   C4B42276   6.962  22.530   5.659 -0.2817 -0.1168 -0.1892
 3491POPS   CNO42277  10.235  21.393   3.540  0.2975 -0.1218  0.3546
 3491POPS   PO442278  10.420  21.070   3.425 -0.0777  0.0382  0.0536
 3491POPS   GL142279  10.523  21.042   3.750 -0.1609  0.2537 -0.2995
 3491POPS   GL242280  10.478  20.870   4.008  0.1067  0.0681 -0.0213
 3491POPS   C1A42281  10.909  21.182   3.982 -0.0918  0.2195 -0.4236
 3491POPS   D2A42282  11.154  21.106   4.297  0.1772 -0.2131 -0.0117
 3491POPS   C3A42283  11.304  21.458   4.608 -0.3513  0.0943  0.2090
 3491POPS   C4A42284  11.533  21.491   5.053 -0.1442 -0.2138  0.0982
 3491POPS   C1B42285  10.627  21.082   4.406  0.3326  0.0217  0.0607
 3491POPS   C2B42286  10.899  21.147   4.775  0.1884 -0.0138 -0.4719
 3491POPS   C3B42287  11.179  21.116   5.141  0.0566 -0.1345  0.0318
 3491POPS   C4B42288  11.108  20.830   5.526 -0.0387  0.0151  0.0005
 3492POPS   CNO42289   0.445  21.069   3.470 -0.1110  0.0235 -0.3700
 3492POPS   PO442290   0.565  21.391   3.579 -0.1749  0.1832  0.0995
 3492POPS   GL142291   0.493  21.374   3.982 -0.2570  0.1879  0.0640
 3492POPS   GL242292   0.638  21.633   4.083 -0.2228 -0.2399  0.1442
 3492POPS   C1A42293   0.674  21.127   4.347  0.0390  0.1707  0.0332
 3492POPS   D2A42294   1.000  20.962   4.666 -0.4219  0.2778  0.2859
 3492POPS   C3A42295   1.123  21.101   5.094  0.4706 -0.1409 -0.4381
 3492POPS   C4A42296   0.983  21.481   5.431 -0.4579 -0.1092 -0.0410
 3492POPS   C1B42297   0.549  21.549   4.556  0.1830 -0.2357 -0.1004
 3492POPS   C2B42298   0.642  21.325   4.934  0.0841 -0.1392 -0.0419
 3492POPS   C3B42299   0.682  21.111   5.314 -0.0596 -0.1019 -0.1258
 3492POPS   C4B42300   0.876  20.967   5.717 -0.2577 -0.2589 -0.0389
 3493POPS   CNO42301   5.728   8.761   3.588  0.0495 -0.0406 -0.0014
 3493POPS   PO442302   5.963   9.076   3.580  0.0177 -0.1248 -0.0165
 3493POPS   GL142303   5.872   8.925   3.997 -0.3704  0.0387  0.1751
 3493POPS   GL242304   5.676   8.823   4.160  0.0940 -0.1489 -0.3060
 3493POPS   C1A42305   6.103   9.043   4.402  0.0515  0.0853  0.1426
 3493POPS   D2A42306   6.179   9.019   4.880 -0.0229  0.2795  0.0747
 3493POPS   C3A42307   5.881   8.962   5.264 -0.0313  0.2853  0.0765
 3493POPS   C4A42308   5.635   8.765   5.615 -0.0284 -0.1319 -0.1416
 3493POPS   C1B42309   5.659   8.922   4.619  0.0547 -0.0087  0.1552
 3493POPS   C2B42310   5.418   8.894   4.955 -0.0221  0.2384  0.0805
 3493POPS   C3B42311   5.131   8.860   5.334 -0.0502 -0.0943 -0.1271
 3493POPS   C4B42312   4.955   8.590   5.679  0.1345  0.2017  0.1204
 3494POPS   CNO42313   3.136   7.259   3.620  0.2236 -0.2309 -0.0756
 3494POPS   PO442314   2.897   7.120   3.860  0.0366 -0.0260  0.0265
 3494POPS   GL142315   3.069   7.208   4.202  0.1199 -0.1196 -0.2578
 3494POPS   GL242316   2.819   7.270   4.372  0.0026  0.1161 -0.2294
 3494POPS   C1A42317   3.198   7.446   4.569  0.0422  0.2540 -0.0508
 3494POPS   D2A42318   3.263   7.437   5.025 -0.0708  0.2043  0.3698
 3494POPS   C3A42319   3.075   7.419   5.468 -0.2353 -0.1195 -0.1311
 3494POPS   C4A42320   3.227   7.085   5.760  0.1796 -0.0195 -0.2155
 3494POPS   C1B42321   2.819   7.197   4.853 -0.1053 -0.2584 -0.2723
 3494POPS   C2B42322   2.921   7.011   5.260  0.1410 -0.1600 -0.2299
 3494POPS   C3B42323   2.913   6.670   5.550 -0.0707  0.1583 -0.0161
 3494POPS   C4B42324   2.850   6.530   5.971 -0.0816 -0.0194  0.4173
 3495POPS   CNO42325   3.122  21.261   3.668  0.0512 -0.0051  0.0068
 3495POPS   PO442326   3.105  21.003   3.925  0.2684  0.0468 -0.1508
 3495POPS   GL142327   2.953  21.267   4.156 -0.2476 -0.0489 -0.3450
 3495POPS   GL242328   3.185  21.309   4.358 -0.1035  0.0735 -0.1449
 3495POPS   C1A42329   2.708  21.431   4.501  0.0496 -0.2360  0.0684
 3495POPS   D2A42330   2.760  21.712   4.850  0.3066  0.2279  0.2800
 3495POPS   C3A42331   2.977  21.969   5.135  0.5533  0.1901 -0.0327
 3495POPS   C4A42332   3.292  22.190   5.417  0.1320  0.0724  0.0008
 3495POPS   C1B42333   3.252  21.477   4.757 -0.0289 -0.0851 -0.2614
 3495POPS   C2B42334   3.411  21.715   5.122  0.0341  0.1615 -0.3085
 3495POPS   C3B42335   3.728  21.811   5.478  0.0158 -0.0557 -0.0587
 3495POPS   C4B42336   4.042  22.153   5.448 -0.2750 -0.1522 -0.0080
 3496POPS   CNO42337  12.519   3.189   3.331 -0.0068 -0.2958 -0.2697
 3496POPS   PO442338  12.281   3.009   3.564  0.0804 -0.1589  0.0973
 3496POPS   GL142339  12.068   2.969   3.998  0.0114  0.0848 -0.2244
 3496POPS   GL242340  12.345   2.948   4.138  0.3666 -0.0556  0.1154
 3496POPS   C1A42341  11.947   3.121   4.418 -0.0191 -0.0412  0.3188
 3496POPS   D2A42342  12.033   3.220   4.853 -0.2128 -0.1512 -0.0826
 3496POPS   C3A42343  11.858   3.198   5.300  0.2675 -0.0936 -0.0125
 3496POPS   C4A42344  11.562   3.193   5.609 -0.1721  0.1240  0.0446
 3496POPS   C1B42345  12.632   2.660   4.407 -0.0461  0.2561  0.1113
 3496POPS   C2B42346  12.578   2.450   4.822  0.2803  0.1824 -0.0726
 3496POPS   C3B42347  12.349   2.211   5.113 -0.1625 -0.3337 -0.0136
 3496POPS   C4B42348  12.061   1.905   5.052 -0.0798  0.0294  0.3307
 3497POPS   CNO42349  10.010   0.529   3.614  0.0783 -0.1352 -0.2050
 3497POPS   PO442350   9.778   0.715   3.759  0.1059  0.0834  0.2457
 3497POPS   GL142351   9.681   0.699   4.092  0.0349 -0.0855 -0.0334
 3497POPS   GL242352   9.386   0.742   4.055 -0.0255  0.0190 -0.0561
 3497POPS   C1A42353   9.443   0.590   4.510  0.3257  0.0809  0.1345
 3497POPS   D2A42354   9.263   0.553   4.897  0.0863  0.2687 -0.0786
 3497POPS   C3A42355   9.024   0.928   5.005 -0.0699 -0.3536 -0.2629
 3497POPS   C4A42356   8.734   0.927   5.304  0.1976  0.0569 -0.2787
 3497POPS   C1B42357   9.120   0.958   4.464  0.0431  0.0396  0.3463
 3497POPS   C2B42358   8.790   1.278   4.644 -0.0612 -0.1544  0.1144
 3497POPS   C3B42359   8.518   1.364   4.962  0.1340  0.1680  0.0190
 3497POPS   C4B42360   8.257   1.527   5.272  0.1241  0.0689 -0.1669
 3498POPS   CNO42361   3.712  12.669   3.346 -0.0674 -0.1005  0.1271
 3498POPS   PO442362   3.591  12.350   3.524  0.0286  0.1740 -0.2590
 3498POPS   GL142363   3.644  12.201   3.850  0.1612 -0.0721  0.4849
 3498POPS   GL242364   3.378  12.122   3.974 -0.0484 -0.2761 -0.2521
 3498POPS   C1A42365   3.835  12.331   4.257 -0.0516 -0.2238  0.1138
 3498POPS   D2A42366   3.914  12.199   4.682  0.2977 -0.2963  0.3830
 3498POPS   C3A42367   4.085  12.306   5.055 -0.2857  0.0097  0.4475
 3498POPS   C4A42368   4.449  12.153   5.330 -0.0484 -0.0466 -0.0220
 3498POPS   C1B42369   3.344  12.292   4.394  0.0278  0.0569 -0.1651
 3498POPS   C2B42370   3.444  12.665   4.664  0.1662 -0.3643 -0.0279
 3498POPS   C3B42371   3.375  12.843   5.081 -0.1792  0.3056  0.0932
 3498POPS   C4B42372   3.326  12.899   5.578  0.4915 -0.0425  0.0170
 3499POPS   CNO42373  14.495  21.399   3.135  0.0953  0.2299  0.3542
 3499POPS   PO442374  14.445  21.275   3.453  0.1888  0.1923 -0.1109
 3499POPS   GL142375  14.301  21.232   3.808 -0.2490 -0.2549 -0.3695
 3499POPS   GL242376  14.422  20.992   3.851  0.0637  0.2873 -0.0925
 3499POPS   C1A42377  14.305  21.493   4.199 -0.0069 -0.0276 -0.1812
 3499POPS   D2A42378  14.690  21.603   4.386 -0.1951 -0.0052 -0.1109
 3499POPS   C3A42379  14.651  21.677   4.864  0.0926  0.2503 -0.0006
 3499POPS   C4A42380  14.491  21.932   5.207  0.1014  0.2481 -0.1430
 3499POPS   C1B42381  13.960  21.001   3.965  0.0658  0.1820 -0.0891
 3499POPS   C2B42382  13.515  20.957   4.128  0.1311  0.0195  0.0626
 3499POPS   C3B42383  13.227  20.749   4.408 -0.0583 -0.1827  0.3678
 3499POPS   C4B42384  13.282  20.598   4.836  0.3885 -0.0987  0.1705
 3500POPS   CNO42385   6.533   7.525   3.446 -0.0627  0.0037  0.0039
 3500POPS   PO442386   6.516   7.167   3.596 -0.0031 -0.1936 -0.1482
 3500POPS   GL142387   6.649   7.364   3.887 -0.3489  0.2577 -0.4227
 3500POPS   GL242388   6.452   7.561   3.985 -0.1401  0.0630 -0.0299
 3500POPS   C1A42389   6.890   7.391   4.305  0.0424  0.0096  0.1963
 3500POPS   D2A42390   6.800   7.152   4.653 -0.0720 -0.0071  0.1940
 3500POPS   C3A42391   6.754   7.109   5.114  0.0311  0.1178 -0.0882
 3500POPS   C4A42392   6.506   7.019   5.503  0.1247 -0.3904 -0.1128
 3500POPS   C1B42393   6.368   7.401   4.468  0.0998  0.0264 -0.2080
 3500POPS   C2B42394   6.460   7.503   4.933  0.4362 -0.0446 -0.2624
 3500POPS   C3B42395   6.613   7.792   5.212 -0.1234  0.0802  0.0064
 3500POPS   C4B42396   6.422   7.971   5.627  0.0645 -0.2887 -0.1659
 3501POPS   CNO42397  14.860  11.806   3.416 -0.0402 -0.0373  0.0410
 3501POPS   PO442398  15.117  11.529   3.417 -0.3816 -0.3086  0.0651
 3501POPS   GL142399  14.979  11.753   3.801  0.4362 -0.4522  0.1199
 3501POPS   GL242400  14.622  11.772   3.869  0.1138 -0.0465 -0.0212
 3501POPS   C1A42401  15.065  11.590   4.185  0.0008  0.0333 -0.2025
 3501POPS   D2A42402  15.072  11.436   4.609  0.0631  0.0447  0.2235
 3501POPS   C3A42403  15.503  11.430   4.797  0.0067  0.1169  0.0956
 3501POPS   C4A42404  15.612  11.484   5.295  0.0321  0.0389 -0.2475
 3501POPS   C1B42405  14.850  12.048   4.169  0.0347  0.0623  0.2120
 3501POPS   C2B42406  15.124  12.037   4.448 -0.0640  0.0238 -0.1346
 3501POPS   C3B42407  15.247  11.844   4.871  0.0722  0.0708 -0.0079
 3501POPS   C4B42408  15.320  11.879   5.325 -0.3269  0.1441 -0.3735
 3502POPS   CNO42409   8.770   7.720   3.471  0.0444  0.2963 -0.2883
 3502POPS   PO442410   8.884   7.515   3.764  0.2816  0.0446  0.0344
 3502POPS   GL142411   9.175   7.308   3.957 -0.0253 -0.1084  0.3819
 3502POPS   GL242412   9.266   7.579   4.045  0.2044  0.0595 -0.2307
 3502POPS   C1A42413   8.995   7.048   4.296  0.1885  0.0595 -0.0134
 3502POPS   D2A42414   8.779   7.007   4.674 -0.0554  0.1020  0.2569
 3502POPS   C3A42415   8.595   7.287   4.967 -0.2752 -0.1931 -0.1729
 3502POPS   C4A42416   8.484   7.313   5.429  0.2126 -0.0138 -0.3634
 3502POPS   C1B42417   9.025   7.560   4.436  0.0706  0.0630 -0.2117
 3502POPS   C2B42418   9.067   7.523   4.875 -0.2494 -0.0747  0.0759
 3502POPS   C3B42419   9.102   7.559   5.328  0.0749 -0.0816 -0.0745
 3502POPS   C4B42420   9.401   7.528   5.708  0.0102 -0.1617 -0.0483
 3503SAP2    C142421   1.145  24.541   2.629 -0.3226  0.2690 -0.0885
 3503SAP2    C242422   0.874  24.499   2.669 -0.2662 -0.1560 -0.1016
 3503SAP2    C342423   1.015  24.593   2.379 -0.4190  0.3444 -0.0231
 3503SAP2    C442424   1.011  24.545   2.559  0.0007 -0.0000  0.0553
 3503SAP2   PO442425   1.289  24.339   2.786  0.0725  0.1329 -0.0210
 3503SAP2    P442426   0.791  24.560   2.163  0.2826  0.0392  0.0777
 3503SAP2    P542427   0.624  24.599   2.669 -0.0013 -0.0383 -0.2342
 3503SAP2   GL142428   1.306  23.927   2.758  0.2358  0.0212  0.3740
 3503SAP2   GL242429   1.329  23.892   2.976  0.3507  0.1850 -0.0300
 3503SAP2   D1A42430   1.611  23.579   2.698  0.0257 -0.1956  0.1203
 3503SAP2   D2A42431   1.744  24.045   2.590  0.3273 -0.1122 -0.1126
 3503SAP2   D3A42432   2.204  23.877   2.498  0.2588 -0.0001  0.0329
 3503SAP2   D4A42433   2.164  23.506   2.841 -0.0276 -0.1100 -0.1431
 3503SAP2   C5A42434   2.489  23.268   3.064  0.1087  0.0670 -0.0056
 3503SAP2   C1B42435   1.721  23.678   3.169 -0.3030 -0.0785  0.3830
 3503SAP2   C2B42436   2.031  23.490   3.405 -0.2377  0.1174 -0.2711
 3503SAP2   C3B42437   2.289  23.091   3.525  0.0720 -0.2161  0.0243
 3503SAP2   C4B42438   2.696  22.945   3.489  0.2154 -0.2522 -0.1453
 3504SAP2    C142439   3.839  29.685   3.175 -0.0030  0.0309  0.1586
 3504SAP2    C242440   3.632  29.847   3.261 -0.0217  0.0258  0.1232
 3504SAP2    C342441   3.667  29.725   2.950  0.0837  0.1032  0.1043
 3504SAP2    C442442   3.713  29.752   3.128  0.0007 -0.0000  0.0553
 3504SAP2   PO442443   3.867  29.529   3.475  0.1160 -0.0827 -0.0337
 3504SAP2    P442444   3.450  29.858   2.830  0.2490  0.0851 -0.2736
 3504SAP2    P542445   3.661  30.162   3.152 -0.4868 -0.2810 -0.0343
 3504SAP2   GL142446   3.778  29.635   3.762  0.7225 -0.3377  0.1715
 3504SAP2   GL242447   3.772  29.361   3.929 -0.1834  0.0073 -0.0841
 3504SAP2   D1A42448   4.046  29.827   4.063 -0.1799 -0.0528 -0.2326
 3504SAP2   D2A42449   4.138  30.273   4.028  0.0188  0.1399  0.0205
 3504SAP2   D3A42450   4.387  30.093   4.334 -0.2627  0.0174 -0.3889
 3504SAP2   D4A42451   4.358  30.024   4.798  0.0222  0.1055  0.3020
 3504SAP2   C5A42452   4.208  29.860   5.206  0.1532 -0.0405  0.1069
 3504SAP2   C1B42453   3.565  29.501   4.247  0.2251  0.0000  0.0182
 3504SAP2   C2B42454   3.359  29.728   4.615  0.2814  0.1052  0.1680
 3504SAP2   C3B42455   3.215  29.946   4.981 -0.1181  0.2536  0.0827
 3504SAP2   C4B42456   3.105  30.020   5.455 -0.2216 -0.1623 -0.4209
 3505SAP2    C142457  11.202   7.857   3.159 -0.0332 -0.0839 -0.1434
 3505SAP2    C242458  11.073   8.102   3.175 -0.1382 -0.1393 -0.1344
 3505SAP2    C342459  11.089   7.909   2.900  0.0254 -0.0789 -0.1680
 3505SAP2    C442460  11.121   7.956   3.078  0.0007 -0.0000  0.0553
 3505SAP2   PO442461  11.119   7.731   3.449  0.2048 -0.0942 -0.0370
 3505SAP2    P442462  11.029   7.909   2.665 -0.4766 -0.3411 -0.1001
 3505SAP2    P542463  11.106   8.336   3.138 -0.1632 -0.0700  0.3282
 3505SAP2   GL142464  11.153   7.941   3.699 -0.4540  0.1270  0.1895
 3505SAP2   GL242465  11.333   8.064   3.904 -0.1181 -0.1120  0.0680
 3505SAP2   D1A42466  11.184   7.577   3.984 -0.3732 -0.1535  0.2778
 3505SAP2   D2A42467  11.622   7.676   4.101 -0.0516 -0.0273 -0.0801
 3505SAP2   D3A42468  12.033   7.387   4.105 -0.2014 -0.1055 -0.1966
 3505SAP2   D4A42469  11.909   7.089   4.406  0.2919 -0.1763 -0.2028
 3505SAP2   C5A42470  11.719   6.649   4.307  0.0329  0.0448 -0.0357
 3505SAP2   C1B42471  11.322   8.031   4.374  0.0135  0.0641  0.2440
 3505SAP2   C2B42472  11.451   8.056   4.842  0.2818 -0.1999 -0.0079
 3505SAP2   C3B42473  11.638   8.048   5.226 -0.0882 -0.1122 -0.1096
 3505SAP2   C4B42474  11.842   8.183   5.634  0.1503  0.1328 -0.1024
 3506SAP2    C142475   8.980  12.106   2.570 -0.1013  0.3128  0.2497
 3506SAP2    C242476   9.216  12.247   2.608  0.1893 -0.1171  0.1206
 3506SAP2    C342477   9.010  12.280   2.344  0.2727  0.0336  0.0731
 3506SAP2    C442478   9.069  12.211   2.508  0.0007 -0.0000  0.0553
 3506SAP2   PO442479   8.812  12.124   2.871 -0.1015 -0.3832 -0.2113
 3506SAP2    P442480   9.138  12.410   2.154  0.2510  0.1353  0.0787
 3506SAP2    P542481   9.423  12.503   2.468  0.0425 -0.0370  0.0872
 3506SAP2   GL142482   8.899  11.806   2.975 -0.3861  0.0544 -0.3120
 3506SAP2   GL242483   8.940  11.778   3.217  0.0743 -0.1557 -0.1102
 3506SAP2   D1A42484   8.463  11.726   2.982  0.0004  0.0482  0.0396
 3506SAP2   D2A42485   8.468  11.280   3.129 -0.2012 -0.1633 -0.0983
 3506SAP2   D3A42486   8.541  11.671   3.465  0.1615 -0.0129  0.0611
 3506SAP2   D4A42487   8.195  11.528   3.527 -0.4016  0.1087  0.1219
 3506SAP2   C5A42488   8.176  11.370   3.929  0.0822  0.1086  0.1725
 3506SAP2   C1B42489   8.889  11.322   3.456  0.0781 -0.1150  0.0515
 3506SAP2   C2B42490   8.929  11.059   3.850 -0.1295 -0.2602 -0.1127
 3506SAP2   C3B42491   8.840  10.824   4.242 -0.0618  0.0432  0.3476
 3506SAP2   C4B42492   9.081  10.581   4.536  0.3595  0.4674  0.1322
 3507SAP2    C142493   6.774   0.855   2.391  0.0092 -0.3492  0.0904
 3507SAP2    C242494   6.712   0.696   2.172  0.0269 -0.2286 -0.0035
 3507SAP2    C342495   7.020   0.801   2.255  0.0075 -0.1926  0.0231
 3507SAP2    C442496   6.835   0.784   2.273  0.0007 -0.0000  0.0553
 3507SAP2   PO442497   6.598   0.820   2.673  0.2552 -0.0304 -0.0202
 3507SAP2    P442498   7.218   0.721   2.053  0.0529  0.0950 -0.0946
 3507SAP2    P542499   6.740   0.636   1.929 -0.0065 -0.0815 -0.1330
 3507SAP2   GL142500   6.764   0.495   2.854 -0.1238  0.1459  0.3109
 3507SAP2   GL242501   6.681   0.519   3.077 -0.1470  0.1417  0.2344
 3507SAP2   D1A42502   6.823   0.017   2.943 -0.1940  0.0661  0.0815
 3507SAP2   D2A42503   6.467   0.001   3.247  0.0659  0.2187  0.2491
 3507SAP2   D3A42504   6.354  -0.274   3.586  0.2878 -0.3514  0.1224
 3507SAP2   D4A42505   6.321  -0.669   3.324  0.0757 -0.2398 -0.0606
 3507SAP2   C5A42506   5.840  -0.718   3.327  0.1164 -0.3049 -0.1418
 3507SAP2   C1B42507   6.720   0.340   3.496  0.0774  0.1771  0.1277
 3507SAP2   C2B42508   6.692  -0.008   3.809 -0.0070  0.1115  0.1292
 3507SAP2   C3B42509   6.480  -0.228   4.174 -0.0271  0.0557  0.5164
 3507SAP2   C4B42510   6.632  -0.213   4.601 -0.0331 -0.1502 -0.1964
 3508SAP2    C142511  14.944  30.595   2.671  0.2065 -0.0071 -0.0187
 3508SAP2    C242512  14.708  30.727   2.612  0.2297  0.1647  0.2547
 3508SAP2    C342513  14.809  30.438   2.474 -0.1469  0.0806  0.1467
 3508SAP2    C442514  14.820  30.586   2.586  0.0007 -0.0000  0.0553
 3508SAP2   PO442515  15.008  30.546   3.031  0.0463 -0.0170 -0.1928
 3508SAP2    P442516  14.618  30.444   2.253  0.0260 -0.1141 -0.0817
 3508SAP2    P542517  14.646  30.865   2.364 -0.2975 -0.1299  0.2766
 3508SAP2   GL142518  15.019  30.336   3.280  0.1507 -0.1624 -0.2483
 3508SAP2   GL242519  15.115  30.074   3.365 -0.0370 -0.1648 -0.2523
 3508SAP2   D1A42520  14.930  30.392   3.777  0.2609 -0.2304 -0.1493
 3508SAP2   D2A42521  14.816  29.926   3.818 -0.1958 -0.0669  0.1265
 3508SAP2   D3A42522  14.412  29.776   3.608 -0.0256 -0.1677  0.0543
 3508SAP2   D4A42523  14.475  29.416   3.896  0.4638  0.0339 -0.0661
 3508SAP2   C5A42524  14.091  29.445   3.535 -0.2054  0.5076  0.1506
 3508SAP2   C1B42525  15.265  30.060   3.833  0.2041 -0.1250 -0.2757
 3508SAP2   C2B42526  15.108  30.204   4.255  0.0257  0.1088  0.0595
 3508SAP2   C3B42527  15.097  30.006   4.720 -0.2983  0.1691 -0.2117
 3508SAP2   C4B42528  14.833  30.018   5.066  0.1945 -0.1171  0.2668
 3509SAP2    C142529  11.422  20.902   2.814  0.2893  0.0069 -0.0112
 3509SAP2    C242530  11.207  20.812   2.666  0.3739 -0.0109 -0.1245
 3509SAP2    C342531  11.402  21.073   2.585  0.4002  0.0001 -0.0267
 3509SAP2    C442532  11.343  20.929   2.688  0.0007 -0.0000  0.0553
 3509SAP2   PO442533  11.547  20.639   2.935  0.2494 -0.2054  0.0550
 3509SAP2    P442534  11.285  21.256   2.407  0.2202  0.0335  0.0659
 3509SAP2    P542535  10.960  20.872   2.593 -0.2128 -0.3511  0.2999
 3509SAP2   GL142536  11.529  20.619   3.244 -0.1805  0.2239 -0.1675
 3509SAP2   GL242537  11.415  20.779   3.456  0.2261 -0.1939  0.1009
 3509SAP2   D1A42538  11.908  20.928   3.230  0.1772  0.0862  0.0671
 3509SAP2   D2A42539  11.543  21.179   3.142 -0.0170 -0.0077 -0.3119
 3509SAP2   D3A42540  11.725  21.479   3.436 -0.1458 -0.1298  0.2400
 3509SAP2   D4A42541  12.170  21.300   3.375 -0.2717 -0.3246 -0.1251
 3509SAP2   C5A42542  11.917  21.126   3.670 -0.4021 -0.2047 -0.0652
 3509SAP2   C1B42543  11.818  20.633   3.616  0.0341  0.1673 -0.1877
 3509SAP2   C2B42544  12.257  20.773   3.650 -0.0030  0.0740 -0.2149
 3509SAP2   C3B42545  12.697  20.745   3.492 -0.1127 -0.4098  0.3100
 3509SAP2   C4B42546  13.070  21.037   3.425 -0.0356 -0.1644  0.2209
 3510SAP2    C142547   7.747  27.864   3.610  0.1492  0.0039 -0.1641
 3510SAP2    C242548   7.848  28.069   3.454  0.2284 -0.0736 -0.2160
 3510SAP2    C342549   7.682  27.801   3.338  0.2359 -0.1022 -0.1609
 3510SAP2    C442550   7.759  27.911   3.468  0.0007 -0.0000  0.0553
 3510SAP2   PO442551   7.604  27.959   3.886 -0.2427  0.1814  0.0051
 3510SAP2    P442552   7.621  27.807   3.069 -0.0504 -0.0666 -0.0048
 3510SAP2    P542553   8.061  27.996   3.176  0.0649 -0.1324  0.2200
 3510SAP2   GL142554   7.362  27.720   4.006 -0.2658  0.0356 -0.1807
 3510SAP2   GL242555   7.301  27.994   4.173 -0.1239  0.1321 -0.1074
 3510SAP2   D1A42556   7.644  27.687   4.339 -0.0718  0.2055  0.3065
 3510SAP2   D2A42557   7.932  27.382   4.479 -0.0191 -0.0905 -0.1755
 3510SAP2   D3A42558   8.426  27.353   4.503  0.3545 -0.2509  0.0796
 3510SAP2   D4A42559   8.237  27.079   4.237 -0.0672  0.1683  0.1240
 3510SAP2   C5A42560   8.178  26.864   4.619  0.1601  0.0891  0.3162
 3510SAP2   C1B42561   7.210  27.857   4.630 -0.0098 -0.3194 -0.1074
 3510SAP2   C2B42562   7.077  27.941   5.057  0.1575  0.0014 -0.1408
 3510SAP2   C3B42563   7.149  28.020   5.544  0.1080 -0.3388 -0.2559
 3510SAP2   C4B42564   7.214  27.818   5.992 -0.1373 -0.0829  0.3713
 3511SAP2    C142565   2.345  25.525   2.620 -0.2185 -0.2761  0.1186
 3511SAP2    C242566   2.175  25.686   2.472 -0.0685 -0.1704  0.0588
 3511SAP2    C342567   2.495  25.620   2.396 -0.0713 -0.3410  0.1883
 3511SAP2    C442568   2.338  25.610   2.496  0.0007 -0.0000  0.0553
 3511SAP2   PO442569   2.157  25.258   2.697  0.1485  0.3015  0.1208
 3511SAP2    P442570   2.585  25.745   2.109  0.2638  0.0987 -0.2332
 3511SAP2    P542571   2.047  25.737   2.168 -0.0077  0.4095  0.0357
 3511SAP2   GL142572   2.405  25.089   2.860 -0.0550  0.0617 -0.3071
 3511SAP2   GL242573   2.358  24.847   3.072  0.0509  0.1898 -0.0526
 3511SAP2   D1A42574   2.615  25.159   3.288  0.0593  0.3213 -0.0076
 3511SAP2   D2A42575   2.962  24.920   3.541 -0.0804  0.1566  0.3477
 3511SAP2   D3A42576   3.215  24.533   3.388 -0.4659  0.1563 -0.2341
 3511SAP2   D4A42577   3.583  24.825   3.500 -0.0129 -0.0169  0.2462
 3511SAP2   C5A42578   3.714  24.761   3.933  0.1210  0.3545  0.3707
 3511SAP2   C1B42579   2.387  24.424   2.934 -0.2518 -0.4131  0.1645
 3511SAP2   C2B42580   2.575  24.129   2.653  0.0363 -0.0533  0.0762
 3511SAP2   C3B42581   2.724  23.852   2.416  0.1423 -0.0006  0.5277
 3511SAP2   C4B42582   2.738  23.806   1.954 -0.1357  0.4065 -0.1469
 3512SAP2    C142583   2.167   4.917   2.726  0.0500  0.2075  0.1160
 3512SAP2    C242584   2.381   4.821   2.578 -0.0192 -0.0107  0.1539
 3512SAP2    C342585   2.247   5.128   2.549  0.0295 -0.0157 -0.1675
 3512SAP2    C442586   2.265   4.955   2.618  0.0007 -0.0000  0.0553
 3512SAP2   PO442587   2.222   4.778   3.072 -0.0354 -0.1322  0.2923
 3512SAP2    P442588   2.428   5.271   2.345 -0.0049  0.0780 -0.1774
 3512SAP2    P542589   2.527   4.820   2.349  0.0554 -0.2657  0.3781
 3512SAP2   GL142590   2.349   4.963   3.274 -0.2903  0.1206  0.1483
 3512SAP2   GL242591   2.159   5.074   3.476  0.1247  0.0818  0.0582
 3512SAP2   D1A42592   2.476   5.395   3.343 -0.0881 -0.2491  0.0098
 3512SAP2   D2A42593   2.691   5.601   3.726  0.0483  0.0173  0.1209
 3512SAP2   D3A42594   2.429   5.342   4.022 -0.0776  0.0168 -0.3425
 3512SAP2   D4A42595   2.521   5.390   4.472 -0.1093  0.1046 -0.2244
 3512SAP2   C5A42596   2.605   5.455   4.877 -0.0025 -0.0414  0.1109
 3512SAP2   C1B42597   2.021   5.003   3.930  0.2872  0.0896  0.0347
 3512SAP2   C2B42598   1.988   4.954   4.397 -0.0022 -0.1308  0.0423
 3512SAP2   C3B42599   1.930   4.982   4.866 -0.1379  0.1649 -0.0701
 3512SAP2   C4B42600   1.794   5.143   5.310  0.1527 -0.0566  0.2858
 3513SAP2    C142601   7.108   9.804   2.856  0.0412  0.0477  0.1573
 3513SAP2    C242602   6.969   9.893   2.634  0.0046  0.1012  0.2014
 3513SAP2    C342603   6.838   9.848   2.940  0.0211 -0.1107  0.1789
 3513SAP2    C442604   6.971   9.849   2.810  0.0007 -0.0000  0.0553
 3513SAP2   PO442605   7.388   9.954   2.802 -0.0665  0.2987  0.0119
 3513SAP2    P442606   6.561   9.876   2.785 -0.1884  0.1714 -0.1392
 3513SAP2    P542607   6.789   9.868   2.361  0.1727  0.0135  0.0654
 3513SAP2   GL142608   7.540  10.224   3.046 -0.0172 -0.0274  0.1548
 3513SAP2   GL242609   7.776  10.119   3.163  0.0078  0.0298 -0.2209
 3513SAP2   D1A42610   7.642  10.628   3.223 -0.0223  0.0189  0.0021
 3513SAP2   D2A42611   8.110  10.573   3.277  0.1089 -0.4952  0.1788
 3513SAP2   D3A42612   7.978  11.012   3.238 -0.1236  0.0555 -0.2517
 3513SAP2   D4A42613   7.894  11.035   3.689 -0.1424 -0.0269 -0.1664
 3513SAP2   C5A42614   7.830  10.582   3.714  0.1767 -0.2203 -0.1038
 3513SAP2   C1B42615   8.225  10.091   3.249 -0.1049 -0.0839  0.1429
 3513SAP2   C2B42616   8.656  10.041   3.452  0.5009 -0.0926  0.2425
 3513SAP2   C3B42617   8.975  10.203   3.640 -0.2350  0.2046 -0.0466
 3513SAP2   C4B42618   9.369  10.057   3.858  0.2026 -0.0819  0.0927
 3514SAP2    C142619  13.079  13.097   3.332  0.2349 -0.1302  0.1299
 3514SAP2    C242620  13.322  12.970   3.291  0.2374 -0.0295 -0.1948
 3514SAP2    C342621  13.160  13.157   3.063 -0.0122  0.1339  0.1100
 3514SAP2    C442622  13.187  13.075   3.229  0.0007 -0.0000  0.0553
 3514SAP2   PO442623  12.995  13.259   3.644 -0.1733 -0.5438  0.0610
 3514SAP2    P442624  13.324  13.118   2.856  0.1875 -0.0066 -0.0541
 3514SAP2    P542625  13.355  12.736   3.187  0.0874 -0.1090 -0.1772
 3514SAP2   GL142626  12.813  13.287   3.858  0.3268 -0.0535  0.0650
 3514SAP2   GL242627  12.692  13.057   3.928 -0.1136 -0.0566  0.0997
 3514SAP2   D1A42628  12.434  13.558   3.957 -0.0690 -0.1874  0.2402
 3514SAP2   D2A42629  12.740  13.918   4.185 -0.1152 -0.1306  0.0670
 3514SAP2   D3A42630  12.918  13.569   4.391  0.1884 -0.2158  0.3231
 3514SAP2   D4A42631  12.770  13.702   4.820  0.0270 -0.0629 -0.3420
 3514SAP2   C5A42632  12.717  14.042   4.658 -0.0854  0.1299  0.0515
 3514SAP2   C1B42633  12.592  13.135   4.338  0.3277  0.1712  0.0036
 3514SAP2   C2B42634  12.460  13.191   4.794  0.0853  0.2368 -0.2110
 3514SAP2   C3B42635  12.599  13.353   5.206  0.0594 -0.0048  0.0945
 3514SAP2   C4B42636  12.933  13.288   5.544 -0.1357 -0.1804 -0.0439
 3515SAP2    C142637   7.025  31.717   2.478 -0.0246  0.1888 -0.1326
 3515SAP2    C242638   7.086  31.462   2.388  0.1121  0.0943  0.2109
 3515SAP2    C342639   6.972  31.714   2.196  0.3127 -0.1180 -0.2003
 3515SAP2    C442640   7.028  31.631   2.354  0.0007 -0.0000  0.0553
 3515SAP2   PO442641   7.333  31.784   2.602 -0.0652 -0.2487 -0.3636
 3515SAP2    P442642   7.027  31.589   1.899 -0.0744 -0.0778  0.1760
 3515SAP2    P542643   6.970  31.275   2.212  0.1494  0.1149 -0.0210
 3515SAP2   GL142644   7.274  31.900   2.906 -0.2330  0.0897  0.3500
 3515SAP2   GL242645   7.174  32.132   2.950 -0.1400 -0.1925  0.0683
 3515SAP2   D1A42646   7.174  31.839   3.386 -0.1793  0.2131  0.3079
 3515SAP2   D2A42647   7.172  31.496   3.049  0.2696 -0.1128 -0.2401
 3515SAP2   D3A42648   6.801  31.382   3.341 -0.1809 -0.0135 -0.2367
 3515SAP2   D4A42649   7.139  31.378   3.711 -0.0989 -0.1343 -0.2699
 3515SAP2   C5A42650   6.919  31.342   4.100  0.1527  0.1401 -0.1771
 3515SAP2   C1B42651   7.181  32.320   3.328 -0.3890 -0.0879 -0.3973
 3515SAP2   C2B42652   7.204  32.431   3.782 -0.3126 -0.1172  0.0752
 3515SAP2   C3B42653   7.188  32.807   4.050 -0.4546  0.2399 -0.1091
 3515SAP2   C4B42654   6.947  32.999   4.416  0.0469  0.0676  0.0662
 3516SAP2    C142655   5.361   8.132   3.340  0.3007  0.0726 -0.1155
 3516SAP2    C242656   5.327   8.353   3.176  0.0555  0.1310  0.0088
 3516SAP2    C342657   5.334   8.034   3.072  0.1308  0.1796 -0.1391
 3516SAP2    C442658   5.341   8.173   3.196  0.0007 -0.0000  0.0553
 3516SAP2   PO442659   5.169   8.229   3.627  0.1136 -0.1971  0.4624
 3516SAP2    P442660   5.293   8.019   2.764 -0.2873  0.0736 -0.0448
 3516SAP2    P542661   5.424   8.549   2.917 -0.2248 -0.0846  0.1469
 3516SAP2   GL142662   5.326   8.231   3.861  0.1430  0.0040 -0.0657
 3516SAP2   GL242663   5.297   8.539   3.919  0.4371 -0.2282 -0.1384
 3516SAP2   D1A42664   5.147   8.051   4.258 -0.1232  0.2207 -0.2815
 3516SAP2   D2A42665   5.064   7.940   4.696  0.0741  0.2946 -0.2380
 3516SAP2   D3A42666   5.083   8.064   5.091 -0.0201 -0.3489 -0.1874
 3516SAP2   D4A42667   5.094   8.436   4.818 -0.1658 -0.0602  0.2640
 3516SAP2   C5A42668   5.451   8.470   5.108  0.1361  0.1285 -0.0307
 3516SAP2   C1B42669   5.290   8.553   4.363  0.0343 -0.3902  0.0778
 3516SAP2   C2B42670   5.506   8.209   4.620 -0.0029  0.2792  0.0694
 3516SAP2   C3B42671   5.738   8.028   4.927 -0.2280  0.1345 -0.0025
 3516SAP2   C4B42672   6.028   7.776   5.140  0.0716  0.0616 -0.0668
 3517SAP2    C142673   5.991  18.301   3.008  0.0097  0.0174 -0.0006
 3517SAP2    C242674   6.073  18.291   2.743  0.0208  0.0076  0.0032
 3517SAP2    C342675   6.004  18.572   2.914  0.0365  0.0152 -0.0032
 3517SAP2    C442676   6.023  18.388   2.888  0.0007 -0.0000  0.0553
 3517SAP2   PO442677   6.169  18.070   3.152 -0.0318 -0.0009  0.1085
 3517SAP2    P442678   6.132  18.778   2.702  0.3023  0.1738 -0.3072
 3517SAP2    P542679   5.843  18.357   2.541 -0.0540  0.0036 -0.0393
 3517SAP2   GL142680   6.178  18.063   3.417 -0.4494 -0.0018 -0.3352
 3517SAP2   GL242681   6.354  17.808   3.571  0.1307  0.0094 -0.3681
 3517SAP2   D1A42682   6.032  18.392   3.733 -0.2535 -0.0595  0.2699
 3517SAP2   D2A42683   5.657  18.176   3.853 -0.2157  0.1335  0.0269
 3517SAP2   D3A42684   5.535  18.410   4.249 -0.0251 -0.0297  0.0478
 3517SAP2   D4A42685   5.269  18.032   4.327  0.0117 -0.0163 -0.0387
 3517SAP2   C5A42686   4.882  17.818   4.246 -0.2550 -0.0796  0.1949
 3517SAP2   C1B42687   6.119  17.945   3.946 -0.0686  0.2447  0.1986
 3517SAP2   C2B42688   5.764  17.910   4.283 -0.0058 -0.0301 -0.1680
 3517SAP2   C3B42689   5.623  18.046   4.697  0.0455  0.0944 -0.2621
 3517SAP2   C4B42690   5.335  18.371   4.870  0.0366  0.2561  0.3205
 3518SAP2    C142691   6.040  16.213   3.008 -0.0634  0.0630  0.1220
 3518SAP2    C242692   5.880  16.325   2.812  0.2691  0.0350 -0.1754
 3518SAP2    C342693   5.910  15.996   2.873 -0.0113  0.0538  0.0862
 3518SAP2    C442694   5.943  16.178   2.897  0.0007 -0.0000  0.0553
 3518SAP2   PO442695   6.065  16.444   3.213 -0.0083 -0.1256  0.0371
 3518SAP2    P442696   5.674  15.890   2.682  0.0574  0.0523 -0.2069
 3518SAP2    P542697   5.944  16.345   2.473 -0.0711  0.3170  0.3012
 3518SAP2   GL142698   5.946  16.500   3.468 -0.1223 -0.3440  0.3579
 3518SAP2   GL242699   5.768  16.587   3.672  0.0210 -0.1223 -0.0725
 3518SAP2   D1A42700   6.348  16.451   3.737  0.2729 -0.2208  0.3998
 3518SAP2   D2A42701   6.355  16.939   3.904  0.1852 -0.1523 -0.1454
 3518SAP2   D3A42702   5.885  17.003   3.900  0.2009  0.1302  0.1482
 3518SAP2   D4A42703   6.049  16.649   4.109 -0.1137 -0.1918 -0.1171
 3518SAP2   C5A42704   5.710  16.387   4.201  0.2208 -0.1976 -0.0110
 3518SAP2   C1B42705   5.394  16.401   3.838 -0.2438  0.1998  0.3386
 3518SAP2   C2B42706   5.161  16.482   4.177 -0.1123 -0.0101  0.1228
 3518SAP2   C3B42707   5.055  16.680   4.524 -0.2343  0.0121 -0.2048
 3518SAP2   C4B42708   4.879  16.743   4.896  0.1225 -0.0413 -0.1989
 3519SAP2    C142709  14.890   6.581   3.539  0.0088  0.0846  0.0393
 3519SAP2    C242710  15.032   6.372   3.426  0.3341  0.3618 -0.0855
 3519SAP2    C342711  14.770   6.528   3.284  0.0507  0.0113  0.0347
 3519SAP2    C442712  14.897   6.494   3.416  0.0007 -0.0000  0.0553
 3519SAP2   PO442713  15.079   6.782   3.636 -0.0142 -0.1268 -0.1406
 3519SAP2    P442714  14.616   6.452   3.039  0.0138  0.0937 -0.1822
 3519SAP2    P542715  14.967   6.056   3.342  0.1999  0.2018  0.0300
 3519SAP2   GL142716  15.109   6.801   3.995  0.0724 -0.0731  0.1986
 3519SAP2   GL242717  15.401   6.741   4.050 -0.2027  0.2235  0.0852
 3519SAP2   D1A42718  15.106   6.940   4.407  0.0483  0.0257  0.0168
 3519SAP2   D2A42719  14.915   6.595   4.615 -0.0926  0.1270  0.0967
 3519SAP2   D3A42720  14.718   6.179   4.532 -0.1396 -0.2090  0.2671
 3519SAP2   D4A42721  14.838   5.960   4.913  0.2471 -0.2082  0.0863
 3519SAP2   C5A42722  15.134   6.274   4.936  0.0682  0.0960 -0.3646
 3519SAP2   C1B42723  15.572   6.881   4.464  0.3151 -0.1772  0.2618
 3519SAP2   C2B42724  15.850   6.845   4.808  0.0131 -0.0433 -0.1460
 3519SAP2   C3B42725  16.096   6.541   5.039 -0.1453  0.4134 -0.1296
 3519SAP2   C4B42726  16.193   6.219   5.330 -0.0778 -0.0392 -0.0213
 3520SAP2    C142727   1.764  26.014   3.071 -0.0978 -0.0636  0.1140
 3520SAP2    C242728   1.743  26.209   2.875 -0.0280 -0.0761  0.0936
 3520SAP2    C342729   1.497  25.999   2.967 -0.1475  0.1107  0.2106
 3520SAP2    C442730   1.668  26.074   2.971  0.0007 -0.0000  0.0553
 3520SAP2   PO442731   1.927  26.209   3.326 -0.0902  0.1662 -0.2148
 3520SAP2    P442732   1.243  26.129   2.890  0.2703 -0.0229  0.0372
 3520SAP2    P542733   1.618  26.307   2.615  0.3446 -0.1190  0.2783
 3520SAP2   GL142734   1.959  26.171   3.608 -0.0816  0.2086 -0.1569
 3520SAP2   GL242735   1.887  25.971   3.713  0.0640  0.2090 -0.1404
 3520SAP2   D1A42736   2.206  26.288   3.980 -0.1406  0.3226  0.0732
 3520SAP2   D2A42737   2.227  26.768   3.925 -0.0288  0.1690 -0.3051
 3520SAP2   D3A42738   2.364  26.665   4.322  0.0571  0.0823  0.2096
 3520SAP2   D4A42739   2.484  26.625   4.763 -0.0037  0.1303  0.1893
 3520SAP2   C5A42740   2.113  26.625   4.987  0.0311 -0.0966 -0.1390
 3520SAP2   C1B42741   2.042  25.797   4.138  0.0689  0.1140 -0.2002
 3520SAP2   C2B42742   2.078  25.817   4.613 -0.3675 -0.0070 -0.0873
 3520SAP2   C3B42743   1.914  25.594   4.963 -0.1889 -0.1846  0.1127
 3520SAP2   C4B42744   2.098  25.288   5.262 -0.2181 -0.1164 -0.0949
 3521SAP2    C142745   2.523  22.703   2.483  0.0106  0.4833 -0.3675
 3521SAP2    C242746   2.667  22.534   2.318  0.1399  0.2025  0.0170
 3521SAP2    C342747   2.800  22.756   2.532 -0.0178  0.3683 -0.0547
 3521SAP2    C442748   2.664  22.664   2.444  0.0007 -0.0000  0.0553
 3521SAP2   PO442749   2.308  22.493   2.645 -0.1232  0.0275  0.0938
 3521SAP2    P442750   3.095  22.723   2.440 -0.4700 -0.0363  0.3379
 3521SAP2    P542751   2.799  22.612   2.025  0.0469  0.1010  0.0726
 3521SAP2   GL142752   2.126  22.751   2.896  0.1468 -0.0229 -0.2396
 3521SAP2   GL242753   2.399  22.800   3.014  0.1279  0.0862 -0.0192
 3521SAP2   D1A42754   1.833  23.137   2.932 -0.0518  0.2121 -0.2251
 3521SAP2   D2A42755   1.602  23.170   3.349  0.0795  0.0498  0.1400
 3521SAP2   D3A42756   1.319  22.941   3.560  0.0984 -0.1572  0.0912
 3521SAP2   D4A42757   1.053  22.608   3.519 -0.0240  0.0608  0.0603
 3521SAP2   C5A42758   0.702  22.436   3.725 -0.0684 -0.2406 -0.3258
 3521SAP2   C1B42759   2.002  22.771   3.301 -0.2653  0.1088 -0.1925
 3521SAP2   C2B42760   1.823  22.868   3.706  0.5330  0.1240  0.2664
 3521SAP2   C3B42761   1.788  23.061   4.113 -0.0442  0.3199  0.1467
 3521SAP2   C4B42762   1.532  23.364   4.355  0.3479  0.0647  0.2883
 3522SAP2    C142763  12.100  11.777   3.516  0.3047 -0.1644  0.1751
 3522SAP2    C242764  12.323  11.911   3.422  0.2085  0.0183  0.2036
 3522SAP2    C342765  12.044  11.851   3.245  0.1956 -0.0178  0.2361
 3522SAP2    C442766  12.156  11.846   3.394  0.0007 -0.0000  0.0553
 3522SAP2   PO442767  12.057  11.937   3.813  0.0600 -0.0005  0.0243
 3522SAP2    P442768  12.092  11.859   2.923  0.1025 -0.5554  0.1254
 3522SAP2    P542769  12.518  11.791   3.136  0.1676  0.1045 -0.0340
 3522SAP2   GL142770  11.857  11.834   4.152  0.3428  0.3092  0.0267
 3522SAP2   GL242771  11.753  12.039   4.025  0.2474 -0.2476  0.1611
 3522SAP2   D1A42772  12.159  12.140   4.293 -0.0890  0.0878 -0.0921
 3522SAP2   D2A42773  11.939  12.482   4.168  0.2865 -0.0103 -0.0412
 3522SAP2   D3A42774  12.128  12.879   4.128 -0.0992 -0.4178 -0.1061
 3522SAP2   D4A42775  11.786  13.119   4.037 -0.2134  0.0560  0.2794
 3522SAP2   C5A42776  12.041  13.371   4.299 -0.0034 -0.3860 -0.0636
 3522SAP2   C1B42777  11.627  12.080   4.483 -0.1026 -0.2113 -0.1208
 3522SAP2   C2B42778  11.699  12.150   4.939 -0.0749  0.2572 -0.2066
 3522SAP2   C3B42779  11.443  12.376   5.273 -0.2156 -0.2260  0.1277
 3522SAP2   C4B42780  11.322  12.301   5.713  0.2274 -0.2839  0.0823
 3523SAP2    C142781  14.996  29.298   2.048 -0.2537  0.0360  0.2725
 3523SAP2    C242782  15.087  29.433   1.824 -0.2269 -0.2884  0.0816
 3523SAP2    C342783  15.253  29.404   2.115 -0.1714 -0.0349  0.0768
 3523SAP2    C442784  15.112  29.378   1.996  0.0007 -0.0000  0.0553
 3523SAP2   PO442785  14.839  29.067   1.948 -0.2199 -0.0213 -0.0972
 3523SAP2    P442786  15.492  29.474   2.097  0.2000  0.3542 -0.3583
 3523SAP2    P542787  15.108  29.686   1.737 -0.0843  0.1117  0.2238
 3523SAP2   GL142788  14.762  28.874   2.222  0.1665  0.1522  0.4612
 3523SAP2   GL242789  14.832  29.124   2.459 -0.3035  0.1323  0.1383
 3523SAP2   D1A42790  14.877  28.617   2.607  0.0490 -0.2179  0.2299
 3523SAP2   D2A42791  14.685  28.460   2.933 -0.1265  0.3277  0.2686
 3523SAP2   D3A42792  14.796  28.839   3.113 -0.0450 -0.2798  0.2781
 3523SAP2   D4A42793  14.878  28.536   3.443  0.1379 -0.0198 -0.1729
 3523SAP2   C5A42794  15.194  28.339   3.650 -0.0312 -0.0053 -0.1411
 3523SAP2   C1B42795  14.432  29.298   2.727 -0.3171 -0.0304 -0.1304
 3523SAP2   C2B42796  14.067  29.145   2.632 -0.0126  0.1520 -0.1239
 3523SAP2   C3B42797  13.870  28.786   2.817  0.1560 -0.0466 -0.3269
 3523SAP2   C4B42798  13.503  28.596   2.915  0.1908 -0.0869  0.0136
 3524SAP2    C142799   0.912  23.743   2.716 -0.3633 -0.0254 -0.1402
 3524SAP2    C242800   0.715  23.617   2.568 -0.0779 -0.1046 -0.4655
 3524SAP2    C342801   1.045  23.566   2.535  0.0115  0.1546 -0.0505
 3524SAP2    C442802   0.891  23.642   2.607  0.0007 -0.0000  0.0553
 3524SAP2   PO442803   0.763  23.801   3.047 -0.0009 -0.0532  0.1992
 3524SAP2    P442804   1.113  23.384   2.203 -0.0981  0.1112 -0.1360
 3524SAP2    P542805   0.708  23.730   2.281 -0.1223 -0.3158  0.3008
 3524SAP2   GL142806   0.887  23.912   3.283 -0.0168  0.0855 -0.1890
 3524SAP2   GL242807   0.836  23.977   3.518  0.1463 -0.0496  0.1078
 3524SAP2   D1A42808   0.992  23.435   3.291 -0.3397 -0.2691  0.0620
 3524SAP2   D2A42809   1.295  23.742   3.493 -0.1154  0.0477  0.2848
 3524SAP2   D3A42810   1.270  24.119   3.760 -0.3948 -0.0681  0.1355
 3524SAP2   D4A42811   1.324  23.749   4.011 -0.0771  0.1462  0.3736
 3524SAP2   C5A42812   1.541  23.408   3.795  0.1867 -0.1016  0.2423
 3524SAP2   C1B42813   0.751  23.909   3.985  0.2508  0.0393 -0.0740
 3524SAP2   C2B42814   0.792  23.662   4.369  0.1338 -0.0805  0.2222
 3524SAP2   C3B42815   1.090  23.410   4.687 -0.0809 -0.3907  0.4392
 3524SAP2   C4B42816   1.476  23.260   4.866  0.1843 -0.0262 -0.0477
  15.87085  31.74160  22.99398
