INSANE!
49776 
    1POPC   NC3    1  16.117  14.989   8.198 -0.0333  0.2043 -0.2698
    1POPC   PO4    2  15.793  14.807   8.326  0.0507  0.0228  0.0627
    1POPC   GL1    3  15.855  14.662   7.940  0.2574  0.0669  0.1040
    1POPC   GL2    4  15.601  14.625   7.733 -0.0187 -0.1495  0.0398
    1POPC   C1A    5  15.983  14.925   7.574  0.0323 -0.1708 -0.2789
    1POPC   D2A    6  16.116  14.939   7.145  0.0807 -0.3867  0.0707
    1POPC   C3A    7  15.962  14.613   6.926  0.0303 -0.0814  0.1687
    1POPC   C4A    8  15.870  14.519   6.450 -0.0920  0.3767 -0.0696
    1POPC   C1B    9  15.550  14.581   7.259  0.0665  0.1880 -0.4758
    1POPC   C2B   10  15.462  14.837   6.870 -0.1230  0.2273 -0.0271
    1POPC   C3B   11  15.369  14.900   6.440  0.0870 -0.0888 -0.2231
    1POPC   C4B   12  15.528  15.192   6.111 -0.1225  0.0441  0.0075
    2POPC   NC3   13   4.755   3.166  14.003 -0.5033 -0.0053 -0.2977
    2POPC   PO4   14   4.737   2.831  14.230  0.0114 -0.0182  0.1429
    2POPC   GL1   15   4.845   3.169  14.499 -0.1135 -0.0436  0.1421
    2POPC   GL2   16   5.140   3.125  14.384 -0.1245  0.1227 -0.0574
    2POPC   C1A   17   5.157   3.508  14.659 -0.1538 -0.0901  0.0560
    2POPC   D2A   18   5.417   3.536  14.997 -0.0765 -0.1276  0.0439
    2POPC   C3A   19   5.634   3.725  15.372  0.0368  0.2619 -0.0611
    2POPC   C4A   20   5.608   3.957  15.781 -0.2180  0.0440  0.0534
    2POPC   C1B   21   5.431   3.075  14.738  0.4319 -0.0010  0.0897
    2POPC   C2B   22   5.761   3.082  15.046  0.0119 -0.0247  0.2321
    2POPC   C3B   23   6.159   3.195  15.225  0.1480  0.1115 -0.0673
    2POPC   C4B   24   6.574   3.321  15.386 -0.1404 -0.0414 -0.2290
    3POPC   NC3   25  14.362  14.582   8.493 -0.0904 -0.2993 -0.0975
    3POPC   PO4   26  13.973  14.633   8.426 -0.0975  0.1983  0.2432
    3POPC   GL1   27  14.152  14.609   8.071 -0.0487 -0.0360  0.2099
    3POPC   GL2   28  13.915  14.702   7.895 -0.1681  0.1149  0.1867
    3POPC   C1A   29  14.289  14.523   7.594 -0.0939 -0.0597  0.3224
    3POPC   D2A   30  14.287  14.710   7.160 -0.0231 -0.4435 -0.0544
    3POPC   C3A   31  14.056  14.696   6.741  0.2617 -0.0669  0.0126
    3POPC   C4A   32  13.889  14.855   6.325  0.3599  0.0293 -0.1407
    3POPC   C1B   33  13.809  14.918   7.519  0.2456 -0.0643 -0.0256
    3POPC   C2B   34  13.919  15.038   7.112  0.1073  0.0786 -0.1627
    3POPC   C3B   35  14.069  15.188   6.733 -0.1810 -0.2196 -0.0530
    3POPC   C4B   36  14.007  15.377   6.299 -0.2861  0.0694 -0.0276
    4POPC   NC3   37  10.864  13.542   8.898  0.0152  0.0418  0.4828
    4POPC   PO4   38  10.642  13.317   8.608  0.0254 -0.2234 -0.2075
    4POPC   GL1   39  10.470  13.041   8.388  0.4615 -0.2914 -0.4198
    4POPC   GL2   40  10.739  12.845   8.314 -0.0868  0.3409 -0.2184
    4POPC   C1A   41  10.064  13.115   8.173 -0.3095  0.0533 -0.0504
    4POPC   D2A   42   9.831  13.495   8.035  0.0429  0.0910  0.3954
    4POPC   C3A   43   9.651  13.280   7.669 -0.0047 -0.1667  0.0193
    4POPC   C4A   44   9.467  13.294   7.222  0.1788  0.1738 -0.0324
    4POPC   C1B   45  10.468  12.939   7.962  0.1776 -0.0505 -0.0333
    4POPC   C2B   46  10.093  12.950   7.694 -0.1017  0.1965 -0.2842
    4POPC   C3B   47  10.036  12.799   7.248 -0.4338  0.2974 -0.1922
    4POPC   C4B   48   9.983  12.549   6.845  0.0028 -0.1573 -0.1362
    5POPC   NC3   49   9.755  10.679  12.460 -0.0308  0.2396 -0.2026
    5POPC   PO4   50  10.079  10.554  12.222 -0.1782 -0.3790 -0.2153
    5POPC   GL1   51  10.004  10.134  12.131 -0.0081  0.1749  0.0704
    5POPC   GL2   52  10.163  10.115  11.862  0.1318 -0.0606  0.0112
    5POPC   C1A   53   9.663   9.930  11.863 -0.0196  0.1893  0.2887
    5POPC   D2A   54   9.374   9.579  11.699 -0.0062  0.1300 -0.1359
    5POPC   C3A   55   9.294   9.091  11.547  0.1614  0.1237 -0.1076
    5POPC   C4A   56   9.479   8.693  11.453  0.0635 -0.2642 -0.1114
    5POPC   C1B   57  10.162   9.743  11.541 -0.2132  0.0535 -0.0680
    5POPC   C2B   58   9.826   9.535  11.374  0.3728 -0.1605 -0.0307
    5POPC   C3B   59   9.462   9.333  11.152 -0.2306  0.1847  0.0493
    5POPC   C4B   60   9.333   8.937  10.967  0.1511  0.1317  0.1059
    6POPC   NC3   61  12.507  15.082   8.803 -0.2670  0.0160  0.0395
    6POPC   PO4   62  12.701  15.212   8.502  0.1104 -0.3776  0.0601
    6POPC   GL1   63  12.632  15.225   8.087  0.4103  0.0301  0.0811
    6POPC   GL2   64  12.844  15.140   7.950 -0.2506 -0.0255  0.0433
    6POPC   C1A   65  12.396  14.930   7.839 -0.0689  0.0439 -0.1586
    6POPC   D2A   66  12.039  14.838   7.540 -0.2087 -0.1393 -0.2060
    6POPC   C3A   67  11.974  14.788   7.088 -0.2285  0.0030  0.0078
    6POPC   C4A   68  11.782  14.654   6.706 -0.0145  0.1520 -0.1051
    6POPC   C1B   69  12.715  15.060   7.509  0.1962  0.0021  0.0817
    6POPC   C2B   70  12.424  14.977   7.180  0.1659 -0.1708  0.0740
    6POPC   C3B   71  12.221  15.132   6.769 -0.1059 -0.1711  0.1457
    6POPC   C4B   72  11.984  15.213   6.381  0.3102  0.1167 -0.0198
    7POPC   NC3   73  15.408  11.353   8.600 -0.0603 -0.0181  0.0304
    7POPC   PO4   74  15.111  11.630   8.573  0.1350 -0.2362  0.3559
    7POPC   GL1   75  14.892  11.440   8.373 -0.0715  0.1359 -0.1056
    7POPC   GL2   76  14.635  11.571   8.351 -0.1412 -0.0248  0.0350
    7POPC   C1A   77  14.866  11.436   7.887  0.1492 -0.1523  0.1925
    7POPC   D2A   78  15.025  11.541   7.443 -0.1420 -0.1777 -0.2685
    7POPC   C3A   79  15.245  11.354   7.057  0.0530 -0.1044 -0.0020
    7POPC   C4A   80  15.435  11.313   6.603  0.2287  0.2566 -0.0391
    7POPC   C1B   81  14.202  11.514   8.360  0.1928  0.1868  0.0384
    7POPC   C2B   82  13.970  11.615   7.961  0.1155  0.0482 -0.1720
    7POPC   C3B   83  13.742  11.471   7.544  0.1271 -0.0202 -0.0951
    7POPC   C4B   84  13.915  11.504   7.109  0.2232  0.2528  0.3152
    8POPC   NC3   85   1.883  12.811   8.178 -0.2347 -0.0181 -0.1143
    8POPC   PO4   86   1.533  12.902   8.113  0.0403  0.4276  0.2054
    8POPC   GL1   87   1.392  12.749   7.897  0.3760  0.1257 -0.3001
    8POPC   GL2   88   1.286  12.532   7.730 -0.2353  0.1082  0.0663
    8POPC   C1A   89   1.623  12.878   7.489  0.0580  0.0033 -0.2686
    8POPC   D2A   90   2.016  12.924   7.231 -0.4877  0.1083 -0.1176
    8POPC   C3A   91   2.076  12.679   6.857  0.0535  0.0592  0.3330
    8POPC   C4A   92   2.099  12.188   6.768 -0.0897 -0.2152  0.1420
    8POPC   C1B   93   1.233  12.617   7.278 -0.0548  0.1898  0.0614
    8POPC   C2B   94   1.173  12.613   6.764 -0.0678  0.1506  0.2994
    8POPC   C3B   95   1.153  12.334   6.335  0.1586  0.0781  0.1249
    8POPC   C4B   96   0.908  11.967   6.229 -0.0838  0.1740 -0.1755
    9POPC   NC3   97   6.986   1.185  11.621 -0.0151 -0.2631  0.3720
    9POPC   PO4   98   7.243   1.257  11.308 -0.0393 -0.0649 -0.0961
    9POPC   GL1   99   7.337   1.555  11.206  0.3687 -0.0684 -0.3938
    9POPC   GL2  100   7.215   1.836  11.266  0.2367 -0.1703  0.0363
    9POPC   C1A  101   7.613   1.798  10.995 -0.0577 -0.3011 -0.3291
    9POPC   D2A  102   7.940   1.789  10.738  0.0074 -0.0445  0.1059
    9POPC   C3A  103   8.271   2.097  10.889 -0.1208  0.1801 -0.1191
    9POPC   C4A  104   8.425   2.481  11.056  0.3212 -0.0331 -0.1533
    9POPC   C1B  105   7.346   2.188  10.908  0.0710  0.1044 -0.2246
    9POPC   C2B  106   7.496   2.565  10.714  0.1411 -0.0024 -0.1356
    9POPC   C3B  107   7.530   3.050  10.730  0.1339  0.0664  0.0340
    9POPC   C4B  108   7.935   3.257  10.816 -0.2731  0.0504  0.0424
   10POPC   NC3  109  13.280  11.533   8.878  0.0335  0.0038  0.2506
   10POPC   PO4  110  12.999  11.740   9.015  0.1989 -0.1092  0.0854
   10POPC   GL1  111  12.850  11.483   8.652 -0.2559  0.2051  0.0586
   10POPC   GL2  112  12.844  11.240   8.749  0.1944  0.4582 -0.4064
   10POPC   C1A  113  13.145  11.516   8.280  0.0653  0.0277 -0.4796
   10POPC   D2A  114  13.018  11.523   7.820  0.0273 -0.3162 -0.3799
   10POPC   C3A  115  12.766  11.278   7.519  0.0556 -0.4135 -0.1467
   10POPC   C4A  116  12.371  10.989   7.539  0.2193  0.0478  0.1084
   10POPC   C1B  117  12.683  11.245   8.349 -0.0808  0.4011 -0.2821
   10POPC   C2B  118  12.482  11.283   7.975 -0.1344 -0.0669  0.0513
   10POPC   C3B  119  12.395  11.608   7.694 -0.0159 -0.1597  0.4732
   10POPC   C4B  120  12.245  11.928   7.303 -0.2545 -0.2365  0.1705
   11POPC   NC3  121   4.056  10.994   9.028 -0.1781 -0.1411  0.2268
   11POPC   PO4  122   3.959  11.303   8.822 -0.1316 -0.0554 -0.3315
   11POPC   GL1  123   4.064  11.163   8.381  0.3282  0.2585 -0.0578
   11POPC   GL2  124   4.130  10.887   8.523  0.2236  0.0710  0.0864
   11POPC   C1A  125   3.891  11.256   7.916  0.0540 -0.0895 -0.1379
   11POPC   D2A  126   3.792  11.449   7.515  0.0242  0.1858 -0.0686
   11POPC   C3A  127   4.044  11.286   7.121  0.3440 -0.2523  0.3611
   11POPC   C4A  128   4.228  10.929   6.896 -0.1357  0.0642 -0.2174
   11POPC   C1B  129   3.927  10.796   8.099 -0.2420 -0.2187 -0.1577
   11POPC   C2B  130   3.834  10.858   7.654  0.0085  0.0755  0.0025
   11POPC   C3B  131   3.744  10.876   7.183  0.0577 -0.0535  0.2072
   11POPC   C4B  132   3.799  10.811   6.725  0.1801 -0.0845 -0.0280
   12POPC   NC3  133  15.009  13.918   7.941 -0.0111  0.2579 -0.2713
   12POPC   PO4  134  14.681  13.857   8.124 -0.2409  0.1051  0.0653
   12POPC   GL1  135  14.403  13.892   7.780  0.1318  0.1140 -0.4182
   12POPC   GL2  136  14.432  13.610   7.614  0.0759 -0.1259 -0.2232
   12POPC   C1A  137  14.290  14.029   7.342 -0.0873 -0.0331  0.1047
   12POPC   D2A  138  14.526  13.864   6.977  0.0989 -0.0158  0.1203
   12POPC   C3A  139  14.322  13.541   6.699 -0.1669 -0.0571 -0.2664
   12POPC   C4A  140  14.630  13.208   6.568  0.0479 -0.0155 -0.0346
   12POPC   C1B  141  14.286  13.420   7.209  0.2879 -0.2022  0.1234
   12POPC   C2B  142  14.283  13.086   6.877 -0.0812 -0.2867  0.1870
   12POPC   C3B  143  14.261  12.834   6.472 -0.1813 -0.0058 -0.0709
   12POPC   C4B  144  14.494  12.536   6.139  0.0042 -0.0440  0.0148
   13POPC   NC3  145   0.464  14.391   8.292  0.3441  0.0156  0.1847
   13POPC   PO4  146   0.418  14.356   7.900  0.0694  0.1166  0.1848
   13POPC   GL1  147   0.314  14.474   7.568 -0.3947  0.3900  0.4202
   13POPC   GL2  148   0.154  14.239   7.496 -0.2696  0.0730 -0.0202
   13POPC   C1A  149   0.530  14.497   7.154 -0.2354  0.1999 -0.2390
   13POPC   D2A  150   0.768  14.160   6.944 -0.0973 -0.0269 -0.0051
   13POPC   C3A  151   0.709  13.925   6.524 -0.0564  0.0404 -0.3295
   13POPC   C4A  152   0.740  13.905   6.022  0.2761  0.3187  0.0632
   13POPC   C1B  153   0.054  14.120   7.063 -0.2767 -0.3105  0.0089
   13POPC   C2B  154  -0.142  14.250   6.633 -0.3382 -0.0093  0.2221
   13POPC   C3B  155  -0.292  14.203   6.216 -0.1428 -0.2399 -0.0610
   13POPC   C4B  156  -0.489  13.905   5.880 -0.1429  0.4098 -0.0445
   14POPC   NC3  157   3.797   0.106   9.186 -0.0399  0.2055  0.3338
   14POPC   PO4  158   3.812   0.276   8.819 -0.0484  0.0353 -0.0587
   14POPC   GL1  159   3.700   0.417   8.566 -0.2055  0.1477  0.2720
   14POPC   GL2  160   3.459   0.359   8.379 -0.0585 -0.2578  0.1959
   14POPC   C1A  161   3.721   0.789   8.267  0.0399 -0.4596  0.0564
   14POPC   D2A  162   3.568   1.037   7.837 -0.0246  0.1061 -0.2050
   14POPC   C3A  163   3.567   1.037   7.325 -0.1264 -0.0123 -0.1911
   14POPC   C4A  164   3.745   1.437   7.153 -0.1812 -0.1794 -0.2114
   14POPC   C1B  165   3.654   0.365   8.003 -0.0820  0.2621  0.2680
   14POPC   C2B  166   4.042   0.488   7.715  0.0348  0.1470 -0.1350
   14POPC   C3B  167   4.051   0.748   7.347  0.0025  0.2879 -0.0229
   14POPC   C4B  168   4.013   1.032   7.059 -0.4682  0.2912  0.2810
   15POPC   NC3  169   6.606   1.700  10.252 -0.0214 -0.3057 -0.0602
   15POPC   PO4  170   6.784   1.396  10.361 -0.3444 -0.2005 -0.2902
   15POPC   GL1  171   7.146   1.686  10.341  0.3820  0.5280 -0.0489
   15POPC   GL2  172   7.317   1.750  10.630  0.0213 -0.0884 -0.2693
   15POPC   C1A  173   7.101   2.155  10.401  0.0958 -0.0646 -0.1477
   15POPC   D2A  174   7.105   2.561  10.265 -0.0586  0.1415  0.0490
   15POPC   C3A  175   7.459   2.932  10.158  0.0953  0.0093  0.0833
   15POPC   C4A  176   7.878   3.072  10.010 -0.3332 -0.1287  0.0585
   15POPC   C1B  177   7.576   2.068  10.503  0.2370 -0.0348  0.3724
   15POPC   C2B  178   7.985   2.238  10.379 -0.0131  0.1592 -0.0517
   15POPC   C3B  179   8.377   2.483  10.576  0.3348  0.0160 -0.0922
   15POPC   C4B  180   8.506   2.886  10.563 -0.2341  0.1724 -0.2455
   16POPC   NC3  181  16.153   2.410  15.104 -0.0131  0.1529 -0.3623
   16POPC   PO4  182  15.977   2.675  15.368 -0.0491 -0.2454 -0.0201
   16POPC   GL1  183  15.993   2.687  15.736  0.0052  0.1879  0.2323
   16POPC   GL2  184  15.810   2.935  15.862  0.3408  0.0657  0.0790
   16POPC   C1A  185  15.792   2.401  16.053 -0.1068  0.0839 -0.2532
   16POPC   D2A  186  15.515   2.456  16.422  0.0414 -0.2228  0.4842
   16POPC   C3A  187  15.595   2.702  16.782  0.0159  0.0720  0.1137
   16POPC   C4A  188  15.764   2.922  17.094 -0.2726 -0.0550  0.0394
   16POPC   C1B  189  15.828   2.882  16.340 -0.0096 -0.1108  0.0549
   16POPC   C2B  190  15.629   3.182  16.632 -0.1834 -0.1058 -0.2127
   16POPC   C3B  191  15.352   3.392  16.893  0.2367 -0.0138  0.1806
   16POPC   C4B  192  15.236   3.669  17.257 -0.2455  0.1708  0.1738
   17POPC   NC3  193   9.979  16.619  10.059  0.4659  0.0836  0.0537
   17POPC   PO4  194  10.186  16.457   9.780  0.1117  0.0673  0.2525
   17POPC   GL1  195  10.222  16.634   9.402  0.2331  0.0236 -0.2918
   17POPC   GL2  196  10.469  16.579   9.223 -0.1063 -0.0487  0.0026
   17POPC   C1A  197   9.798  16.696   9.223 -0.2143  0.0586  0.3468
   17POPC   D2A  198   9.506  16.635   8.882 -0.2881  0.0490 -0.1581
   17POPC   C3A  199   9.502  17.003   8.523 -0.1507 -0.0410  0.0575
   17POPC   C4A  200   9.599  17.183   8.065 -0.2815 -0.3207 -0.3895
   17POPC   C1B  201  10.316  17.013   9.109  0.1215  0.1109  0.1457
   17POPC   C2B  202  10.260  17.364   8.781 -0.1900 -0.4070 -0.2530
   17POPC   C3B  203   9.973  17.647   8.578  0.0698 -0.0511 -0.0133
   17POPC   C4B  204   9.553  17.643   8.436  0.1626 -0.0297 -0.0613
   18POPC   NC3  205   3.624   5.350   9.949 -0.0160 -0.0768  0.1055
   18POPC   PO4  206   3.956   5.579   9.871 -0.0134 -0.0192  0.1303
   18POPC   GL1  207   3.949   5.549   9.429  0.2580 -0.0125  0.0771
   18POPC   GL2  208   4.217   5.537   9.346  0.0049  0.0756 -0.0769
   18POPC   C1A  209   3.767   5.764   9.046 -0.0901 -0.4116 -0.0809
   18POPC   D2A  210   3.442   5.982   8.877  0.1855 -0.1679 -0.0855
   18POPC   C3A  211   3.420   6.264   8.475  0.1557  0.0534 -0.2555
   18POPC   C4A  212   3.377   6.377   8.088 -0.0143  0.5081  0.1708
   18POPC   C1B  213   4.115   5.325   8.945  0.1776  0.0509  0.0479
   18POPC   C2B  214   4.140   4.861   8.775 -0.1520  0.1548  0.0094
   18POPC   C3B  215   3.959   4.557   8.415  0.0253 -0.1295  0.3439
   18POPC   C4B  216   3.609   4.556   8.082  0.0028  0.2647 -0.2858
   19POPC   NC3  217  12.568  11.510   9.564  0.0506 -0.0025  0.3229
   19POPC   PO4  218  12.520  11.508   9.171 -0.3226 -0.0338 -0.1260
   19POPC   GL1  219  12.415  11.362   8.789  0.2467  0.2195  0.3959
   19POPC   GL2  220  12.160  11.333   8.780  0.0020 -0.2155 -0.0159
   19POPC   C1A  221  12.405  11.695   8.491 -0.2416  0.1590 -0.0767
   19POPC   D2A  222  12.716  11.732   8.144  0.1213 -0.4250 -0.0722
   19POPC   C3A  223  13.031  12.049   8.050 -0.2661  0.3175 -0.1829
   19POPC   C4A  224  13.261  12.381   7.882  0.3258 -0.3599 -0.2547
   19POPC   C1B  225  12.186  11.158   8.406  0.2048 -0.3155  0.0541
   19POPC   C2B  226  12.133  10.685   8.338  0.0780  0.2262 -0.0729
   19POPC   C3B  227  11.736  10.454   8.168  0.0858 -0.3762  0.0658
   19POPC   C4B  228  11.529  10.324   7.853  0.0955 -0.1756 -0.0571
   20POPC   NC3  229   4.431   4.827  10.273  0.1100 -0.1401 -0.2410
   20POPC   PO4  230   4.682   4.879  10.566  0.1761  0.0569 -0.1844
   20POPC   GL1  231   4.880   5.143  10.379 -0.2053  0.1535 -0.0459
   20POPC   GL2  232   4.997   5.363  10.421 -0.1270  0.0713  0.2595
   20POPC   C1A  233   5.016   5.206   9.961  0.0290  0.0989  0.1435
   20POPC   D2A  234   5.215   5.195   9.569  0.2124  0.4502  0.1624
   20POPC   C3A  235   5.032   5.103   9.109  0.0692 -0.1805  0.0233
   20POPC   C4A  236   5.074   4.971   8.649  0.2202 -0.0490 -0.1116
   20POPC   C1B  237   5.334   5.547  10.125 -0.1147  0.1522 -0.0783
   20POPC   C2B  238   5.756   5.692  10.052  0.0068 -0.0806  0.2999
   20POPC   C3B  239   6.154   5.689   9.849 -0.2375 -0.0054  0.2535
   20POPC   C4B  240   6.450   5.845   9.523 -0.1531  0.0272  0.1790
   21POPC   NC3  241  14.419   3.858  10.214  0.0065  0.0740  0.2437
   21POPC   PO4  242  14.629   3.511  10.199  0.0478  0.2685  0.2813
   21POPC   GL1  243  14.482   3.471   9.834 -0.3156 -0.0718 -0.0836
   21POPC   GL2  244  14.247   3.661   9.789 -0.0277  0.3661  0.2691
   21POPC   C1A  245  14.625   3.522   9.411  0.1057 -0.0669 -0.1914
   21POPC   D2A  246  14.690   3.546   8.956 -0.0132 -0.0324  0.0579
   21POPC   C3A  247  14.294   3.714   8.788 -0.0932 -0.0189 -0.0906
   21POPC   C4A  248  13.997   3.979   8.521  0.1803 -0.1103 -0.2386
   21POPC   C1B  249  14.165   3.764   9.308 -0.2410  0.1243  0.0528
   21POPC   C2B  250  13.873   4.054   9.023 -0.2864  0.3873 -0.1900
   21POPC   C3B  251  13.483   4.306   8.835 -0.1149  0.1443 -0.3230
   21POPC   C4B  252  13.384   4.728   8.783  0.2393 -0.0399  0.3518
   22POPC   NC3  253   1.310   4.102  15.163  0.2594 -0.1344  0.1674
   22POPC   PO4  254   1.076   4.276  15.401 -0.2207  0.2802  0.1264
   22POPC   GL1  255   1.031   4.393  15.786  0.1122 -0.0602 -0.1450
   22POPC   GL2  256   0.712   4.272  15.859  0.1538  0.2903  0.3315
   22POPC   C1A  257   0.879   4.586  16.207 -0.0222  0.2629 -0.0157
   22POPC   D2A  258   1.022   4.405  16.596 -0.2977  0.3605 -0.2841
   22POPC   C3A  259   0.975   4.475  17.054  0.0004  0.1830  0.0039
   22POPC   C4A  260   0.939   4.444  17.510  0.3195  0.1845 -0.0598
   22POPC   C1B  261   0.616   4.236  16.342  0.2444  0.1466 -0.0779
   22POPC   C2B  262   0.574   4.288  16.830 -0.0938  0.1377  0.0220
   22POPC   C3B  263   0.675   4.023  17.228  0.1246  0.0903  0.0934
   22POPC   C4B  264   0.494   4.232  17.608  0.1408  0.1161  0.3066
   23POPC   NC3  265  13.654   3.123  10.785  0.2324  0.1242 -0.4209
   23POPC   PO4  266  13.934   3.127  10.488 -0.0087  0.1104  0.0075
   23POPC   GL1  267  13.841   3.360  10.147  0.1226 -0.0333 -0.0768
   23POPC   GL2  268  13.571   3.220  10.134  0.2153  0.0230  0.1566
   23POPC   C1A  269  13.807   3.192   9.704 -0.1862  0.2523  0.2567
   23POPC   D2A  270  13.916   3.166   9.302 -0.1757 -0.3589 -0.2292
   23POPC   C3A  271  13.769   3.420   8.907  0.1729 -0.0773  0.0066
   23POPC   C4A  272  13.771   3.489   8.412  0.1005 -0.1056  0.1970
   23POPC   C1B  273  13.154   3.443  10.036  0.2288 -0.0693  0.1390
   23POPC   C2B  274  13.064   3.761   9.620  0.0320  0.0620  0.1030
   23POPC   C3B  275  12.894   4.044   9.301  0.1478 -0.1104 -0.0639
   23POPC   C4B  276  12.591   4.289   9.042  0.1651  0.1062 -0.2419
   24POPC   NC3  277   6.252   1.645   9.470 -0.1855  0.4008  0.0271
   24POPC   PO4  278   5.917   1.804   9.660  0.2180 -0.0475  0.2581
   24POPC   GL1  279   5.841   1.839   9.205  0.0935 -0.0348  0.2285
   24POPC   GL2  280   5.748   1.539   9.161 -0.0734 -0.0011  0.2896
   24POPC   C1A  281   5.525   1.948   8.852 -0.2855 -0.1003  0.0993
   24POPC   D2A  282   5.254   1.774   8.485 -0.0520 -0.1124 -0.2939
   24POPC   C3A  283   5.150   1.932   8.075 -0.0149 -0.2150 -0.0993
   24POPC   C4A  284   5.119   1.743   7.671  0.2070 -0.2809 -0.0956
   24POPC   C1B  285   5.728   1.461   8.736  0.1703  0.3569  0.0820
   24POPC   C2B  286   5.920   1.493   8.292 -0.1754 -0.1832 -0.2080
   24POPC   C3B  287   6.021   1.575   7.783 -0.3316  0.0628 -0.0222
   24POPC   C4B  288   5.975   1.833   7.383 -0.0707 -0.1045 -0.0189
   25POPC   NC3  289   0.280   9.156   9.038  0.1705  0.0997 -0.2184
   25POPC   PO4  290   0.343   8.833   9.256  0.2006 -0.0059  0.3643
   25POPC   GL1  291   0.396   8.586   8.992 -0.1036 -0.3001 -0.0569
   25POPC   GL2  292   0.169   8.730   8.820  0.2097  0.1171  0.0049
   25POPC   C1A  293   0.641   8.165   8.994  0.1832  0.2181  0.2430
   25POPC   D2A  294   0.845   7.831   8.784 -0.1528 -0.0712 -0.0779
   25POPC   C3A  295   0.731   7.763   8.330  0.0813  0.0392  0.0013
   25POPC   C4A  296   0.434   7.959   7.993 -0.1274 -0.0213 -0.0686
   25POPC   C1B  297  -0.167   8.591   8.555 -0.0657  0.0835 -0.0193
   25POPC   C2B  298  -0.444   8.471   8.202 -0.0595  0.2634  0.2455
   25POPC   C3B  299  -0.755   8.531   7.834  0.1423 -0.3699 -0.0410
   25POPC   C4B  300  -0.685   8.443   7.433 -0.1590 -0.3109 -0.0687
   26POPC   NC3  301  16.221   3.609   9.237  0.2068 -0.3338 -0.3368
   26POPC   PO4  302  15.901   3.429   9.301  0.1574 -0.1170 -0.1438
   26POPC   GL1  303  15.902   3.481   8.887 -0.2574 -0.2166  0.0759
   26POPC   GL2  304  15.926   3.730   8.841 -0.3227 -0.2454  0.0280
   26POPC   C1A  305  16.014   3.428   8.450  0.0398  0.0935 -0.0272
   26POPC   D2A  306  15.989   3.529   8.061 -0.2183 -0.2525 -0.0426
   26POPC   C3A  307  15.731   3.289   7.726 -0.3658 -0.0333 -0.4220
   26POPC   C4A  308  15.341   3.105   7.432 -0.1283  0.2940  0.2793
   26POPC   C1B  309  15.834   3.856   8.387  0.3104  0.1596 -0.0679
   26POPC   C2B  310  15.676   3.906   7.934  0.4427 -0.1446  0.2507
   26POPC   C3B  311  15.756   3.937   7.517 -0.1071 -0.1397  0.1366
   26POPC   C4B  312  15.567   4.113   7.160 -0.2027  0.0451 -0.0789
   27POPC   NC3  313   2.672   6.262  15.702 -0.2628  0.0829 -0.0731
   27POPC   PO4  314   2.746   6.051  15.381  0.0698 -0.0408  0.1964
   27POPC   GL1  315   3.008   5.792  15.610  0.2535  0.2147 -0.0339
   27POPC   GL2  316   2.807   5.793  15.811 -0.1112  0.5997  0.1854
   27POPC   C1A  317   3.371   5.722  15.922 -0.3054  0.2375 -0.1731
   27POPC   D2A  318   3.617   5.612  16.323 -0.0816 -0.0348 -0.2921
   27POPC   C3A  319   3.385   5.540  16.729  0.0488 -0.0679 -0.2961
   27POPC   C4A  320   3.186   5.729  17.125  0.0030 -0.0121 -0.1710
   27POPC   C1B  321   3.066   6.063  16.062  0.0312 -0.3054  0.0358
   27POPC   C2B  322   3.480   6.158  16.322 -0.1006  0.3019 -0.1512
   27POPC   C3B  323   3.740   6.382  16.663 -0.1495  0.1651  0.1843
   27POPC   C4B  324   4.035   6.302  17.004  0.1268 -0.1565  0.1118
   28POPC   NC3  325   3.223  10.969   8.786  0.0201  0.1308 -0.0205
   28POPC   PO4  326   3.601  10.897   8.719 -0.1904  0.1472 -0.0385
   28POPC   GL1  327   3.355  10.904   8.371  0.3775  0.0767  0.0748
   28POPC   GL2  328   3.458  10.653   8.248  0.0403 -0.1000  0.0674
   28POPC   C1A  329   3.419  10.964   7.886  0.3448 -0.0519 -0.0597
   28POPC   D2A  330   3.418  11.147   7.425  0.1868  0.1318 -0.0581
   28POPC   C3A  331   3.458  11.439   7.114  0.0187  0.0530  0.2041
   28POPC   C4A  332   3.491  11.449   6.658 -0.0064 -0.0413 -0.1533
   28POPC   C1B  333   3.725  10.377   7.895 -0.0318 -0.1444  0.0783
   28POPC   C2B  334   4.011  10.425   7.489  0.1458 -0.0079  0.1045
   28POPC   C3B  335   4.341  10.553   7.205 -0.2706  0.2792 -0.2793
   28POPC   C4B  336   4.326  10.459   6.720 -0.3361 -0.2404 -0.1862
   29POPC   NC3  337   5.417  12.857   8.627  0.3312  0.1933 -0.0494
   29POPC   PO4  338   5.593  13.161   8.451  0.0526  0.2972  0.0680
   29POPC   GL1  339   5.795  12.866   8.181 -0.0221 -0.0214 -0.2066
   29POPC   GL2  340   5.577  12.840   8.009 -0.1418 -0.3067  0.1068
   29POPC   C1A  341   5.997  12.848   7.794 -0.1333 -0.1522 -0.0654
   29POPC   D2A  342   6.181  12.797   7.369  0.1472 -0.4210 -0.0008
   29POPC   C3A  343   5.992  12.812   6.957  0.0872 -0.1312  0.0800
   29POPC   C4A  344   5.887  12.975   6.546 -0.1678 -0.0816 -0.0645
   29POPC   C1B  345   5.501  12.852   7.592 -0.0333  0.0354 -0.2647
   29POPC   C2B  346   5.361  12.833   7.136  0.2797 -0.1212 -0.2828
   29POPC   C3B  347   5.115  12.556   6.811 -0.4011  0.0362  0.1426
   29POPC   C4B  348   4.947  12.531   6.415  0.1177 -0.3552  0.0872
   30POPC   NC3  349   2.574   3.756   8.686 -0.3395 -0.2678 -0.3535
   30POPC   PO4  350   2.243   3.781   8.879  0.0118  0.2460  0.0178
   30POPC   GL1  351   2.132   3.847   8.505  0.2078  0.0529  0.0827
   30POPC   GL2  352   2.062   3.597   8.411  0.2276  0.0582  0.2844
   30POPC   C1A  353   2.111   4.264   8.264 -0.4746  0.2312 -0.0254
   30POPC   D2A  354   2.493   4.468   8.012 -0.2480  0.1600  0.0343
   30POPC   C3A  355   2.921   4.562   8.040 -0.0058 -0.1517 -0.0877
   30POPC   C4A  356   3.289   4.453   7.752  0.0459  0.2222  0.0911
   30POPC   C1B  357   1.877   3.835   8.084  0.0364 -0.1381  0.2367
   30POPC   C2B  358   1.848   3.931   7.674  0.3821 -0.1590  0.4862
   30POPC   C3B  359   1.964   4.144   7.269  0.1876  0.0742 -0.1055
   30POPC   C4B  360   1.861   4.178   6.858  0.4862 -0.2355  0.1947
   31POPC   NC3  361  12.542  14.809   8.296  0.2789 -0.0875 -0.1389
   31POPC   PO4  362  12.224  14.895   8.505 -0.2536 -0.0245  0.3705
   31POPC   GL1  363  12.191  15.251   8.174 -0.1037 -0.4338 -0.1713
   31POPC   GL2  364  11.978  15.115   8.003 -0.3632 -0.0836 -0.0130
   31POPC   C1A  365  11.917  15.636   8.036  0.2601 -0.0419  0.3826
   31POPC   D2A  366  11.894  15.979   7.738 -0.0576 -0.4075  0.1676
   31POPC   C3A  367  11.956  16.387   7.848 -0.0872  0.1291 -0.1021
   31POPC   C4A  368  11.982  16.815   7.725 -0.2352 -0.0306 -0.0662
   31POPC   C1B  369  12.177  15.383   7.667  0.1093 -0.0682  0.0264
   31POPC   C2B  370  12.057  15.345   7.161 -0.0288 -0.2279  0.1508
   31POPC   C3B  371  11.747  15.165   6.843 -0.2142  0.0062  0.0615
   31POPC   C4B  372  11.267  15.121   6.856 -0.3297 -0.0346 -0.0257
   32POPC   NC3  373   5.964  16.494   9.247  0.4251  0.0412  0.1112
   32POPC   PO4  374   5.977  16.115   9.131  0.4022 -0.1013 -0.3183
   32POPC   GL1  375   5.951  16.279   8.796 -0.0122  0.1622 -0.1462
   32POPC   GL2  376   5.689  16.382   8.835  0.0752  0.2789 -0.3568
   32POPC   C1A  377   6.016  16.342   8.342  0.0748 -0.0105 -0.0033
   32POPC   D2A  378   6.329  16.620   8.091 -0.0393  0.0156 -0.0125
   32POPC   C3A  379   6.179  16.852   7.743  0.2066  0.1504 -0.2282
   32POPC   C4A  380   5.976  16.987   7.338  0.0537  0.4632 -0.1896
   32POPC   C1B  381   5.515  16.579   8.456  0.3167 -0.1397  0.0983
   32POPC   C2B  382   5.687  16.533   8.005 -0.2461 -0.1209  0.0656
   32POPC   C3B  383   5.676  16.671   7.566  0.0340  0.0413 -0.3066
   32POPC   C4B  384   5.557  16.752   7.128 -0.1020  0.3257  0.0094
   33POPC   NC3  385   4.585   6.137  10.361 -0.0952 -0.1744  0.0803
   33POPC   PO4  386   4.548   5.755  10.290  0.0439 -0.6243 -0.0971
   33POPC   GL1  387   4.934   5.758  10.140  0.2985  0.3117  0.0836
   33POPC   GL2  388   4.975   6.056  10.055  0.2671 -0.0430  0.0581
   33POPC   C1A  389   5.081   5.643   9.731 -0.1666  0.3065 -0.0798
   33POPC   D2A  390   5.101   5.557   9.278 -0.0171  0.0658 -0.5818
   33POPC   C3A  391   5.340   5.396   8.909  0.0984 -0.2641  0.0237
   33POPC   C4A  392   5.542   5.696   8.643 -0.0237  0.0101  0.2911
   33POPC   C1B  393   5.363   6.028   9.832  0.0923 -0.0060 -0.2300
   33POPC   C2B  394   5.640   5.750   9.550 -0.0541  0.1627 -0.2194
   33POPC   C3B  395   5.989   5.690   9.288 -0.2532 -0.0717  0.1445
   33POPC   C4B  396   6.220   5.572   8.886  0.0991 -0.3514 -0.0980
   34POPC   NC3  397  12.934  15.958  15.412 -0.0480 -0.2649  0.2771
   34POPC   PO4  398  13.077  15.796  15.711  0.0507 -0.1477 -0.1269
   34POPC   GL1  399  13.065  15.861  16.146  0.0503  0.1584  0.1753
   34POPC   GL2  400  12.998  15.616  16.222 -0.0529 -0.2755  0.1592
   34POPC   C1A  401  12.748  15.997  16.500 -0.1642  0.3023  0.2145
   34POPC   D2A  402  12.561  15.785  16.900  0.1230 -0.0480 -0.0173
   34POPC   C3A  403  12.495  15.872  17.357  0.0577  0.1370 -0.0487
   34POPC   C4A  404  12.663  16.014  17.802  0.1309  0.1995  0.1490
   34POPC   C1B  405  12.607  15.542  16.470  0.3339 -0.2797 -0.0636
   34POPC   C2B  406  12.284  15.411  16.728 -0.0337 -0.0793 -0.0488
   34POPC   C3B  407  12.065  15.101  17.031 -0.3949 -0.0737  0.1403
   34POPC   C4B  408  11.596  15.052  16.936 -0.0644 -0.1576  0.0104
   35POPC   NC3  409   4.165   1.325   9.062  0.0939  0.1494  0.0468
   35POPC   PO4  410   4.507   1.408   9.180  0.0707  0.0695 -0.0387
   35POPC   GL1  411   4.564   1.266   8.824  0.1576  0.0320  0.1047
   35POPC   GL2  412   4.810   1.085   8.885  0.0491  0.2790 -0.0139
   35POPC   C1A  413   4.767   1.268   8.392 -0.4030 -0.0849 -0.0489
   35POPC   D2A  414   4.783   1.586   8.077 -0.1129 -0.2258  0.1743
   35POPC   C3A  415   4.633   1.951   7.916  0.5118  0.2122  0.1014
   35POPC   C4A  416   4.460   2.249   7.664 -0.1027 -0.0546 -0.0717
   35POPC   C1B  417   4.617   0.804   8.545  0.2555  0.0399  0.1486
   35POPC   C2B  418   4.638   0.848   8.039 -0.0088 -0.1630  0.0574
   35POPC   C3B  419   4.500   0.822   7.606 -0.1030 -0.0132  0.1062
   35POPC   C4B  420   4.510   0.944   7.230  0.3433 -0.1928  0.4325
   36POPC   NC3  421   9.968   0.930  13.513 -0.4747  0.0735  0.0846
   36POPC   PO4  422  10.036   0.590  13.695 -0.2678 -0.0695 -0.0616
   36POPC   GL1  423  10.250   0.859  13.924  0.1384  0.1265 -0.2046
   36POPC   GL2  424  10.235   0.787  14.183 -0.1606 -0.2803  0.2417
   36POPC   C1A  425  10.195   1.333  14.061  0.3684  0.0253  0.1421
   36POPC   D2A  426  10.210   1.782  14.137  0.1203 -0.0092 -0.0454
   36POPC   C3A  427  10.248   2.161  14.430 -0.4183  0.2227 -0.4248
   36POPC   C4A  428  10.221   2.628  14.393  0.0382 -0.0854  0.0292
   36POPC   C1B  429   9.973   1.082  14.466  0.0547 -0.1006 -0.0252
   36POPC   C2B  430  10.023   1.497  14.655  0.0024  0.0940  0.1460
   36POPC   C3B  431  10.101   1.916  14.838 -0.0404 -0.1800 -0.3724
   36POPC   C4B  432  10.210   2.410  14.826 -0.0945  0.0682  0.0990
   37POPC   NC3  433   3.376   8.066   8.799 -0.0660  0.0784  0.0756
   37POPC   PO4  434   3.137   8.183   9.109  0.0609  0.0051 -0.0009
   37POPC   GL1  435   2.881   8.202   8.861  0.2988 -0.2795 -0.1130
   37POPC   GL2  436   2.887   8.320   8.605  0.0635 -0.1236  0.0172
   37POPC   C1A  437   2.452   8.273   8.802 -0.0048 -0.1716  0.0206
   37POPC   D2A  438   2.195   8.529   8.530  0.3670  0.0132  0.2165
   37POPC   C3A  439   2.136   8.520   8.082 -0.1038  0.0718 -0.2015
   37POPC   C4A  440   2.221   8.393   7.624 -0.2744 -0.1947 -0.0635
   37POPC   C1B  441   3.153   8.218   8.250  0.1557 -0.0543 -0.0734
   37POPC   C2B  442   3.044   8.149   7.834  0.5257 -0.0354 -0.0629
   37POPC   C3B  443   3.234   8.157   7.388  0.0510  0.1647 -0.2549
   37POPC   C4B  444   3.645   8.201   7.179  0.2575  0.3207  0.1455
   38POPC   NC3  445  14.190  11.737   8.976 -0.1576 -0.0644  0.1873
   38POPC   PO4  446  14.411  11.910   8.732  0.1041  0.0170  0.1092
   38POPC   GL1  447  14.269  11.973   8.345  0.0900  0.1173 -0.2024
   38POPC   GL2  448  14.275  12.265   8.290 -0.0365  0.1273 -0.0089
   38POPC   C1A  449  14.410  11.838   7.935  0.2127 -0.2910  0.1590
   38POPC   D2A  450  14.788  11.903   7.678 -0.4846 -0.0217  0.4801
   38POPC   C3A  451  14.825  11.913   7.206 -0.1996  0.0754 -0.0442
   38POPC   C4A  452  14.739  12.227   6.870  0.1952  0.1233 -0.0514
   38POPC   C1B  453  13.980  12.181   7.919 -0.2002 -0.2082 -0.0087
   38POPC   C2B  454  13.859  12.001   7.478 -0.0908 -0.0048  0.0372
   38POPC   C3B  455  13.609  11.896   7.115  0.1366 -0.2086 -0.0370
   38POPC   C4B  456  13.355  12.197   6.928  0.3074 -0.2034 -0.2731
   39POPC   NC3  457   5.282   7.283  12.532  0.1661  0.0344  0.0161
   39POPC   PO4  458   5.155   7.351  12.171  0.0006  0.0153 -0.2081
   39POPC   GL1  459   5.443   7.028  12.170  0.1775  0.2512 -0.0611
   39POPC   GL2  460   5.466   6.680  12.291 -0.3271  0.0818 -0.0388
   39POPC   C1A  461   5.758   6.863  11.945  0.1834  0.2860 -0.0899
   39POPC   D2A  462   6.144   6.813  11.784  0.2750 -0.2344 -0.1356
   39POPC   C3A  463   6.299   6.512  12.139 -0.1106  0.2511 -0.0544
   39POPC   C4A  464   6.400   6.040  12.114 -0.1835  0.3780  0.0788
   39POPC   C1B  465   5.761   6.379  12.057  0.1042 -0.0890  0.1079
   39POPC   C2B  466   5.960   6.066  12.373  0.0557 -0.0970 -0.3848
   39POPC   C3B  467   5.983   5.630  12.476  0.3663  0.2021  0.1733
   39POPC   C4B  468   5.791   5.229  12.623 -0.2059  0.1517 -0.0857
   40POPC   NC3  469   2.740   7.718   8.978 -0.2208  0.1328 -0.0829
   40POPC   PO4  470   3.126   7.651   8.982 -0.1059  0.4106  0.0848
   40POPC   GL1  471   3.138   7.512   8.637  0.3115 -0.3229  0.0218
   40POPC   GL2  472   3.013   7.787   8.539 -0.0839  0.0750  0.3079
   40POPC   C1A  473   3.253   7.073   8.520  0.1754  0.0945  0.2946
   40POPC   D2A  474   3.324   6.932   8.060 -0.3724  0.1450  0.0878
   40POPC   C3A  475   3.196   6.773   7.672 -0.1689  0.0163  0.3382
   40POPC   C4A  476   2.796   6.645   7.559 -0.0240  0.0848  0.3469
   40POPC   C1B  477   2.829   7.822   8.148 -0.1658 -0.1328  0.1236
   40POPC   C2B  478   2.868   7.641   7.683  0.1082  0.0245  0.1656
   40POPC   C3B  479   2.891   7.586   7.193 -0.0667 -0.1333  0.1389
   40POPC   C4B  480   2.543   7.568   6.848 -0.0938 -0.2222 -0.0413
   41POPC   NC3  481  15.366  14.543   8.228 -0.0499 -0.2537  0.2296
   41POPC   PO4  482  15.335  14.237   7.981 -0.0505 -0.1533 -0.0687
   41POPC   GL1  483  15.237  14.079   7.586 -0.1215 -0.2858  0.1114
   41POPC   GL2  484  15.182  14.351   7.493 -0.5293  0.1826 -0.0404
   41POPC   C1A  485  15.074  14.022   7.131 -0.2373  0.2825 -0.2464
   41POPC   D2A  486  14.906  14.122   6.725 -0.2386 -0.0438 -0.2454
   41POPC   C3A  487  14.714  13.790   6.452 -0.1395  0.1370 -0.1086
   41POPC   C4A  488  14.904  13.655   6.032  0.0709 -0.0034  0.0497
   41POPC   C1B  489  15.075  14.546   7.065 -0.1560  0.0442 -0.3565
   41POPC   C2B  490  14.980  14.718   6.660  0.3285  0.1886  0.2002
   41POPC   C3B  491  14.916  15.142   6.463 -0.0880  0.0871  0.0182
   41POPC   C4B  492  15.013  15.393   6.111  0.0371  0.0093  0.1347
   42POPC   NC3  493  11.781  12.042   9.372 -0.0532  0.2156  0.0865
   42POPC   PO4  494  11.590  12.084   9.004 -0.3126 -0.1735  0.1865
   42POPC   GL1  495  11.573  11.997   8.640 -0.2882 -0.3509 -0.2286
   42POPC   GL2  496  11.296  11.877   8.513 -0.3374 -0.1150 -0.0586
   42POPC   C1A  497  11.779  12.131   8.179 -0.0257  0.0310  0.2524
   42POPC   D2A  498  11.789  12.143   7.715 -0.0446 -0.1259  0.2686
   42POPC   C3A  499  11.671  11.952   7.266 -0.1071 -0.0724  0.2757
   42POPC   C4A  500  11.582  11.477   7.168 -0.2192  0.0168  0.4123
   42POPC   C1B  501  10.927  11.908   8.296  0.0923  0.3117  0.2100
   42POPC   C2B  502  10.800  11.907   7.866  0.0660 -0.0513  0.1770
   42POPC   C3B  503  10.541  11.749   7.543 -0.0394  0.1945  0.1187
   42POPC   C4B  504  10.601  11.498   7.142 -0.0558 -0.0237 -0.0300
   43POPC   NC3  505   6.281  14.925   8.394 -0.1965 -0.0685 -0.0063
   43POPC   PO4  506   6.450  14.568   8.345  0.0027 -0.0559  0.3139
   43POPC   GL1  507   6.699  14.615   7.976  0.2282 -0.0669 -0.6906
   43POPC   GL2  508   6.723  14.325   7.873  0.0904  0.3279  0.1854
   43POPC   C1A  509   6.543  14.805   7.597  0.3346  0.2319 -0.0933
   43POPC   D2A  510   6.192  14.872   7.267  0.1477 -0.1748  0.0286
   43POPC   C3A  511   6.096  15.081   6.851  0.0085  0.1052 -0.0550
   43POPC   C4A  512   5.835  15.466   6.681 -0.2120  0.4303  0.3191
   43POPC   C1B  513   6.898  14.317   7.457  0.1583  0.3105 -0.1603
   43POPC   C2B  514   6.977  14.158   7.000  0.0877 -0.3768 -0.2560
   43POPC   C3B  515   6.844  14.290   6.605  0.0625  0.0330  0.0262
   43POPC   C4B  516   6.521  14.446   6.309  0.1021 -0.1894  0.0779
   44POPC   NC3  517   0.772  32.029   8.454 -0.1818 -0.0216  0.1756
   44POPC   PO4  518   0.696  31.856   8.092 -0.1728  0.0401 -0.1494
   44POPC   GL1  519   0.613  32.008   7.741 -0.2617 -0.6469  0.0157
   44POPC   GL2  520   0.855  32.194   7.623 -0.0358  0.1279 -0.0762
   44POPC   C1A  521   0.490  31.788   7.359 -0.0133  0.3797 -0.1819
   44POPC   D2A  522   0.172  31.536   7.089 -0.2989 -0.0684 -0.2126
   44POPC   C3A  523   0.236  31.573   6.639  0.0183 -0.2364 -0.0505
   44POPC   C4A  524   0.157  31.805   6.266  0.0197  0.0727  0.0306
   44POPC   C1B  525   1.037  32.515   7.330  0.1981  0.1761 -0.0373
   44POPC   C2B  526   0.798  32.794   7.068  0.3147 -0.0645 -0.0208
   44POPC   C3B  527   0.645  33.046   6.736  0.0532 -0.2211  0.2991
   44POPC   C4B  528   0.478  33.121   6.281  0.1736  0.0082  0.0101
   45POPC   NC3  529   1.369  14.524   8.327  0.1113  0.1527 -0.1051
   45POPC   PO4  530   1.459  14.801   8.048  0.0213  0.2394 -0.1791
   45POPC   GL1  531   1.457  14.722   7.562 -0.1031 -0.3435 -0.7900
   45POPC   GL2  532   1.725  14.775   7.567 -0.2173  0.2680 -0.3874
   45POPC   C1A  533   1.126  14.664   7.241 -0.1583 -0.0227  0.5142
   45POPC   D2A  534   0.976  14.593   6.811 -0.0402 -0.1301  0.0201
   45POPC   C3A  535   1.029  14.877   6.474  0.1817  0.2750  0.0103
   45POPC   C4A  536   0.826  14.986   6.079 -0.0517 -0.2703  0.1037
   45POPC   C1B  537   1.937  14.747   7.131 -0.1712 -0.3354  0.2768
   45POPC   C2B  538   1.926  14.968   6.734  0.1372  0.0954  0.1844
   45POPC   C3B  539   2.065  15.084   6.302  0.1442  0.1572 -0.2412
   45POPC   C4B  540   2.429  15.153   5.991  0.0518 -0.0480 -0.0437
   46POPC   NC3  541  14.410   3.221  10.498  0.1004 -0.1731 -0.2348
   46POPC   PO4  542  14.360   3.575  10.644 -0.2489 -0.2002 -0.0692
   46POPC   GL1  543  14.059   3.857  10.550 -0.0150 -0.1911  0.0581
   46POPC   GL2  544  13.972   4.056  10.743  0.1500  0.1680  0.0367
   46POPC   C1A  545  13.897   3.858  10.098  0.2983  0.0194  0.1644
   46POPC   D2A  546  13.820   3.901   9.644  0.0188 -0.0713  0.2067
   46POPC   C3A  547  13.514   3.634   9.510 -0.0146  0.1692 -0.0840
   46POPC   C4A  548  13.386   3.270   9.296 -0.0984 -0.1598 -0.1881
   46POPC   C1B  549  13.506   4.103  10.649 -0.3547 -0.0495 -0.2887
   46POPC   C2B  550  13.090   4.144  10.436 -0.1980 -0.0364 -0.0174
   46POPC   C3B  551  12.698   4.299  10.266 -0.1625 -0.1783 -0.1558
   46POPC   C4B  552  12.361   4.515  10.045  0.1257 -0.3455  0.0460
   47POPC   NC3  553   4.824   6.796  13.912  0.0495 -0.0208  0.0038
   47POPC   PO4  554   4.961   6.994  13.593 -0.0233  0.1063  0.0936
   47POPC   GL1  555   5.281   6.970  13.604 -0.3188  0.2431  0.1295
   47POPC   GL2  556   5.398   6.933  13.376  0.1070  0.0368  0.0161
   47POPC   C1A  557   5.705   6.738  13.748 -0.3275  0.3344  0.0307
   47POPC   D2A  558   6.096   6.828  14.047 -0.0513  0.1637 -0.0670
   47POPC   C3A  559   6.490   6.706  14.146  0.0575 -0.0318  0.1316
   47POPC   C4A  560   6.849   6.594  14.381 -0.1100  0.0347 -0.1016
   47POPC   C1B  561   5.790   6.794  13.173  0.1075  0.0162  0.0055
   47POPC   C2B  562   6.233   6.691  13.051  0.2866  0.0351 -0.3432
   47POPC   C3B  563   6.654   6.544  12.966  0.0791 -0.1977  0.0684
   47POPC   C4B  564   7.060   6.732  12.935 -0.1438 -0.1024  0.2683
   48POPC   NC3  565   0.164   7.171   9.777  0.1679  0.1550  0.1726
   48POPC   PO4  566  -0.272   7.167   9.858  0.0615 -0.1271  0.2214
   48POPC   GL1  567  -0.321   7.057   9.552 -0.1751 -0.2480  0.1662
   48POPC   GL2  568  -0.237   7.249   9.320  0.0290 -0.0824  0.2056
   48POPC   C1A  569  -0.607   6.920   9.188 -0.4693  0.4202  0.0635
   48POPC   D2A  570  -0.825   6.619   8.961  0.1455  0.0922 -0.0283
   48POPC   C3A  571  -0.616   6.597   8.567 -0.0736  0.0614  0.1762
   48POPC   C4A  572  -0.569   6.845   8.177  0.0916  0.0860  0.0037
   48POPC   C1B  573  -0.427   7.280   8.877 -0.1834  0.3341  0.0006
   48POPC   C2B  574  -0.795   7.101   8.654  0.0989 -0.0712  0.0305
   48POPC   C3B  575  -1.088   6.765   8.490 -0.0557  0.1495 -0.2316
   48POPC   C4B  576  -0.954   6.489   8.097  0.1059  0.2871 -0.6331
   49POPC   NC3  577   5.921   8.526  12.376 -0.0518  0.2148  0.0502
   49POPC   PO4  578   6.138   8.257  12.146  0.0888 -0.2174  0.3949
   49POPC   GL1  579   6.406   8.077  12.295 -0.3135 -0.2119 -0.1861
   49POPC   GL2  580   6.643   8.242  12.195 -0.0548 -0.1102 -0.2213
   49POPC   C1A  581   6.700   7.714  12.220 -0.0093 -0.2559  0.4368
   49POPC   D2A  582   6.853   7.337  12.000 -0.1714 -0.0173  0.1821
   49POPC   C3A  583   7.280   7.236  11.759 -0.0241 -0.1310 -0.0115
   49POPC   C4A  584   7.700   7.406  11.852  0.2615  0.2029  0.2108
   49POPC   C1B  585   6.825   8.143  12.580 -0.2804  0.1400 -0.0219
   49POPC   C2B  586   7.187   7.937  12.652 -0.0542  0.0452 -0.0147
   49POPC   C3B  587   7.639   7.771  12.736  0.0289 -0.2193  0.1650
   49POPC   C4B  588   8.083   7.525  12.751  0.0986 -0.1276 -0.0488
   50POPC   NC3  589   8.804  12.645   9.137 -0.1638  0.1151  0.0714
   50POPC   PO4  590   8.459  12.434   9.295 -0.3013 -0.2960  0.2414
   50POPC   GL1  591   8.503  12.048   9.144  0.0420 -0.1791  0.0157
   50POPC   GL2  592   8.311  11.829   9.160 -0.3328  0.1273 -0.0069
   50POPC   C1A  593   8.733  11.694   8.896 -0.4359 -0.2938 -0.2390
   50POPC   D2A  594   8.666  11.400   8.531  0.0163  0.0541  0.1316
   50POPC   C3A  595   8.799  11.536   8.085 -0.0732  0.2315  0.1564
   50POPC   C4A  596   9.188  11.584   7.827  0.0770 -0.1665 -0.0314
   50POPC   C1B  597   8.369  11.925   8.711  0.2010 -0.1934 -0.3268
   50POPC   C2B  598   8.429  11.789   8.286  0.2275  0.2281 -0.0411
   50POPC   C3B  599   8.431  11.719   7.838 -0.2779  0.0347  0.1129
   50POPC   C4B  600   8.736  11.518   7.509  0.0568  0.0987  0.1771
   51POPC   NC3  601   3.231  13.744   8.193 -0.0365  0.0293  0.2894
   51POPC   PO4  602   3.268  14.072   8.064  0.1257  0.0163 -0.0326
   51POPC   GL1  603   3.474  13.879   7.741  0.1539  0.0893 -0.0127
   51POPC   GL2  604   3.492  14.142   7.606  0.0786 -0.1084  0.1497
   51POPC   C1A  605   3.566  13.678   7.354 -0.1513  0.0145  0.2585
   51POPC   D2A  606   3.799  13.729   6.994  0.3242  0.2825  0.2216
   51POPC   C3A  607   3.752  13.458   6.711 -0.0539  0.0061  0.0358
   51POPC   C4A  608   3.579  13.122   6.532  0.2237  0.1328  0.4703
   51POPC   C1B  609   3.370  14.078   7.146 -0.0199  0.2571  0.0932
   51POPC   C2B  610   3.246  13.764   6.826  0.2842 -0.0959  0.0445
   51POPC   C3B  611   3.346  13.553   6.433  0.1630  0.1175 -0.0455
   51POPC   C4B  612   3.261  13.573   5.969 -0.2063  0.1130  0.1870
   52POPC   NC3  613  14.921   5.496   9.574  0.0084 -0.0935  0.0448
   52POPC   PO4  614  15.087   5.833   9.626 -0.0250  0.0243  0.1686
   52POPC   GL1  615  15.179   5.968   9.186 -0.0158 -0.2562  0.0185
   52POPC   GL2  616  15.259   6.274   9.114  0.0886 -0.0046  0.0538
   52POPC   C1A  617  15.076   5.840   8.742 -0.0735  0.1142 -0.0340
   52POPC   D2A  618  15.220   5.620   8.443 -0.0622 -0.2471 -0.0614
   52POPC   C3A  619  14.912   5.538   8.120  0.0796  0.3792 -0.0484
   52POPC   C4A  620  14.753   5.126   7.986 -0.3099  0.0779  0.0039
   52POPC   C1B  621  15.096   6.400   8.661  0.1404  0.0636 -0.1326
   52POPC   C2B  622  14.963   6.460   8.233  0.0401 -0.1474  0.0323
   52POPC   C3B  623  15.073   6.543   7.826 -0.2248 -0.0559  0.1243
   52POPC   C4B  624  14.929   6.352   7.498 -0.0883 -0.0283  0.3006
   53POPC   NC3  625  14.354   8.939  10.524 -0.0823  0.0753 -0.1517
   53POPC   PO4  626  14.628   8.646  10.509 -0.0135 -0.2092 -0.1094
   53POPC   GL1  627  14.269   8.499  10.287 -0.3826  0.1714 -0.1254
   53POPC   GL2  628  14.261   8.628  10.045 -0.0999 -0.1182 -0.2748
   53POPC   C1A  629  14.179   8.103  10.055  0.0580 -0.0028  0.2133
   53POPC   D2A  630  14.119   7.874   9.643 -0.4787 -0.1704  0.1434
   53POPC   C3A  631  13.822   7.720   9.385 -0.1185 -0.0392  0.2673
   53POPC   C4A  632  13.379   7.559   9.372 -0.1182 -0.2032  0.0023
   53POPC   C1B  633  14.134   8.447   9.685  0.3587 -0.0727 -0.1024
   53POPC   C2B  634  13.908   8.199   9.359 -0.1221  0.1802  0.0738
   53POPC   C3B  635  13.564   8.031   9.117 -0.0953  0.1100  0.2391
   53POPC   C4B  636  13.125   7.904   9.033 -0.1164  0.2693  0.0802
   54POPC   NC3  637   0.953  15.975   8.308 -0.3547  0.1767  0.1037
   54POPC   PO4  638   1.283  16.049   8.435  0.2274  0.5484  0.2892
   54POPC   GL1  639   1.425  16.157   8.077  0.1058  0.1546 -0.0259
   54POPC   GL2  640   1.306  16.024   7.836  0.0350  0.0726 -0.0430
   54POPC   C1A  641   1.658  16.392   7.770  0.1334 -0.1764 -0.1985
   54POPC   D2A  642   1.988  16.386   7.466 -0.0289 -0.0197  0.1313
   54POPC   C3A  643   1.953  16.466   6.995 -0.3260 -0.0291 -0.2276
   54POPC   C4A  644   1.804  16.190   6.632 -0.3109 -0.2346  0.3449
   54POPC   C1B  645   1.121  15.967   7.467 -0.1847 -0.0215  0.1395
   54POPC   C2B  646   1.031  16.072   7.034 -0.0707  0.2119  0.0599
   54POPC   C3B  647   0.991  16.166   6.542 -0.1366  0.0713 -0.1292
   54POPC   C4B  648   1.120  16.300   6.116 -0.0204 -0.0531 -0.0709
   55POPC   NC3  649   0.868   7.799   9.826 -0.0893  0.2581  0.3893
   55POPC   PO4  650   1.114   7.553   9.593  0.1270  0.3831  0.4478
   55POPC   GL1  651   1.404   7.655   9.293  0.1899  0.0407  0.2555
   55POPC   GL2  652   1.340   7.941   9.265 -0.0918 -0.1937 -0.0448
   55POPC   C1A  653   1.252   7.376   8.966 -0.0194 -0.1365 -0.0629
   55POPC   D2A  654   1.112   7.458   8.572 -0.4506  0.0230 -0.2701
   55POPC   C3A  655   1.033   7.377   8.118 -0.4139  0.1412  0.2477
   55POPC   C4A  656   0.941   7.169   7.647 -0.1112  0.0124 -0.1473
   55POPC   C1B  657   1.333   7.858   8.816  0.0935  0.2663 -0.0179
   55POPC   C2B  658   1.490   7.742   8.377 -0.1250  0.0669  0.0534
   55POPC   C3B  659   1.503   7.653   7.848  0.0498 -0.0317 -0.0463
   55POPC   C4B  660   1.411   7.819   7.399  0.0756  0.1100 -0.0351
   56POPC   NC3  661  12.610   0.756   9.751  0.1594  0.1776 -0.2272
   56POPC   PO4  662  12.665   0.910  10.148  0.4092 -0.0758  0.4424
   56POPC   GL1  663  12.684   1.198   9.788  0.0124  0.2141  0.0440
   56POPC   GL2  664  12.402   1.223   9.704 -0.1002 -0.4926  0.0803
   56POPC   C1A  665  12.682   1.166   9.306  0.0343 -0.0128  0.0450
   56POPC   D2A  666  12.636   1.324   8.903 -0.0131 -0.2376 -0.3044
   56POPC   C3A  667  12.534   1.723   8.739  0.4650 -0.2032  0.3128
   56POPC   C4A  668  12.295   2.104   8.534  0.0307 -0.0799  0.0137
   56POPC   C1B  669  12.278   1.674   9.661 -0.1870 -0.0392  0.4283
   56POPC   C2B  670  12.217   2.069   9.829 -0.0570 -0.0455  0.0560
   56POPC   C3B  671  11.988   2.269  10.157  0.2260  0.0299 -0.1518
   56POPC   C4B  672  11.655   2.195  10.404 -0.0605  0.1039 -0.1421
   57POPC   NC3  673   1.608  13.701   8.003  0.0307  0.2037 -0.2161
   57POPC   PO4  674   1.666  14.049   8.075  0.1076 -0.1824  0.4353
   57POPC   GL1  675   1.740  14.044   7.710 -0.3642  0.0075 -0.0781
   57POPC   GL2  676   1.956  14.163   7.576  0.0580 -0.4549  0.0583
   57POPC   C1A  677   1.688  13.923   7.261 -0.3281 -0.0096 -0.0648
   57POPC   D2A  678   1.945  13.767   6.923 -0.0986 -0.2512  0.1106
   57POPC   C3A  679   1.730  13.644   6.496  0.0409 -0.3787  0.1698
   57POPC   C4A  680   1.429  13.522   6.161  0.2942 -0.0419 -0.1094
   57POPC   C1B  681   2.038  14.236   7.111 -0.0706  0.2055  0.1454
   57POPC   C2B  682   1.806  14.208   6.692  0.2088 -0.1144  0.0058
   57POPC   C3B  683   1.323  14.236   6.572  0.0452  0.0534 -0.1558
   57POPC   C4B  684   0.932  14.346   6.390 -0.0874 -0.0116  0.1439
   58POPC   NC3  685   2.260   9.975   8.611  0.2612  0.0284 -0.2673
   58POPC   PO4  686   2.440  10.105   8.920 -0.0143  0.1769 -0.1192
   58POPC   GL1  687   2.711  10.069   8.513 -0.1213  0.0425 -0.2089
   58POPC   GL2  688   3.003   9.979   8.413  0.1378  0.0234  0.0035
   58POPC   C1A  689   2.571   9.938   8.119 -0.1327  0.2774  0.2685
   58POPC   D2A  690   2.705   9.817   7.664  0.0775  0.3034  0.1383
   58POPC   C3A  691   3.045   9.685   7.346 -0.2175 -0.0386  0.0761
   58POPC   C4A  692   3.011   9.484   6.989  0.3354  0.1423  0.1430
   58POPC   C1B  693   3.023   9.631   8.112  0.1468  0.3028  0.2787
   58POPC   C2B  694   3.325   9.489   7.769 -0.1902  0.0883 -0.0808
   58POPC   C3B  695   3.568   9.483   7.367 -0.1004  0.2281 -0.2406
   58POPC   C4B  696   3.509   9.470   6.874  0.0827 -0.2771 -0.4327
   59POPC   NC3  697   5.026   9.619   9.862 -0.1602 -0.3084  0.2342
   59POPC   PO4  698   4.830   9.268   9.893 -0.2342 -0.1212 -0.2604
   59POPC   GL1  699   5.121   9.218   9.578  0.1545 -0.0425 -0.2156
   59POPC   GL2  700   5.295   9.528   9.435 -0.0262  0.4902  0.0723
   59POPC   C1A  701   5.213   9.127   9.097  0.0321  0.0434 -0.1725
   59POPC   D2A  702   5.613   9.026   8.747 -0.2408 -0.0403 -0.0574
   59POPC   C3A  703   5.514   8.986   8.319 -0.0393  0.4793 -0.3437
   59POPC   C4A  704   5.610   9.228   7.916 -0.2684  0.1772  0.0128
   59POPC   C1B  705   5.621   9.444   9.083  0.0994  0.0497  0.0890
   59POPC   C2B  706   5.958   9.462   8.779  0.0979 -0.0078  0.1636
   59POPC   C3B  707   6.381   9.275   8.627 -0.2391 -0.0376  0.0816
   59POPC   C4B  708   6.718   9.160   8.284 -0.0978 -0.0068  0.1905
   60POPC   NC3  709  13.404  17.876   8.814  0.0458 -0.5662 -0.3250
   60POPC   PO4  710  13.256  17.510   8.757 -0.0766  0.0914  0.2599
   60POPC   GL1  711  13.011  17.452   8.371  0.3623  0.2358 -0.0550
   60POPC   GL2  712  12.890  17.714   8.444  0.1528 -0.0931 -0.2123
   60POPC   C1A  713  13.265  17.445   7.984  0.1687  0.0609  0.0297
   60POPC   D2A  714  13.257  17.219   7.563 -0.1948  0.1212  0.0125
   60POPC   C3A  715  13.544  17.527   7.514 -0.2363 -0.1901 -0.0215
   60POPC   C4A  716  13.709  17.978   7.536 -0.0887 -0.1419 -0.2198
   60POPC   C1B  717  12.745  17.783   8.004 -0.2099 -0.1413  0.0353
   60POPC   C2B  718  12.598  17.920   7.622 -0.1825  0.2092 -0.1634
   60POPC   C3B  719  12.515  18.024   7.136 -0.2771 -0.0728  0.1092
   60POPC   C4B  720  12.745  18.030   6.742  0.1066  0.2579 -0.1154
   61POPC   NC3  721   6.625   2.045  11.528 -0.1642  0.1245 -0.2529
   61POPC   PO4  722   6.301   2.207  11.715  0.0938 -0.0410 -0.1121
   61POPC   GL1  723   6.410   2.676  11.691  0.0264  0.1773  0.0416
   61POPC   GL2  724   6.566   2.626  11.486 -0.2483 -0.5230  0.0767
   61POPC   C1A  725   6.613   3.089  11.564 -0.2246 -0.4202 -0.3361
   61POPC   D2A  726   6.641   3.428  11.206 -0.1637  0.4078  0.1833
   61POPC   C3A  727   6.885   3.536  10.789  0.1667  0.0821  0.0791
   61POPC   C4A  728   7.006   3.910  10.530 -0.3284 -0.2067  0.0909
   61POPC   C1B  729   6.854   2.859  11.216  0.4998  0.0804  0.1188
   61POPC   C2B  730   7.139   3.134  10.997 -0.4326 -0.0535 -0.0782
   61POPC   C3B  731   7.355   3.563  10.910 -0.1831  0.0878  0.0101
   61POPC   C4B  732   7.515   3.957  10.719 -0.0312 -0.0273 -0.0456
   62POPC   NC3  733   6.303   0.833   9.319 -0.1100 -0.2744  0.2352
   62POPC   PO4  734   6.497   1.088   9.503  0.1800 -0.0810 -0.2394
   62POPC   GL1  735   6.630   1.297   9.197  0.2145  0.1786 -0.0226
   62POPC   GL2  736   6.858   1.158   9.128  0.0054 -0.0617 -0.0639
   62POPC   C1A  737   6.759   1.504   8.797  0.1067  0.1521 -0.0595
   62POPC   D2A  738   6.632   1.705   8.405 -0.2672 -0.1745 -0.0284
   62POPC   C3A  739   7.001   2.018   8.341  0.0535 -0.1261  0.2335
   62POPC   C4A  740   7.093   2.500   8.259 -0.0821  0.1692  0.4386
   62POPC   C1B  741   7.259   1.384   9.093 -0.0600  0.1341  0.2153
   62POPC   C2B  742   7.374   1.817   8.869  0.0784  0.0882 -0.0912
   62POPC   C3B  743   7.558   2.089   8.505  0.3431  0.0161 -0.2076
   62POPC   C4B  744   7.700   2.497   8.264 -0.1417 -0.0153 -0.0249
   63POPC   NC3  745  11.263  11.620   9.809  0.0699 -0.3222  0.0171
   63POPC   PO4  746  11.460  11.289   9.906 -0.0250  0.1560  0.0961
   63POPC   GL1  747  11.360  11.102   9.543 -0.2766 -0.0244  0.5114
   63POPC   GL2  748  11.414  10.849   9.655 -0.0141 -0.3635  0.2229
   63POPC   C1A  749  11.128  10.792   9.254  0.1206  0.0423  0.0192
   63POPC   D2A  750  11.274  10.408   9.012  0.1718  0.1568 -0.0539
   63POPC   C3A  751  10.968  10.246   8.733  0.0539 -0.0855 -0.0003
   63POPC   C4A  752  10.750  10.499   8.462 -0.0922  0.0209 -0.0468
   63POPC   C1B  753  11.332  10.378   9.545  0.0467 -0.2672  0.0131
   63POPC   C2B  754  11.571  10.108   9.288  0.0477 -0.1657 -0.0097
   63POPC   C3B  755  11.573   9.670   9.277 -0.4350  0.2717  0.1436
   63POPC   C4B  756  11.486   9.217   9.340  0.1086 -0.0176 -0.0948
   64POPC   NC3  757   4.566   7.673  14.390 -0.0967 -0.2848  0.0795
   64POPC   PO4  758   4.828   7.883  14.196 -0.1226 -0.0238 -0.0947
   64POPC   GL1  759   5.174   7.890  14.358  0.0878  0.5663  0.1509
   64POPC   GL2  760   5.244   7.644  14.284 -0.1325  0.1207 -0.2557
   64POPC   C1A  761   5.613   7.889  14.440 -0.1789 -0.2255  0.1432
   64POPC   D2A  762   5.966   7.651  14.655 -0.0201 -0.2304 -0.3110
   64POPC   C3A  763   6.231   7.496  14.995  0.2985  0.0821  0.1899
   64POPC   C4A  764   6.477   7.173  15.254  0.3026  0.1999 -0.2735
   64POPC   C1B  765   5.563   7.367  14.493  0.3294  0.1088 -0.1332
   64POPC   C2B  766   5.928   7.174  14.737 -0.6344  0.2396  0.0066
   64POPC   C3B  767   6.385   7.063  14.734 -0.1645 -0.3724 -0.0581
   64POPC   C4B  768   6.819   6.943  14.854 -0.2619 -0.0805  0.0764
   65POPC   NC3  769   4.096   7.191  15.523  0.1472  0.1519 -0.1021
   65POPC   PO4  770   3.908   6.931  15.259 -0.3310 -0.0271  0.2999
   65POPC   GL1  771   4.085   6.708  15.465 -0.1169 -0.4607 -0.1492
   65POPC   GL2  772   4.330   6.585  15.413  0.0245 -0.0044 -0.3402
   65POPC   C1A  773   4.153   6.880  15.916  0.0294  0.1967 -0.3200
   65POPC   D2A  774   4.125   7.249  16.132  0.0653  0.2607  0.1509
   65POPC   C3A  775   4.282   7.192  16.553  0.0399  0.0541 -0.3316
   65POPC   C4A  776   4.220   7.125  17.006  0.0919 -0.1339 -0.0178
   65POPC   C1B  777   4.538   6.510  15.853  0.1173 -0.1796  0.0851
   65POPC   C2B  778   4.469   6.212  16.145  0.0938  0.3029  0.1815
   65POPC   C3B  779   4.272   6.234  16.596  0.0451 -0.0177  0.0154
   65POPC   C4B  780   3.975   5.879  16.678  0.0993  0.2254 -0.0367
   66POPC   NC3  781  12.870  10.659   9.373  0.0275 -0.0982  0.0092
   66POPC   PO4  782  12.642  10.995   9.378  0.0124 -0.1751 -0.3566
   66POPC   GL1  783  12.655  10.967   9.014  0.0789  0.0022 -0.2263
   66POPC   GL2  784  12.490  10.915   8.788 -0.1501 -0.1217 -0.1333
   66POPC   C1A  785  12.811  10.547   8.883  0.1400 -0.0162  0.0444
   66POPC   D2A  786  12.773  10.132   8.634  0.0421  0.5731 -0.1984
   66POPC   C3A  787  13.166  10.041   8.341 -0.0055  0.2452  0.0200
   66POPC   C4A  788  13.197   9.927   7.909  0.0180  0.3244  0.1228
   66POPC   C1B  789  12.624  10.793   8.408 -0.1368  0.3514  0.0162
   66POPC   C2B  790  12.465  10.735   7.974 -0.1506  0.1948  0.1623
   66POPC   C3B  791  12.430  10.402   7.626  0.1044 -0.0785  0.3047
   66POPC   C4B  792  12.239  10.080   7.334  0.1337 -0.1242  0.1428
   67POPC   NC3  793   1.387   5.873   9.218  0.0849  0.1775 -0.0280
   67POPC   PO4  794   1.735   5.886   9.387  0.1848 -0.2137 -0.3991
   67POPC   GL1  795   1.985   5.846   9.202  0.0426  0.0382 -0.3153
   67POPC   GL2  796   2.145   5.621   9.033 -0.1239  0.1267 -0.2771
   67POPC   C1A  797   2.232   6.097   8.877  0.2836 -0.0717 -0.2059
   67POPC   D2A  798   2.475   6.226   8.479 -0.1085 -0.0823 -0.2324
   67POPC   C3A  799   2.354   6.588   8.245  0.0320 -0.0596 -0.2072
   67POPC   C4A  800   2.325   6.812   7.826  0.1744 -0.0851 -0.0753
   67POPC   C1B  801   2.123   5.697   8.557 -0.0339  0.1486 -0.0596
   67POPC   C2B  802   2.123   5.763   8.074 -0.3075  0.1592 -0.1540
   67POPC   C3B  803   2.322   5.801   7.670  0.1823 -0.1193 -0.2147
   67POPC   C4B  804   2.430   5.975   7.269  0.1779 -0.2371  0.0022
   68POPC   NC3  805  15.364  15.816   9.072  0.0194 -0.0211 -0.1425
   68POPC   PO4  806  15.270  15.730   8.687  0.0249  0.3714  0.0624
   68POPC   GL1  807  15.216  15.877   8.284 -0.0703 -0.1294  0.3094
   68POPC   GL2  808  14.978  15.991   8.084 -0.0453 -0.2831  0.0323
   68POPC   C1A  809  15.453  15.854   7.888  0.0721 -0.1054  0.0483
   68POPC   D2A  810  15.455  16.136   7.503  0.1520  0.0221  0.0196
   68POPC   C3A  811  15.533  16.303   7.090  0.2418 -0.0296  0.0936
   68POPC   C4A  812  15.712  16.399   6.622  0.1300  0.0977 -0.1132
   68POPC   C1B  813  15.190  16.317   7.866  0.0274 -0.1426 -0.1296
   68POPC   C2B  814  15.270  16.628   7.505  0.3793 -0.0379  0.0601
   68POPC   C3B  815  15.348  16.733   7.036 -0.1126  0.2306  0.3594
   68POPC   C4B  816  15.511  17.089   6.757  0.4012 -0.0755  0.1395
   69POPC   NC3  817   0.157  31.962   7.892 -0.0324  0.3562 -0.1614
   69POPC   PO4  818  -0.048  31.647   7.769  0.0605 -0.0574  0.0829
   69POPC   GL1  819  -0.145  31.801   7.456  0.1521  0.1151  0.2996
   69POPC   GL2  820  -0.319  31.715   7.210 -0.0959  0.2515  0.0762
   69POPC   C1A  821   0.063  32.070   7.124 -0.1526  0.0816 -0.0510
   69POPC   D2A  822   0.367  32.075   6.795 -0.0663 -0.0490 -0.0940
   69POPC   C3A  823   0.288  32.313   6.327 -0.0002 -0.1164 -0.3711
   69POPC   C4A  824   0.471  32.193   5.907 -0.0491 -0.2854  0.0455
   69POPC   C1B  825  -0.274  31.748   6.771  0.2441  0.1896  0.1989
   69POPC   C2B  826  -0.419  31.645   6.355  0.1293  0.2265 -0.0510
   69POPC   C3B  827  -0.474  31.664   5.902  0.0024 -0.1563 -0.2113
   69POPC   C4B  828  -0.796  31.805   5.610 -0.1651  0.0831 -0.2422
   70POPC   NC3  829  10.107   0.292  14.111 -0.1197  0.1115  0.0042
   70POPC   PO4  830  10.268   0.014  14.291 -0.0034 -0.1865 -0.0138
   70POPC   GL1  831  10.374   0.359  14.558 -0.2879  0.2493  0.0369
   70POPC   GL2  832  10.593   0.441  14.490 -0.1198 -0.2783  0.1512
   70POPC   C1A  833  10.176   0.670  14.766  0.3126 -0.0166  0.0981
   70POPC   D2A  834  10.097   1.062  14.943  0.2237 -0.3200 -0.1129
   70POPC   C3A  835  10.312   1.495  14.993 -0.0540  0.2777 -0.0355
   70POPC   C4A  836  10.345   1.858  15.264  0.0545  0.3245 -0.0241
   70POPC   C1B  837  10.692   0.736  14.833  0.0901 -0.2160 -0.1010
   70POPC   C2B  838  10.556   0.999  15.206 -0.0416  0.0827 -0.0011
   70POPC   C3B  839  10.393   1.108  15.631 -0.1044  0.0948  0.0217
   70POPC   C4B  840  10.427   1.407  15.992 -0.1001 -0.2302  0.0594
   71POPC   NC3  841   6.834   9.531  12.785  0.4321 -0.2622  0.2567
   71POPC   PO4  842   7.176   9.738  12.725 -0.0680  0.0575  0.0137
   71POPC   GL1  843   7.419   9.535  13.004  0.0668 -0.0986  0.1414
   71POPC   GL2  844   7.401   9.411  13.275 -0.1123  0.1052 -0.1740
   71POPC   C1A  845   7.835   9.329  12.979 -0.0001 -0.0293 -0.0275
   71POPC   D2A  846   8.110   9.003  13.166  0.0781 -0.0322  0.2057
   71POPC   C3A  847   8.159   8.547  13.202 -0.2095  0.0196 -0.2370
   71POPC   C4A  848   8.574   8.277  13.144 -0.3387 -0.1931  0.0039
   71POPC   C1B  849   7.678   9.063  13.455  0.1167  0.1598  0.2403
   71POPC   C2B  850   7.975   8.821  13.605 -0.0432  0.0554  0.1873
   71POPC   C3B  851   8.062   8.372  13.707 -0.4751  0.0613  0.3243
   71POPC   C4B  852   8.376   8.250  14.027 -0.1159  0.1432  0.1108
   72POPC   NC3  853  12.065  11.871   8.861 -0.0196 -0.0065 -0.0431
   72POPC   PO4  854  12.000  11.603   9.186 -0.0939 -0.1086 -0.2096
   72POPC   GL1  855  11.753  11.492   8.870  0.1110  0.2345 -0.4341
   72POPC   GL2  856  11.459  11.605   8.869 -0.0303 -0.1269 -0.0850
   72POPC   C1A  857  11.716  11.560   8.410 -0.0774 -0.2767  0.0250
   72POPC   D2A  858  11.359  11.615   8.067 -0.0583 -0.0864  0.1496
   72POPC   C3A  859  11.677  11.681   7.719  0.2119  0.1674  0.2254
   72POPC   C4A  860  12.031  11.487   7.404 -0.1965  0.2116 -0.0831
   72POPC   C1B  861  11.237  11.394   8.481 -0.0689  0.2216  0.1235
   72POPC   C2B  862  10.895  11.433   8.169  0.3897  0.1182 -0.0967
   72POPC   C3B  863  10.847  11.379   7.670 -0.0313 -0.0137 -0.2612
   72POPC   C4B  864  11.040  11.367   7.239  0.1241 -0.0279 -0.0507
   73POPC   NC3  865  16.298   5.019   9.329  0.0623  0.0291 -0.1120
   73POPC   PO4  866  15.968   4.806   9.391 -0.0204 -0.0723  0.0540
   73POPC   GL1  867  16.064   4.788   8.987 -0.0809 -0.1166 -0.0227
   73POPC   GL2  868  16.209   4.581   8.978  0.0213  0.0051 -0.0911
   73POPC   C1A  869  15.834   4.763   8.534  0.0469 -0.0769 -0.1252
   73POPC   D2A  870  15.871   4.757   8.055 -0.0261 -0.1176  0.0452
   73POPC   C3A  871  16.076   4.874   7.651  0.1753  0.1210 -0.1354
   73POPC   C4A  872  16.254   4.954   7.261 -0.2098  0.0818 -0.1022
   73POPC   C1B  873  16.418   4.642   8.571  0.1010 -0.0848 -0.0775
   73POPC   C2B  874  16.419   4.670   8.062  0.4432 -0.0241  0.1260
   73POPC   C3B  875  16.526   4.607   7.588  0.2331  0.3070 -0.1291
   73POPC   C4B  876  16.447   4.415   7.174  0.2160 -0.1982  0.2419
   74POPC   NC3  877  12.973  14.241   9.011 -0.0150  0.0197  0.2232
   74POPC   PO4  878  13.149  14.090   8.692 -0.2780 -0.1915 -0.0141
   74POPC   GL1  879  13.234  14.078   8.308 -0.1048 -0.0089  0.0032
   74POPC   GL2  880  13.112  13.876   8.260 -0.1030  0.0731 -0.0875
   74POPC   C1A  881  13.003  14.102   7.872 -0.2011  0.0472 -0.1123
   74POPC   D2A  882  12.995  14.273   7.466 -0.0838  0.1068 -0.2713
   74POPC   C3A  883  12.822  14.085   7.089  0.0096 -0.1290  0.1210
   74POPC   C4A  884  12.893  14.233   6.603 -0.1151  0.0592 -0.2466
   74POPC   C1B  885  13.311  13.564   8.103 -0.1029  0.1418  0.0077
   74POPC   C2B  886  13.508  13.446   7.640  0.1477 -0.1531 -0.0646
   74POPC   C3B  887  13.486  12.987   7.450  0.3823  0.2083  0.1251
   74POPC   C4B  888  13.296  12.538   7.379 -0.0707 -0.2596  0.4001
   75POPC   NC3  889  15.518   6.576   9.456  0.1474 -0.3543 -0.1672
   75POPC   PO4  890  15.327   6.368   9.712 -0.0979  0.0131  0.1800
   75POPC   GL1  891  15.012   6.427   9.455  0.2695 -0.2050 -0.2085
   75POPC   GL2  892  14.891   6.684   9.496  0.1633  0.0840  0.3023
   75POPC   C1A  893  14.765   6.199   9.134  0.1577 -0.1497  0.0663
   75POPC   D2A  894  14.487   6.102   8.725 -0.0898  0.0430  0.0287
   75POPC   C3A  895  14.165   6.383   8.625  0.1123 -0.0438 -0.0059
   75POPC   C4A  896  13.960   6.734   8.876 -0.1213  0.0334 -0.0262
   75POPC   C1B  897  14.515   6.446   9.523  0.0349  0.0642  0.0624
   75POPC   C2B  898  14.068   6.455   9.504 -0.1590  0.1410  0.1598
   75POPC   C3B  899  13.760   6.787   9.315  0.0142 -0.1335  0.1371
   75POPC   C4B  900  13.664   7.234   9.117 -0.0654  0.0711  0.0573
   76POPC   NC3  901   6.205  13.931   8.382 -0.1122  0.2480 -0.3866
   76POPC   PO4  902   6.421  13.637   8.497 -0.4221 -0.1296 -0.2191
   76POPC   GL1  903   6.412  13.555   8.102 -0.0975  0.4247  0.1628
   76POPC   GL2  904   6.677  13.532   8.035 -0.1137 -0.0429  0.4074
   76POPC   C1A  905   6.362  13.759   7.668 -0.0405  0.3875  0.0256
   76POPC   D2A  906   6.591  13.904   7.270 -0.2454 -0.0278 -0.2259
   76POPC   C3A  907   6.441  14.141   6.886  0.1103 -0.1765 -0.2828
   76POPC   C4A  908   6.113  14.218   6.597  0.1790  0.0273  0.0044
   76POPC   C1B  909   6.757  13.406   7.608  0.2874 -0.1740  0.2259
   76POPC   C2B  910   6.669  13.207   7.188 -0.0513  0.0046  0.1132
   76POPC   C3B  911   6.375  13.124   6.823 -0.0865  0.0884 -0.1783
   76POPC   C4B  912   6.333  12.767   6.513 -0.0048  0.0883 -0.1419
   77POPC   NC3  913  14.914   8.925  10.084 -0.0810  0.2576  0.1685
   77POPC   PO4  914  14.531   9.012  10.000  0.2029 -0.1987  0.1916
   77POPC   GL1  915  14.612   8.959   9.655 -0.1068  0.0474 -0.2534
   77POPC   GL2  916  14.733   8.625   9.677  0.3565 -0.1156 -0.1548
   77POPC   C1A  917  14.257   8.927   9.334 -0.0503  0.0006 -0.1298
   77POPC   D2A  918  13.887   8.705   9.337  0.2403  0.1874 -0.2287
   77POPC   C3A  919  13.739   8.512   8.898  0.0592  0.1234 -0.3771
   77POPC   C4A  920  13.676   8.277   8.499  0.2894  0.0681  0.0516
   77POPC   C1B  921  14.857   8.694   9.238  0.0636 -0.0843 -0.2523
   77POPC   C2B  922  14.966   8.751   8.814  0.0000  0.0998  0.0661
   77POPC   C3B  923  15.019   8.889   8.389  0.1115  0.1389 -0.0329
   77POPC   C4B  924  14.833   9.093   8.020  0.1233 -0.4005  0.1853
   78POPC   NC3  925   5.327   6.871  11.280 -0.1180 -0.0516 -0.5227
   78POPC   PO4  926   5.288   7.130  11.010  0.1381  0.2376 -0.0137
   78POPC   GL1  927   5.556   7.091  10.794  0.0459  0.1425 -0.4003
   78POPC   GL2  928   5.534   7.325  10.600 -0.1367  0.1220  0.0265
   78POPC   C1A  929   5.956   6.838  10.616 -0.0664 -0.0480  0.0137
   78POPC   D2A  930   5.973   6.586  10.219  0.1302 -0.1137 -0.0252
   78POPC   C3A  931   6.400   6.532  10.021  0.1650 -0.0299  0.1150
   78POPC   C4A  932   6.806   6.461  10.084  0.0723 -0.1716  0.0421
   78POPC   C1B  933   5.973   7.336  10.559 -0.0653 -0.0784  0.2804
   78POPC   C2B  934   6.377   7.527  10.422 -0.2212 -0.2629  0.1957
   78POPC   C3B  935   6.760   7.586  10.206  0.1963 -0.2077  0.0684
   78POPC   C4B  936   7.163   7.450   9.998  0.2768 -0.1084  0.0014
   79POPC   NC3  937   6.199  15.763   8.387 -0.1125 -0.1281 -0.1650
   79POPC   PO4  938   6.347  15.880   8.730 -0.0054  0.2498  0.0080
   79POPC   GL1  939   6.432  16.238   8.536  0.3221  0.0850  0.2638
   79POPC   GL2  940   6.469  16.158   8.290 -0.3981  0.1420 -0.3382
   79POPC   C1A  941   6.289  16.653   8.658  0.2952 -0.1863  0.1199
   79POPC   D2A  942   6.351  17.081   8.488 -0.1126  0.3233 -0.0384
   79POPC   C3A  943   6.253  17.228   8.042  0.1170 -0.0869  0.1009
   79POPC   C4A  944   6.384  17.320   7.559 -0.1533  0.0628  0.0403
   79POPC   C1B  945   6.491  16.201   7.809  0.0691  0.0421 -0.3442
   79POPC   C2B  946   6.715  16.245   7.386  0.0001 -0.2368 -0.1086
   79POPC   C3B  947   6.971  16.045   7.090 -0.1283  0.3471 -0.1491
   79POPC   C4B  948   7.248  16.126   6.757  0.1071  0.2069 -0.3678
   80POPC   NC3  949   1.172  13.918   8.082 -0.0264 -0.2077 -0.0015
   80POPC   PO4  950   0.809  14.006   7.940  0.0600  0.0898 -0.2585
   80POPC   GL1  951   1.031  13.859   7.653 -0.2010 -0.5839 -0.1514
   80POPC   GL2  952   1.345  13.835   7.624 -0.3376  0.1749 -0.0590
   80POPC   C1A  953   0.867  13.725   7.240 -0.3012 -0.1402 -0.1972
   80POPC   D2A  954   0.857  13.535   6.795  0.0763 -0.0045 -0.2044
   80POPC   C3A  955   0.890  13.088   6.605 -0.0160 -0.3402  0.2557
   80POPC   C4A  956   0.913  12.751   6.356 -0.3096 -0.2323 -0.1521
   80POPC   C1B  957   1.298  13.569   7.315  0.1613  0.0231 -0.1420
   80POPC   C2B  958   1.374  13.478   6.904  0.2750  0.2794  0.0297
   80POPC   C3B  959   1.354  13.173   6.554  0.0933  0.1701 -0.2589
   80POPC   C4B  960   1.536  12.830   6.407 -0.2820  0.1116  0.1662
   81POPC   NC3  961   5.792  12.076   9.002  0.2756  0.2916  0.1440
   81POPC   PO4  962   5.562  12.313   8.760 -0.4301 -0.0216 -0.0269
   81POPC   GL1  963   5.641  11.888   8.445 -0.1145 -0.2039  0.0051
   81POPC   GL2  964   5.651  11.709   8.571  0.3399  0.0185  0.0736
   81POPC   C1A  965   5.848  11.754   8.085  0.0341 -0.1090 -0.1548
   81POPC   D2A  966   5.708  11.520   7.729 -0.1400  0.1476  0.4388
   81POPC   C3A  967   5.852  11.278   7.359 -0.0108 -0.1845 -0.1831
   81POPC   C4A  968   6.108  10.898   7.390 -0.1031 -0.0629  0.2553
   81POPC   C1B  969   5.859  11.331   8.372  0.2031  0.3347  0.1670
   81POPC   C2B  970   5.960  11.128   8.013  0.0278  0.0603 -0.0804
   81POPC   C3B  971   5.689  10.865   7.719  0.1080 -0.2692  0.1029
   81POPC   C4B  972   5.635  10.716   7.303 -0.1782 -0.0634  0.0577
   82POPC   NC3  973   4.566  15.653   9.157  0.3095 -0.3497  0.0538
   82POPC   PO4  974   4.469  15.471   8.875 -0.2149  0.3764  0.0876
   82POPC   GL1  975   4.433  15.481   8.452  0.0260  0.0699 -0.2512
   82POPC   GL2  976   4.256  15.735   8.323 -0.3064  0.3055 -0.1723
   82POPC   C1A  977   4.714  15.476   8.083  0.1943 -0.1103 -0.1419
   82POPC   D2A  978   4.879  15.271   7.720 -0.3298 -0.1559  0.4224
   82POPC   C3A  979   4.971  15.263   7.206  0.3708 -0.1254 -0.0335
   82POPC   C4A  980   4.982  15.008   6.848 -0.0497 -0.0734 -0.3030
   82POPC   C1B  981   4.363  15.720   7.877  0.2616  0.1118 -0.1014
   82POPC   C2B  982   4.819  15.782   7.688  0.0502  0.0141 -0.0057
   82POPC   C3B  983   5.240  15.653   7.444  0.3453 -0.1725  0.0067
   82POPC   C4B  984   5.708  15.694   7.550  0.0991  0.1410 -0.0071
   83POPC   NC3  985  15.145  32.533   9.131  0.0495 -0.1545  0.2684
   83POPC   PO4  986  14.841  32.601   8.862  0.0532  0.1652  0.2646
   83POPC   GL1  987  15.153  32.834   8.776 -0.1179  0.2571 -0.0387
   83POPC   GL2  988  15.407  32.616   8.719 -0.3327  0.1018  0.0457
   83POPC   C1A  989  15.282  32.911   8.358 -0.0320  0.2799 -0.2141
   83POPC   D2A  990  15.656  32.899   8.029 -0.1672  0.1025 -0.2235
   83POPC   C3A  991  15.466  32.887   7.601 -0.1092 -0.1675  0.1932
   83POPC   C4A  992  15.384  32.770   7.160  0.0622  0.1681 -0.0052
   83POPC   C1B  993  15.178  32.359   8.398 -0.0473 -0.3082 -0.0962
   83POPC   C2B  994  15.018  32.127   8.067  0.3839  0.1055  0.1217
   83POPC   C3B  995  14.961  32.053   7.585  0.1249  0.3409 -0.1657
   83POPC   C4B  996  14.915  31.952   7.160 -0.1199 -0.0796  0.0556
   84POPC   NC3  997   3.373  12.139   8.214 -0.0850  0.0999 -0.0071
   84POPC   PO4  998   3.336  12.511   8.208  0.1603 -0.4178  0.0220
   84POPC   GL1  999   3.487  12.514   7.818  0.3193 -0.0428  0.1372
   84POPC   GL2 1000   3.244  12.623   7.730  0.0976  0.0644  0.3042
   84POPC   C1A 1001   3.862  12.375   7.577 -0.2111  0.3897  0.0551
   84POPC   D2A 1002   4.257  12.326   7.253  0.0820 -0.0696 -0.3670
   84POPC   C3A 1003   4.693  12.326   7.323  0.2026 -0.1393  0.0140
   84POPC   C4A 1004   4.958  12.699   7.385  0.0773 -0.1832 -0.2038
   84POPC   C1B 1005   3.432  12.449   7.346 -0.1370 -0.0190  0.3012
   84POPC   C2B 1006   3.782  12.298   7.062  0.1787  0.1023  0.0879
   84POPC   C3B 1007   4.141  12.102   6.801 -0.2029 -0.0549  0.1092
   84POPC   C4B 1008   4.251  12.132   6.303  0.0697 -0.1049 -0.0412
   85POPC   NC3 1009   1.039  11.836   8.269  0.0201  0.0819 -0.0360
   85POPC   PO4 1010   0.893  11.949   8.638  0.2115 -0.3281 -0.1346
   85POPC   GL1 1011   0.650  11.561   8.522 -0.1465 -0.1221 -0.0977
   85POPC   GL2 1012   0.461  11.722   8.424 -0.1409 -0.2740  0.1848
   85POPC   C1A 1013   0.740  11.452   8.061 -0.1557 -0.1803  0.0263
   85POPC   D2A 1014   0.626  11.377   7.590 -0.1175  0.1670  0.1190
   85POPC   C3A 1015   0.488  11.239   7.152 -0.2421  0.0007 -0.0244
   85POPC   C4A 1016   0.297  10.864   6.998  0.1308  0.0979 -0.2408
   85POPC   C1B 1017   0.310  11.622   7.955 -0.1137 -0.0696 -0.0898
   85POPC   C2B 1018   0.209  11.659   7.508 -0.0814  0.2037 -0.2594
   85POPC   C3B 1019   0.007  11.617   7.081 -0.2208  0.0374 -0.1192
   85POPC   C4B 1020  -0.074  11.196   6.901  0.1694 -0.0369  0.1547
   86POPC   NC3 1021   2.389  12.115   8.607  0.2286  0.2074 -0.3052
   86POPC   PO4 1022   2.315  11.719   8.560 -0.2399 -0.1261  0.1119
   86POPC   GL1 1023   2.338  11.625   8.250 -0.4597  0.1180 -0.1354
   86POPC   GL2 1024   2.514  11.791   7.981  0.1702 -0.3432 -0.2440
   86POPC   C1A 1025   2.244  11.322   7.903 -0.2011 -0.2819 -0.0045
   86POPC   D2A 1026   2.022  11.334   7.471 -0.1332  0.0797  0.0606
   86POPC   C3A 1027   2.057  11.359   7.035  0.1816 -0.0642  0.0833
   86POPC   C4A 1028   2.185  11.378   6.621  0.3913  0.0863  0.2139
   86POPC   C1B 1029   2.804  11.843   7.635  0.3268 -0.3113 -0.0591
   86POPC   C2B 1030   3.027  12.018   7.249 -0.2427 -0.1870 -0.1538
   86POPC   C3B 1031   3.288  11.920   6.865 -0.0014  0.2341 -0.1883
   86POPC   C4B 1032   3.313  11.853   6.390 -0.0400 -0.1178 -0.0088
   87POPC   NC3 1033   4.829   0.757   9.298  0.2058 -0.0118 -0.0589
   87POPC   PO4 1034   5.173   0.683   9.437  0.1967 -0.1627  0.2478
   87POPC   GL1 1035   5.261   0.837   9.055  0.2826  0.3508  0.2094
   87POPC   GL2 1036   5.443   1.043   9.069 -0.1274 -0.0980 -0.1588
   87POPC   C1A 1037   5.207   0.667   8.659  0.0119 -0.0907  0.2464
   87POPC   D2A 1038   5.120   0.859   8.235 -0.0394  0.1080 -0.2805
   87POPC   C3A 1039   5.079   1.146   7.876 -0.0681 -0.0480  0.0348
   87POPC   C4A 1040   5.014   1.094   7.414 -0.1179  0.1030 -0.0305
   87POPC   C1B 1041   5.232   1.205   8.671  0.1316  0.0947  0.0230
   87POPC   C2B 1042   5.334   1.377   8.243 -0.2326 -0.0735 -0.0387
   87POPC   C3B 1043   5.545   1.391   7.841 -0.1688 -0.0412  0.2881
   87POPC   C4B 1044   5.558   1.639   7.432 -0.2035 -0.1349 -0.1507
   88POPC   NC3 1045  14.625  11.152  16.122  0.0090 -0.2484 -0.1541
   88POPC   PO4 1046  14.404  11.215  16.453  0.1225  0.2831  0.0914
   88POPC   GL1 1047  14.499  10.995  16.729 -0.2752 -0.3401 -0.0766
   88POPC   GL2 1048  14.640  11.209  16.899 -0.0565 -0.1835  0.0270
   88POPC   C1A 1049  14.359  10.709  17.083 -0.1572 -0.1988 -0.0593
   88POPC   D2A 1050  14.129  10.577  17.513 -0.0608 -0.2957 -0.1508
   88POPC   C3A 1051  14.297  10.606  17.951 -0.0664  0.1080 -0.3294
   88POPC   C4A 1052  14.550  10.357  18.257 -0.3395 -0.1006 -0.0228
   88POPC   C1B 1053  14.775  11.071  17.291  0.0564 -0.1019  0.0262
   88POPC   C2B 1054  15.218  10.885  17.508  0.2150  0.1248 -0.0204
   88POPC   C3B 1055  15.511  10.695  17.810 -0.4050 -0.2307  0.1242
   88POPC   C4B 1056  15.687  10.271  18.003 -0.1816 -0.1858  0.0143
   89POPC   NC3 1057  12.220   1.026  10.160  0.1980  0.0773 -0.0626
   89POPC   PO4 1058  11.861   0.846  10.182 -0.1543 -0.1825 -0.3620
   89POPC   GL1 1059  11.803   1.211  10.054 -0.0033  0.1060  0.0323
   89POPC   GL2 1060  11.824   1.160   9.805 -0.1342 -0.3166  0.1234
   89POPC   C1A 1061  11.422   1.462   9.875  0.2476 -0.0861 -0.1095
   89POPC   D2A 1062  11.341   1.789   9.530  0.0233  0.2672  0.1157
   89POPC   C3A 1063  10.919   1.756   9.473  0.0593 -0.1140 -0.0061
   89POPC   C4A 1064  10.563   1.649   9.313 -0.1910  0.0147  0.0378
   89POPC   C1B 1065  11.815   1.505   9.519 -0.2085  0.0498  0.0530
   89POPC   C2B 1066  11.889   1.965   9.499 -0.1311  0.0429 -0.0030
   89POPC   C3B 1067  11.840   2.416   9.505 -0.0072 -0.4240 -0.0200
   89POPC   C4B 1068  11.988   2.916   9.536  0.3306  0.2372 -0.1085
   90POPC   NC3 1069  11.427  14.306   8.775  0.1055  0.1700  0.0003
   90POPC   PO4 1070  11.735  14.142   8.854 -0.0966 -0.0105 -0.0614
   90POPC   GL1 1071  11.788  14.062   8.467  0.0063 -0.0235  0.2319
   90POPC   GL2 1072  11.582  14.216   8.320 -0.4710  0.3982  0.3174
   90POPC   C1A 1073  11.663  13.738   8.195 -0.0548 -0.0180  0.0202
   90POPC   D2A 1074  11.707  13.698   7.749  0.1705  0.0537 -0.0909
   90POPC   C3A 1075  11.589  13.847   7.354  0.2931  0.1015 -0.0251
   90POPC   C4A 1076  11.643  13.938   6.925  0.1883 -0.0303  0.0693
   90POPC   C1B 1077  11.491  14.218   7.876 -0.0893  0.0977  0.2873
   90POPC   C2B 1078  11.264  14.232   7.448  0.0712  0.0211 -0.2208
   90POPC   C3B 1079  11.092  13.800   7.351 -0.3697 -0.3709 -0.0664
   90POPC   C4B 1080  10.892  13.752   6.934  0.2164 -0.0178 -0.1642
   91POPC   NC3 1081   3.555   6.645  15.511  0.0911 -0.1055  0.2241
   91POPC   PO4 1082   3.172   6.532  15.607 -0.0002  0.0354  0.0936
   91POPC   GL1 1083   3.309   6.455  15.943  0.1621 -0.1256 -0.0583
   91POPC   GL2 1084   3.484   6.197  15.849  0.1190  0.2191 -0.2125
   91POPC   C1A 1085   3.038   6.512  16.344 -0.0310 -0.2170  0.0327
   91POPC   D2A 1086   3.115   6.337  16.752  0.1480 -0.1642  0.2144
   91POPC   C3A 1087   3.454   6.062  16.877 -0.3675 -0.3874  0.1352
   91POPC   C4A 1088   3.691   5.721  17.082 -0.0356 -0.1954  0.1595
   91POPC   C1B 1089   3.821   5.904  15.698 -0.1421  0.0198 -0.0561
   91POPC   C2B 1090   4.291   5.814  15.799  0.1310  0.1262 -0.0963
   91POPC   C3B 1091   4.689   5.772  16.010 -0.0558 -0.1020 -0.0750
   91POPC   C4B 1092   4.887   5.762  16.383 -0.1152 -0.1627 -0.0774
   92POPC   NC3 1093   0.806   9.732   8.898 -0.3674 -0.0286 -0.1992
   92POPC   PO4 1094   0.523   9.620   9.142  0.0048  0.2927 -0.1856
   92POPC   GL1 1095   0.344   9.523   8.794  0.0842  0.2431 -0.1262
   92POPC   GL2 1096   0.383   9.745   8.597  0.0015 -0.0601 -0.0542
   92POPC   C1A 1097   0.483   9.176   8.537  0.0123  0.1580  0.1644
   92POPC   D2A 1098   0.246   8.833   8.315 -0.2586  0.1730 -0.3346
   92POPC   C3A 1099   0.333   8.717   7.891  0.0222  0.1532  0.1627
   92POPC   C4A 1100   0.247   8.324   7.626 -0.3428 -0.0074  0.0314
   92POPC   C1B 1101   0.383   9.580   8.081  0.1852 -0.2116  0.1109
   92POPC   C2B 1102   0.454   9.188   7.813  0.1901  0.0562  0.2981
   92POPC   C3B 1103   0.442   8.956   7.404 -0.0657  0.3059 -0.0175
   92POPC   C4B 1104   0.665   8.930   6.972 -0.1944 -0.0382  0.1441
   93POPC   NC3 1105  15.580   3.519   9.722  0.1346  0.0057 -0.0881
   93POPC   PO4 1106  15.327   3.235   9.853  0.0235 -0.2474  0.2182
   93POPC   GL1 1107  15.189   3.342   9.476 -0.1424 -0.2415  0.0099
   93POPC   GL2 1108  15.069   3.569   9.560 -0.0666 -0.1515  0.1870
   93POPC   C1A 1109  15.199   3.424   9.007 -0.1154  0.0934 -0.0897
   93POPC   D2A 1110  15.043   3.563   8.582  0.4077 -0.2344 -0.0905
   93POPC   C3A 1111  14.625   3.803   8.469  0.1493  0.2529 -0.4013
   93POPC   C4A 1112  14.364   4.102   8.232  0.0204 -0.0416  0.1340
   93POPC   C1B 1113  14.894   3.957   9.387 -0.0574  0.0518  0.1656
   93POPC   C2B 1114  14.546   3.996   9.108 -0.0565  0.0607 -0.1906
   93POPC   C3B 1115  14.356   4.210   8.742 -0.0061  0.1344  0.3286
   93POPC   C4B 1116  13.997   4.465   8.468 -0.0766 -0.2687  0.1316
   94POPC   NC3 1117   8.428  17.599  10.646  0.1608  0.0514  0.1870
   94POPC   PO4 1118   8.659  17.365  10.381 -0.1610  0.3757 -0.1426
   94POPC   GL1 1119   8.491  17.429  10.061  0.0992 -0.2115 -0.1748
   94POPC   GL2 1120   8.346  17.646  10.131 -0.2279  0.1120 -0.1842
   94POPC   C1A 1121   8.595  17.542   9.626  0.0107  0.0166  0.0794
   94POPC   D2A 1122   8.578  17.939   9.375 -0.1968 -0.1162  0.1143
   94POPC   C3A 1123   8.192  18.102   9.155 -0.2597 -0.0811 -0.1012
   94POPC   C4A 1124   8.230  18.398   8.786 -0.0652  0.1416 -0.1333
   94POPC   C1B 1125   8.240  17.949   9.831 -0.2347  0.1719  0.1071
   94POPC   C2B 1126   8.304  18.396   9.594  0.3319  0.0509 -0.0170
   94POPC   C3B 1127   8.484  18.599   9.174 -0.1344 -0.1256 -0.2278
   94POPC   C4B 1128   8.808  18.900   9.210  0.2260  0.0719  0.0834
   95POPC   NC3 1129   6.616  16.759   9.447  0.0855 -0.2950 -0.1644
   95POPC   PO4 1130   6.798  16.994   9.682 -0.0430 -0.0109  0.0360
   95POPC   GL1 1131   6.837  17.152   9.285  0.6770  0.1498  0.3693
   95POPC   GL2 1132   7.098  17.290   9.318  0.2287 -0.2322  0.3169
   95POPC   C1A 1133   6.994  17.101   8.833 -0.1497 -0.0683 -0.1341
   95POPC   D2A 1134   7.031  17.233   8.385  0.2329  0.2347  0.1867
   95POPC   C3A 1135   7.178  17.471   8.014  0.0538  0.1568  0.0793
   95POPC   C4A 1136   7.338  17.531   7.581  0.2683 -0.1750  0.1216
   95POPC   C1B 1137   7.137  17.731   9.245 -0.1811  0.0817  0.3977
   95POPC   C2B 1138   7.027  18.088   8.933  0.0253  0.1161  0.3398
   95POPC   C3B 1139   6.836  18.544   8.945 -0.1313 -0.1596  0.1092
   95POPC   C4B 1140   6.605  18.962   8.856  0.1508 -0.0847  0.2608
   96POPC   NC3 1141   2.469   4.900   9.144 -0.2174  0.0377  0.0057
   96POPC   PO4 1142   2.347   4.566   9.047 -0.3063  0.1340 -0.2000
   96POPC   GL1 1143   2.040   4.614   8.835  0.0236 -0.4152  0.2849
   96POPC   GL2 1144   2.193   4.633   8.518  0.1096  0.0699 -0.1094
   96POPC   C1A 1145   1.764   4.447   8.484  0.2219 -0.0434 -0.0841
   96POPC   D2A 1146   1.666   4.315   8.047  0.1060  0.2785 -0.3114
   96POPC   C3A 1147   2.032   4.384   7.795  0.2557 -0.0706 -0.0768
   96POPC   C4A 1148   2.334   4.514   7.472  0.1613 -0.1172  0.1654
   96POPC   C1B 1149   2.000   4.829   8.098 -0.0904  0.3054  0.3018
   96POPC   C2B 1150   1.818   5.147   7.923  0.1331 -0.0686  0.0220
   96POPC   C3B 1151   1.843   5.564   7.698 -0.1261  0.0872 -0.0259
   96POPC   C4B 1152   1.857   6.008   7.579 -0.0847 -0.0750  0.1693
   97POPC   NC3 1153  11.975   0.553   9.260 -0.1120 -0.1581 -0.0629
   97POPC   PO4 1154  12.333   0.489   9.372 -0.0114 -0.2327  0.1998
   97POPC   GL1 1155  12.381   0.676   9.042  0.1809  0.2609 -0.1684
   97POPC   GL2 1156  12.232   0.951   8.948 -0.0811  0.3497 -0.0222
   97POPC   C1A 1157  12.166   0.602   8.667 -0.2886 -0.0853 -0.1725
   97POPC   D2A 1158  11.801   0.409   8.346 -0.1627  0.1558 -0.2259
   97POPC   C3A 1159  11.740   0.387   7.861  0.1453  0.0120  0.1697
   97POPC   C4A 1160  11.451   0.140   7.559 -0.2536 -0.1492 -0.0822
   97POPC   C1B 1161  12.237   1.178   8.542 -0.1767  0.1281  0.0775
   97POPC   C2B 1162  12.438   1.467   8.203  0.1735  0.0119 -0.0536
   97POPC   C3B 1163  12.395   1.807   7.845  0.2148  0.0599  0.1314
   97POPC   C4B 1164  12.077   1.882   7.504 -0.1521 -0.0848 -0.4496
   98POPC   NC3 1165  13.840   4.033  13.540  0.0785  0.3134  0.1238
   98POPC   PO4 1166  14.176   4.208  13.538 -0.0953 -0.3301  0.2679
   98POPC   GL1 1167  13.799   4.435  13.686 -0.1598  0.0316  0.1999
   98POPC   GL2 1168  13.614   4.515  13.489  0.0914 -0.0104  0.2303
   98POPC   C1A 1169  13.455   4.614  14.008 -0.1294 -0.2230  0.4427
   98POPC   D2A 1170  13.375   4.845  14.431  0.1574  0.3418 -0.2558
   98POPC   C3A 1171  13.301   4.590  14.783  0.1214  0.0447 -0.0216
   98POPC   C4A 1172  13.183   4.241  15.075 -0.0639  0.0713  0.0028
   98POPC   C1B 1173  13.108   4.507  13.640  0.1703  0.1819 -0.0304
   98POPC   C2B 1174  12.663   4.327  13.615  0.2933 -0.1672 -0.0690
   98POPC   C3B 1175  12.206   4.196  13.557 -0.0080 -0.5257 -0.0163
   98POPC   C4B 1176  11.788   4.005  13.738 -0.0080 -0.0139  0.0471
   99POPC   NC3 1177   5.264   8.071  13.364 -0.0782  0.1422 -0.2099
   99POPC   PO4 1178   5.207   8.167  13.009  0.3044 -0.0875 -0.0038
   99POPC   GL1 1179   5.623   8.105  12.977 -0.0175 -0.1068 -0.0493
   99POPC   GL2 1180   5.681   8.398  12.799 -0.1530  0.1257  0.0733
   99POPC   C1A 1181   6.060   8.152  13.034 -0.0713  0.0983 -0.6090
   99POPC   D2A 1182   6.549   8.093  13.126  0.0368  0.1685 -0.1288
   99POPC   C3A 1183   6.802   8.140  13.477 -0.3100  0.3501 -0.2717
   99POPC   C4A 1184   7.098   7.830  13.628 -0.1141 -0.0673 -0.0880
   99POPC   C1B 1185   5.746   8.025  12.575  0.1777 -0.2551  0.1145
   99POPC   C2B 1186   5.839   7.594  12.692  0.3666  0.0509 -0.2839
   99POPC   C3B 1187   6.183   7.334  12.538  0.0073  0.0249 -0.1691
   99POPC   C4B 1188   6.577   7.206  12.358 -0.3446  0.3071 -0.2733
  100POPC   NC3 1189   2.078   9.324   9.160 -0.2552 -0.1592  0.1042
  100POPC   PO4 1190   2.077   8.972   9.182 -0.1773  0.3631 -0.0452
  100POPC   GL1 1191   2.075   8.975   8.800  0.0777  0.1350  0.2969
  100POPC   GL2 1192   2.399   9.034   8.732 -0.1861  0.0560  0.3369
  100POPC   C1A 1193   1.805   8.824   8.442  0.0116 -0.0142  0.1404
  100POPC   D2A 1194   1.690   8.839   7.971  0.3837 -0.0484 -0.3230
  100POPC   C3A 1195   1.693   8.578   7.622 -0.2939 -0.1262 -0.0272
  100POPC   C4A 1196   1.579   8.552   7.164  0.4003  0.2096 -0.2758
  100POPC   C1B 1197   2.303   9.025   8.258  0.1887  0.1602  0.0758
  100POPC   C2B 1198   2.082   9.088   7.872  0.2282  0.0327 -0.1034
  100POPC   C3B 1199   2.087   8.863   7.441 -0.1249 -0.2369 -0.1628
  100POPC   C4B 1200   2.129   8.835   6.985 -0.1168 -0.0565 -0.0502
  101POPC   NC3 1201   6.018   9.837   9.722 -0.1026 -0.2619 -0.3518
  101POPC   PO4 1202   5.648   9.703   9.852 -0.1573  0.2203  0.2973
  101POPC   GL1 1203   5.691   9.465   9.561  0.1135  0.2679 -0.0624
  101POPC   GL2 1204   5.611   9.157   9.609 -0.1383 -0.1165 -0.2326
  101POPC   C1A 1205   6.095   9.386   9.360 -0.3797  0.1582 -0.0742
  101POPC   D2A 1206   6.478   9.174   9.261 -0.2326 -0.0049 -0.0489
  101POPC   C3A 1207   6.887   9.312   9.065 -0.0718  0.0739  0.0295
  101POPC   C4A 1208   6.962   9.799   9.098 -0.1792  0.0489  0.0157
  101POPC   C1B 1209   5.770   8.949   9.306 -0.3715  0.1510 -0.0914
  101POPC   C2B 1210   6.052   8.967   8.968  0.1874  0.3314  0.0952
  101POPC   C3B 1211   6.038   8.910   8.504  0.1712  0.0815  0.0372
  101POPC   C4B 1212   5.976   8.710   8.135  0.0971  0.1067 -0.3549
  102POPC   NC3 1213   9.294   1.193  11.498 -0.1094  0.3524  0.0767
  102POPC   PO4 1214   9.543   0.974  11.352  0.0054  0.3036 -0.1852
  102POPC   GL1 1215   9.692   1.359  11.397 -0.3313 -0.0510  0.1544
  102POPC   GL2 1216   9.676   1.497  11.611  0.0557 -0.1384 -0.1200
  102POPC   C1A 1217   9.815   1.751  11.110  0.1049  0.0837 -0.2483
  102POPC   D2A 1218   9.835   2.003  10.721  0.3245 -0.0710 -0.1981
  102POPC   C3A 1219   9.970   2.452  10.701 -0.3199  0.1753 -0.5744
  102POPC   C4A 1220  10.125   2.882  10.801  0.0608  0.2465 -0.0867
  102POPC   C1B 1221   9.601   1.872  11.861 -0.2967  0.0546 -0.1378
  102POPC   C2B 1222   9.651   2.370  11.965  0.2826  0.0574 -0.3762
  102POPC   C3B 1223   9.754   2.683  11.641  0.0872 -0.0665  0.0215
  102POPC   C4B 1224   9.953   3.066  11.831  0.0029 -0.0702  0.3057
  103POPC   NC3 1225  14.195   4.451  14.106 -0.5834 -0.0324 -0.0663
  103POPC   PO4 1226  14.395   4.434  14.420 -0.0846 -0.1497 -0.0617
  103POPC   GL1 1227  14.238   4.228  14.738 -0.2733  0.1697  0.0902
  103POPC   GL2 1228  14.215   4.389  14.937 -0.3123 -0.1962  0.0529
  103POPC   C1A 1229  13.879   3.950  14.696  0.0173  0.1678 -0.0167
  103POPC   D2A 1230  13.515   3.597  14.694  0.0432  0.0576 -0.1666
  103POPC   C3A 1231  13.228   3.752  15.076 -0.3069  0.3240  0.1126
  103POPC   C4A 1232  13.019   3.935  15.459 -0.0631  0.2159 -0.0978
  103POPC   C1B 1233  13.809   4.303  15.056  0.0226 -0.2624  0.2597
  103POPC   C2B 1234  13.489   4.591  15.281 -0.3770  0.1643 -0.0704
  103POPC   C3B 1235  13.057   4.575  15.512 -0.2213 -0.2380  0.1163
  103POPC   C4B 1236  12.731   4.625  15.897  0.3196  0.1971  0.2237
  104POPC   NC3 1237   3.731  32.711   8.584  0.0704  0.2577 -0.0362
  104POPC   PO4 1238   4.070  32.598   8.741 -0.1907 -0.0469 -0.0605
  104POPC   GL1 1239   4.208  32.698   8.391 -0.0580  0.0705  0.1136
  104POPC   GL2 1240   4.024  32.819   8.151  0.2753  0.1112  0.0539
  104POPC   C1A 1241   4.421  32.567   7.998  0.6229 -0.0320  0.1884
  104POPC   D2A 1242   4.584  32.309   7.611  0.1233  0.0263  0.0875
  104POPC   C3A 1243   4.811  32.500   7.187 -0.0984  0.0522 -0.3532
  104POPC   C4A 1244   5.052  32.817   6.861  0.0207 -0.1324  0.0550
  104POPC   C1B 1245   4.106  32.797   7.731 -0.0046 -0.2978  0.3259
  104POPC   C2B 1246   4.369  32.697   7.307  0.0305  0.1996 -0.1460
  104POPC   C3B 1247   4.523  32.882   6.930 -0.0538  0.0974 -0.1070
  104POPC   C4B 1248   4.564  33.046   6.507  0.1498 -0.1163 -0.1867
  105POPC   NC3 1249   6.983  13.616   8.419 -0.0655  0.1619 -0.1286
  105POPC   PO4 1250   7.094  13.984   8.491 -0.3917 -0.1214  0.1613
  105POPC   GL1 1251   7.114  13.926   8.097 -0.1702  0.3818  0.3064
  105POPC   GL2 1252   7.232  14.184   7.927  0.1594  0.0931  0.0884
  105POPC   C1A 1253   6.958  13.867   7.677  0.1089  0.3211  0.1862
  105POPC   D2A 1254   7.083  13.721   7.317 -0.3289  0.0800 -0.0613
  105POPC   C3A 1255   7.415  13.900   7.103 -0.0385  0.0822  0.6985
  105POPC   C4A 1256   7.780  14.075   6.956 -0.6006 -0.2970  0.1024
  105POPC   C1B 1257   7.401  14.272   7.524  0.0576  0.3484  0.0821
  105POPC   C2B 1258   7.392  14.493   7.132 -0.2356 -0.1137 -0.1398
  105POPC   C3B 1259   7.385  14.519   6.655 -0.2467  0.3383 -0.2095
  105POPC   C4B 1260   7.436  14.670   6.235  0.1112  0.1503  0.1274
  106POPC   NC3 1261   5.680   8.768  10.585  0.1616 -0.1937 -0.0867
  106POPC   PO4 1262   5.825   9.025  10.891 -0.1130 -0.1176 -0.1984
  106POPC   GL1 1263   6.189   8.894  10.721  0.1045  0.2107  0.1847
  106POPC   GL2 1264   6.290   8.571  10.773  0.1734  0.1078 -0.0776
  106POPC   C1A 1265   6.116   8.720  10.321  0.3042 -0.1464 -0.2941
  106POPC   D2A 1266   6.230   8.498   9.995 -0.0422  0.0234 -0.1859
  106POPC   C3A 1267   6.401   8.109  10.219  0.0473 -0.0995 -0.1475
  106POPC   C4A 1268   6.891   8.026  10.179  0.0550 -0.1126  0.0334
  106POPC   C1B 1269   6.630   8.299  10.764 -0.1619 -0.0044 -0.2567
  106POPC   C2B 1270   6.748   7.862  10.668 -0.1856  0.2553 -0.1849
  106POPC   C3B 1271   6.944   7.459  10.676  0.0593  0.2440  0.3326
  106POPC   C4B 1272   7.195   7.101  10.439  0.1715 -0.0861 -0.2422
  107POPC   NC3 1273  16.347  10.968   9.122  0.0345 -0.0347 -0.1069
  107POPC   PO4 1274  16.682  10.938   8.943 -0.2042  0.0373 -0.1007
  107POPC   GL1 1275  16.638  10.931   8.569 -0.0044  0.4112 -0.0800
  107POPC   GL2 1276  16.898  11.147   8.407 -0.0038  0.2665 -0.0296
  107POPC   C1A 1277  16.295  10.953   8.286 -0.0189 -0.2613  0.1748
  107POPC   D2A 1278  16.323  10.640   7.913 -0.1829 -0.0322  0.0020
  107POPC   C3A 1279  16.115  10.437   7.582  0.0336 -0.0629 -0.1003
  107POPC   C4A 1280  15.804  10.347   7.236 -0.1021  0.1176  0.0991
  107POPC   C1B 1281  16.717  11.132   7.982  0.1399  0.1076 -0.1749
  107POPC   C2B 1282  16.531  11.090   7.498 -0.1382 -0.0079  0.1680
  107POPC   C3B 1283  16.205  10.878   7.298 -0.0015  0.0772  0.1549
  107POPC   C4B 1284  15.895  10.772   6.921 -0.4112  0.4943  0.0614
  108POPC   NC3 1285  16.170   7.651   9.610 -0.0411  0.1495 -0.1881
  108POPC   PO4 1286  16.524   7.695   9.800  0.0875  0.1584  0.2117
  108POPC   GL1 1287  16.588   7.501   9.454 -0.0475  0.0607  0.3273
  108POPC   GL2 1288  16.503   7.654   9.267  0.0677  0.0378 -0.2138
  108POPC   C1A 1289  16.918   7.518   9.071  0.0454 -0.3390  0.0688
  108POPC   D2A 1290  17.140   7.279   8.827  0.0481 -0.0264  0.0702
  108POPC   C3A 1291  17.165   7.069   8.414  0.0527 -0.0459 -0.0353
  108POPC   C4A 1292  17.371   6.823   8.150 -0.0567 -0.2391 -0.1754
  108POPC   C1B 1293  16.643   7.839   8.844 -0.0947  0.1870 -0.1671
  108POPC   C2B 1294  16.542   7.876   8.387  0.2220 -0.1081 -0.0539
  108POPC   C3B 1295  16.293   7.585   8.022  0.1205  0.0768 -0.1463
  108POPC   C4B 1296  16.021   7.606   7.668 -0.2204  0.0109 -0.0276
  109POPC   NC3 1297   4.187  11.716   8.661  0.0853  0.3348  0.1263
  109POPC   PO4 1298   4.550  11.800   8.534  0.1117 -0.2653 -0.0413
  109POPC   GL1 1299   4.744  11.637   8.223 -0.0973  0.1009  0.0813
  109POPC   GL2 1300   4.751  11.807   8.015 -0.0940  0.0574 -0.0703
  109POPC   C1A 1301   4.908  11.225   8.131 -0.2821  0.0454  0.2311
  109POPC   D2A 1302   5.038  10.781   8.047 -0.2817  0.0708 -0.0733
  109POPC   C3A 1303   5.166  10.618   7.602  0.0129  0.2034  0.1386
  109POPC   C4A 1304   5.156  10.693   7.128  0.0975  0.3296  0.2612
  109POPC   C1B 1305   5.025  11.565   7.710 -0.3149 -0.0755 -0.0103
  109POPC   C2B 1306   5.268  11.677   7.355 -0.2925 -0.3068  0.3036
  109POPC   C3B 1307   5.312  11.656   6.933  0.2459 -0.1028 -0.0411
  109POPC   C4B 1308   5.105  11.527   6.530 -0.0095  0.2976 -0.0167
  110POPC   NC3 1309   3.772   9.022   9.325 -0.3043 -0.1476 -0.0662
  110POPC   PO4 1310   3.860   8.682   9.535 -0.0598  0.3160  0.0254
  110POPC   GL1 1311   3.786   8.549   9.207  0.2737 -0.1815  0.2783
  110POPC   GL2 1312   3.638   8.413   9.015 -0.2967 -0.0359  0.0625
  110POPC   C1A 1313   4.114   8.503   8.893 -0.1232  0.0703 -0.0021
  110POPC   D2A 1314   4.425   8.219   8.748 -0.3771 -0.0361 -0.1304
  110POPC   C3A 1315   4.449   7.957   8.381 -0.1471  0.1434  0.2290
  110POPC   C4A 1316   4.405   7.823   7.891 -0.2413  0.1367  0.0048
  110POPC   C1B 1317   3.701   8.408   8.563  0.0573 -0.1925  0.0786
  110POPC   C2B 1318   3.686   8.371   8.117 -0.0268  0.2738  0.0584
  110POPC   C3B 1319   3.524   8.421   7.686 -0.1068 -0.2683  0.1796
  110POPC   C4B 1320   3.484   8.863   7.640  0.0056 -0.0801 -0.2749
  111POPC   NC3 1321  11.519   0.388   8.902 -0.1392 -0.0578  0.0196
  111POPC   PO4 1322  11.487   0.467   9.288  0.3154  0.0208 -0.2256
  111POPC   GL1 1323  11.565   0.820   9.113 -0.1865 -0.2327 -0.0593
  111POPC   GL2 1324  11.350   0.947   9.075  0.0599  0.0719  0.4148
  111POPC   C1A 1325  11.730   0.887   8.702 -0.0005  0.2378 -0.1251
  111POPC   D2A 1326  11.662   1.268   8.449  0.0259  0.1921 -0.1251
  111POPC   C3A 1327  11.815   1.440   8.056  0.1528  0.0457 -0.3070
  111POPC   C4A 1328  12.121   1.360   7.730 -0.1611  0.1069 -0.0030
  111POPC   C1B 1329  11.354   1.259   8.802  0.1208  0.0670 -0.2551
  111POPC   C2B 1330  10.979   1.400   8.540 -0.1758  0.0863  0.0395
  111POPC   C3B 1331  10.729   1.274   8.180  0.0444  0.0800 -0.2284
  111POPC   C4B 1332  10.538   0.967   7.904  0.1810  0.1450 -0.0669
  112POPC   NC3 1333   8.181  16.582   9.596  0.1196  0.2972 -0.0104
  112POPC   PO4 1334   8.227  16.888   9.832 -0.1582 -0.2395 -0.0049
  112POPC   GL1 1335   8.440  17.099   9.456  0.0086  0.1352  0.2754
  112POPC   GL2 1336   8.511  16.872   9.353 -0.0731 -0.2505 -0.1897
  112POPC   C1A 1337   8.388  17.339   9.076  0.0167 -0.4288  0.0009
  112POPC   D2A 1338   8.408  17.705   8.831  0.0409 -0.1083 -0.0343
  112POPC   C3A 1339   8.634  17.926   8.451  0.0588  0.0159  0.2054
  112POPC   C4A 1340   9.045  17.947   8.197  0.1412  0.0578  0.1079
  112POPC   C1B 1341   8.487  16.878   8.893 -0.3663 -0.1862  0.1135
  112POPC   C2B 1342   8.428  17.114   8.490  0.0635  0.2495  0.2129
  112POPC   C3B 1343   8.642  17.263   8.056  0.3861  0.1596 -0.1632
  112POPC   C4B 1344   8.878  17.570   7.745  0.1031 -0.2755  0.1395
  113POPC   NC3 1345  13.024  13.256   8.826 -0.2277 -0.1198  0.0648
  113POPC   PO4 1346  12.931  13.642   8.814  0.1969  0.5701 -0.3152
  113POPC   GL1 1347  12.893  13.491   8.445  0.0204 -0.0220  0.4798
  113POPC   GL2 1348  12.638  13.413   8.353 -0.1500 -0.0911 -0.2254
  113POPC   C1A 1349  12.943  13.108   8.179 -0.0834 -0.4848 -0.1144
  113POPC   D2A 1350  12.870  12.658   8.063 -0.0225  0.3427 -0.4925
  113POPC   C3A 1351  12.771  12.691   7.631 -0.0036  0.1905 -0.2870
  113POPC   C4A 1352  12.617  12.375   7.302 -0.1570 -0.1971  0.3466
  113POPC   C1B 1353  12.848  13.598   7.987 -0.0772 -0.1890 -0.0434
  113POPC   C2B 1354  13.069  13.688   7.599  0.1904  0.2374  0.2424
  113POPC   C3B 1355  13.185  13.622   7.149  0.0664  0.3214 -0.4266
  113POPC   C4B 1356  13.251  13.856   6.801  0.0601  0.3648  0.3021
  114POPC   NC3 1357   5.165  15.397   9.033  0.0656 -0.0343  0.0560
  114POPC   PO4 1358   5.339  15.740   8.907 -0.2186 -0.0074  0.1536
  114POPC   GL1 1359   5.196  15.945   8.569  0.2188  0.0120 -0.0748
  114POPC   GL2 1360   5.461  16.067   8.466  0.0939  0.1220 -0.0620
  114POPC   C1A 1361   5.035  16.329   8.358  0.1962 -0.0453  0.1646
  114POPC   D2A 1362   5.176  16.512   7.903 -0.1443 -0.2442 -0.0298
  114POPC   C3A 1363   5.058  16.707   7.487  0.1215 -0.0262  0.1413
  114POPC   C4A 1364   5.151  17.075   7.234 -0.1791 -0.1221  0.0915
  114POPC   C1B 1365   5.763  15.944   8.163  0.1108  0.1290  0.2351
  114POPC   C2B 1366   6.119  15.825   7.928 -0.1915 -0.1214 -0.1587
  114POPC   C3B 1367   6.291  15.852   7.467  0.0578 -0.2624 -0.1902
  114POPC   C4B 1368   6.317  16.150   7.129  0.0033  0.2476  0.0006
  115POPC   NC3 1369  11.093   0.264  11.613  0.2409  0.1474  0.0884
  115POPC   PO4 1370  11.177   0.590  11.398  0.1952 -0.1831 -0.0922
  115POPC   GL1 1371  11.166   0.888  11.110 -0.5731  0.0584  0.0797
  115POPC   GL2 1372  11.083   1.116  11.156 -0.1445 -0.2494  0.1362
  115POPC   C1A 1373  11.423   1.024  10.753  0.3046 -0.5213 -0.2554
  115POPC   D2A 1374  11.256   1.200  10.419 -0.0343 -0.3730 -0.1291
  115POPC   C3A 1375  10.790   1.258  10.290  0.0792 -0.0521  0.2407
  115POPC   C4A 1376  10.354   1.112  10.196  0.1014 -0.3522  0.2257
  115POPC   C1B 1377  10.870   1.555  11.207  0.0508  0.1590 -0.1102
  115POPC   C2B 1378  10.749   1.997  11.096  0.0906 -0.1116  0.2037
  115POPC   C3B 1379  10.747   2.333  10.776 -0.1070 -0.0128  0.1696
  115POPC   C4B 1380  10.454   2.541  10.486 -0.1239 -0.1925  0.2857
  116POPC   NC3 1381   2.182  11.245   8.433 -0.0129  0.0164 -0.2653
  116POPC   PO4 1382   1.956  10.931   8.478 -0.2685 -0.1480  0.1207
  116POPC   GL1 1383   1.585  10.944   8.352 -0.2535 -0.1423  0.3066
  116POPC   GL2 1384   1.613  10.734   8.160 -0.1127  0.1990  0.0943
  116POPC   C1A 1385   1.267  11.214   8.176 -0.3643 -0.0937 -0.4053
  116POPC   D2A 1386   1.118  11.469   7.787 -0.0925  0.0308  0.0664
  116POPC   C3A 1387   1.183  11.289   7.431  0.1709  0.0095 -0.0207
  116POPC   C4A 1388   0.966  11.079   7.095 -0.0857  0.0912 -0.2124
  116POPC   C1B 1389   1.284  10.761   7.819 -0.1496  0.0616 -0.5354
  116POPC   C2B 1390   1.109  10.702   7.405 -0.2653  0.1446 -0.3401
  116POPC   C3B 1391   1.206  10.297   7.135  0.2650  0.1526  0.0691
  116POPC   C4B 1392   0.939  10.085   6.773 -0.1555 -0.2280  0.1306
  117POPC   NC3 1393   9.310   0.070  14.302  0.2884  0.1105 -0.0387
  117POPC   PO4 1394   9.713  -0.009  14.355  0.1446 -0.0739  0.2240
  117POPC   GL1 1395   9.770   0.381  14.539 -0.2520 -0.2117  0.3817
  117POPC   GL2 1396   9.931   0.264  14.734  0.0101  0.0339 -0.0194
  117POPC   C1A 1397   9.639   0.773  14.751  0.0894 -0.1474  0.1420
  117POPC   D2A 1398   9.485   1.220  14.580 -0.0686  0.2832  0.1326
  117POPC   C3A 1399   9.426   1.615  14.751  0.1611  0.1888  0.1198
  117POPC   C4A 1400   9.356   2.108  14.670 -0.2260 -0.1552 -0.2009
  117POPC   C1B 1401   9.899   0.522  15.137  0.1467 -0.1095 -0.1568
  117POPC   C2B 1402   9.972   0.918  15.392  0.0722 -0.1887  0.3007
  117POPC   C3B 1403   9.874   1.327  15.636  0.0866 -0.0721 -0.0503
  117POPC   C4B 1404  10.089   1.723  15.779 -0.1538  0.0306 -0.2000
  118POPC   NC3 1405   4.482  11.375   8.999  0.0215  0.0718  0.0434
  118POPC   PO4 1406   4.446  11.315   8.603 -0.1974  0.1599  0.1149
  118POPC   GL1 1407   4.513  11.146   8.345 -0.2702  0.4731 -0.0738
  118POPC   GL2 1408   4.613  10.815   8.358  0.0742  0.0250  0.1907
  118POPC   C1A 1409   4.338  11.095   7.983 -0.1079  0.0316 -0.0156
  118POPC   D2A 1410   4.354  10.944   7.505  0.4635  0.4117  0.0257
  118POPC   C3A 1411   4.679  10.915   7.173  0.1077 -0.0755 -0.3394
  118POPC   C4A 1412   4.775  10.819   6.774 -0.4644 -0.1596  0.0613
  118POPC   C1B 1413   4.745  10.388   8.203  0.2306  0.0211 -0.1774
  118POPC   C2B 1414   4.563  10.109   7.913  0.0259 -0.1166  0.0743
  118POPC   C3B 1415   4.508  10.107   7.473  0.1076 -0.0909  0.2529
  118POPC   C4B 1416   4.206  10.078   7.140  0.0574  0.1701 -0.2670
  119POPC   NC3 1417   0.998   4.190   9.035  0.1200 -0.1646  0.2342
  119POPC   PO4 1418   0.723   4.228   9.323  0.3165  0.0203 -0.1199
  119POPC   GL1 1419   0.457   4.231   9.001  0.1752  0.0034  0.1787
  119POPC   GL2 1420   0.272   4.366   8.811  0.0431  0.0991 -0.0355
  119POPC   C1A 1421   0.500   3.899   8.667  0.1233  0.1407 -0.2705
  119POPC   D2A 1422   0.466   3.591   8.362  0.0269 -0.0925  0.0201
  119POPC   C3A 1423   0.455   3.783   7.998 -0.1285  0.4594 -0.1291
  119POPC   C4A 1424   0.058   3.804   7.719  0.0791  0.2555  0.2682
  119POPC   C1B 1425   0.208   4.202   8.419  0.3279 -0.2928 -0.0735
  119POPC   C2B 1426   0.245   4.218   7.935 -0.0972  0.0803 -0.0337
  119POPC   C3B 1427   0.392   4.116   7.491  0.1508 -0.1598  0.1383
  119POPC   C4B 1428   0.211   3.926   7.053 -0.2231  0.0402 -0.0844
  120POPC   NC3 1429   3.515   8.314   9.516 -0.0488 -0.1734 -0.0396
  120POPC   PO4 1430   3.367   8.665   9.412  0.1448 -0.0295 -0.3117
  120POPC   GL1 1431   3.344   8.778   8.989 -0.1576  0.0683 -0.1869
  120POPC   GL2 1432   3.222   8.589   8.866  0.1726  0.0853 -0.0508
  120POPC   C1A 1433   3.773   8.845   8.865 -0.2701  0.0838  0.1078
  120POPC   D2A 1434   4.090   8.746   8.490 -0.2693  0.2936  0.0959
  120POPC   C3A 1435   4.431   8.468   8.329  0.0751  0.0515 -0.0187
  120POPC   C4A 1436   4.645   8.241   7.967 -0.3078  0.0895 -0.2527
  120POPC   C1B 1437   3.213   8.703   8.374 -0.0281  0.0833 -0.0624
  120POPC   C2B 1438   3.151   8.638   7.945 -0.1506 -0.2819  0.4173
  120POPC   C3B 1439   2.990   8.629   7.556 -0.1502  0.0229  0.1474
  120POPC   C4B 1440   3.338   8.611   7.255 -0.2228  0.0118  0.1233
  121POPC   NC3 1441  10.456   0.058   9.909  0.1830 -0.1579  0.1327
  121POPC   PO4 1442  10.680   0.396   9.911 -0.1138 -0.0835 -0.0545
  121POPC   GL1 1443  10.671   0.711   9.698  0.3108  0.0852  0.0483
  121POPC   GL2 1444  10.784   0.930   9.881 -0.0070  0.0579 -0.0755
  121POPC   C1A 1445  10.469   1.048   9.461 -0.1317  0.2252 -0.1736
  121POPC   D2A 1446  10.110   1.023   9.167 -0.1823  0.2273 -0.0596
  121POPC   C3A 1447  10.121   1.499   9.005  0.2776 -0.0044 -0.1730
  121POPC   C4A 1448  10.033   1.932   8.994 -0.2694 -0.1748  0.2196
  121POPC   C1B 1449  10.928   1.385   9.831  0.0738 -0.1619  0.2272
  121POPC   C2B 1450  10.862   1.834   9.945  0.1687 -0.0297 -0.1880
  121POPC   C3B 1451  11.010   2.230   9.822 -0.0806  0.0809 -0.1926
  121POPC   C4B 1452  11.140   2.625   9.816 -0.1514 -0.0362  0.2008
  122POPC   NC3 1453   4.930  11.432   8.612 -0.4126  0.0635  0.2888
  122POPC   PO4 1454   5.259  11.343   8.814 -0.1611  0.3597  0.0249
  122POPC   GL1 1455   5.368  11.216   8.497 -0.0653  0.1915  0.0702
  122POPC   GL2 1456   5.367  11.391   8.254  0.4278 -0.0722  0.0329
  122POPC   C1A 1457   5.552  10.917   8.173 -0.1757 -0.0837  0.3774
  122POPC   D2A 1458   5.832  10.553   8.127  0.0563  0.6226  0.2141
  122POPC   C3A 1459   5.940  10.404   7.600  0.3207  0.1567  0.1253
  122POPC   C4A 1460   6.339  10.141   7.506 -0.1895  0.1929  0.0061
  122POPC   C1B 1461   5.326  11.189   7.818 -0.1493 -0.0187 -0.3959
  122POPC   C2B 1462   5.306  11.145   7.362 -0.0305 -0.1258 -0.0962
  122POPC   C3B 1463   5.583  11.155   7.000  0.0976 -0.2042  0.0483
  122POPC   C4B 1464   5.758  10.800   6.773  0.1154 -0.0044  0.2048
  123POPC   NC3 1465   5.920   2.000  10.786  0.0884 -0.1151 -0.1891
  123POPC   PO4 1466   5.807   2.310  10.944 -0.0858  0.0787  0.2253
  123POPC   GL1 1467   5.855   2.656  10.741 -0.4422 -0.2123  0.0958
  123POPC   GL2 1468   6.104   2.818  10.705  0.3299  0.1845 -0.3838
  123POPC   C1A 1469   5.656   3.066  10.807  0.0117 -0.2448  0.0305
  123POPC   D2A 1470   5.640   3.475  10.795  0.2210  0.1322 -0.1592
  123POPC   C3A 1471   5.905   3.713  10.512  0.0429 -0.0071 -0.2667
  123POPC   C4A 1472   5.814   4.179  10.410 -0.3207 -0.1653 -0.0095
  123POPC   C1B 1473   6.103   3.282  10.758 -0.1497  0.0868 -0.1050
  123POPC   C2B 1474   6.098   3.606  11.061  0.1981  0.2236  0.0425
  123POPC   C3B 1475   6.431   3.887  11.204 -0.0532  0.0714 -0.2926
  123POPC   C4B 1476   6.637   4.017  11.593 -0.0411 -0.0292 -0.0631
  124POPC   NC3 1477   5.248   3.344  13.591 -0.2472  0.0054  0.3718
  124POPC   PO4 1478   5.207   3.082  13.849 -0.1948 -0.0746 -0.1145
  124POPC   GL1 1479   5.572   3.053  13.920 -0.2877 -0.3619  0.1446
  124POPC   GL2 1480   5.618   3.074  14.219  0.1457 -0.0533  0.0326
  124POPC   C1A 1481   5.781   3.498  13.898 -0.3113  0.0756 -0.1974
  124POPC   D2A 1482   6.057   3.864  13.905 -0.2077  0.1296  0.0219
  124POPC   C3A 1483   6.504   4.018  14.017  0.2521 -0.1700  0.1920
  124POPC   C4A 1484   6.784   4.373  14.051 -0.1121  0.2185  0.0728
  124POPC   C1B 1485   6.021   3.314  14.244 -0.2469 -0.0181 -0.0724
  124POPC   C2B 1486   6.410   3.574  14.282 -0.2113  0.4368  0.1927
  124POPC   C3B 1487   6.845   3.598  14.333 -0.1078 -0.3075 -0.0847
  124POPC   C4B 1488   7.075   3.677  14.714 -0.1889  0.0170  0.0607
  125POPC   NC3 1489   2.311   2.292   9.354  0.1335 -0.5148  0.2357
  125POPC   PO4 1490   1.930   2.222   9.158 -0.0091  0.0761  0.2520
  125POPC   GL1 1491   2.078   2.323   8.759  0.5362  0.3233 -0.1758
  125POPC   GL2 1492   1.949   2.167   8.518  0.0149  0.0915  0.0441
  125POPC   C1A 1493   2.027   2.676   8.499  0.0649  0.3421  0.1596
  125POPC   D2A 1494   1.848   2.786   8.146  0.3218  0.2387  0.1652
  125POPC   C3A 1495   1.442   2.637   7.967 -0.2222  0.0570  0.2570
  125POPC   C4A 1496   1.097   2.584   7.679  0.0931 -0.0346 -0.1686
  125POPC   C1B 1497   1.887   2.298   8.050  0.2304 -0.2188 -0.3374
  125POPC   C2B 1498   2.071   2.549   7.690 -0.0146  0.1446 -0.0503
  125POPC   C3B 1499   2.210   2.837   7.303  0.2973  0.0481 -0.1184
  125POPC   C4B 1500   2.522   2.985   6.989 -0.0928  0.2264 -0.1794
  126POPC   NC3 1501  14.084  15.466   8.145  0.0329 -0.1609 -0.0302
  126POPC   PO4 1502  14.195  15.085   8.240 -0.0096 -0.2215  0.0521
  126POPC   GL1 1503  14.182  15.099   7.857 -0.3917 -0.0089  0.1161
  126POPC   GL2 1504  14.423  15.000   7.792  0.0164  0.0476 -0.3404
  126POPC   C1A 1505  14.108  15.297   7.444 -0.0409  0.1284  0.0456
  126POPC   D2A 1506  13.972  15.554   7.111  0.0062  0.2725  0.0311
  126POPC   C3A 1507  13.994  15.717   6.686  0.2062 -0.2361 -0.0418
  126POPC   C4A 1508  13.636  15.808   6.387  0.1230 -0.1927  0.0214
  126POPC   C1B 1509  14.789  15.178   7.588  0.0644  0.3160  0.0863
  126POPC   C2B 1510  14.868  15.497   7.237  0.2969 -0.2301 -0.1975
  126POPC   C3B 1511  14.951  15.674   6.832 -0.3745 -0.1620  0.1578
  126POPC   C4B 1512  14.943  15.820   6.389  0.1177  0.2424 -0.0530
  127POPC   NC3 1513   4.612   7.870  10.099  0.1866 -0.3718 -0.0075
  127POPC   PO4 1514   4.318   7.925   9.854  0.0521  0.1208 -0.0758
  127POPC   GL1 1515   4.519   7.915   9.492  0.1716  0.1640 -0.0876
  127POPC   GL2 1516   4.407   7.741   9.367 -0.2407 -0.0070  0.0329
  127POPC   C1A 1517   4.914   8.028   9.253  0.1172 -0.0187  0.1575
  127POPC   D2A 1518   5.157   7.873   8.890  0.1116 -0.1602  0.0691
  127POPC   C3A 1519   5.440   7.941   8.502  0.0374 -0.3820  0.0723
  127POPC   C4A 1520   5.318   8.032   8.068 -0.1329 -0.0094  0.2674
  127POPC   C1B 1521   4.597   7.813   8.928  0.0887 -0.3082 -0.3188
  127POPC   C2B 1522   4.809   7.672   8.552 -0.2145 -0.1077  0.1995
  127POPC   C3B 1523   4.981   7.681   8.113  0.0810 -0.0260 -0.1748
  127POPC   C4B 1524   4.890   7.542   7.697 -0.1170 -0.1315  0.4107
  128POPC   NC3 1525   1.792   3.534   8.876  0.1158 -0.1766  0.2333
  128POPC   PO4 1526   1.911   3.244   9.132  0.0974  0.1963 -0.3958
  128POPC   GL1 1527   2.117   3.234   8.747  0.0644 -0.1508  0.1028
  128POPC   GL2 1528   2.409   3.059   8.687  0.0605 -0.0061  0.3552
  128POPC   C1A 1529   1.836   3.196   8.362  0.0301 -0.0406 -0.4539
  128POPC   D2A 1530   1.874   3.361   7.972 -0.1054 -0.2166  0.3384
  128POPC   C3A 1531   1.629   3.063   7.742  0.0664 -0.3232 -0.1583
  128POPC   C4A 1532   1.686   2.816   7.407  0.1690  0.2386 -0.0378
  128POPC   C1B 1533   2.428   3.002   8.212 -0.1887 -0.1949 -0.1894
  128POPC   C2B 1534   2.224   3.038   7.839 -0.1871  0.0956  0.0245
  128POPC   C3B 1535   2.051   3.302   7.487  0.0336 -0.0664 -0.0336
  128POPC   C4B 1536   1.824   3.666   7.237 -0.0208  0.2875 -0.1941
  129POPC   NC3 1537   0.633  32.735   8.166 -0.3419  0.1493  0.0146
  129POPC   PO4 1538   0.795  32.378   8.053 -0.0027  0.1521 -0.0397
  129POPC   GL1 1539   1.118  32.505   7.870  0.0109 -0.1104 -0.1208
  129POPC   GL2 1540   1.241  32.744   7.838  0.0879  0.2971  0.0540
  129POPC   C1A 1541   1.395  32.287   7.625 -0.2715  0.1088  0.1028
  129POPC   D2A 1542   1.613  32.410   7.234 -0.0112 -0.1292 -0.2024
  129POPC   C3A 1543   1.367  32.806   7.027  0.0266 -0.2739 -0.1001
  129POPC   C4A 1544   1.123  32.845   6.650 -0.1330  0.2450 -0.1998
  129POPC   C1B 1545   1.203  33.027   7.480  0.2821 -0.0753 -0.3041
  129POPC   C2B 1546   1.038  33.265   7.080 -0.0579  0.0580  0.1577
  129POPC   C3B 1547   0.981  33.369   6.631 -0.1680 -0.0113  0.1884
  129POPC   C4B 1548   0.846  33.466   6.197 -0.2073  0.0974  0.0032
  130POPC   NC3 1549   3.544   1.792   9.291 -0.1523 -0.0455 -0.1477
  130POPC   PO4 1550   3.344   2.127   9.347  0.1880 -0.0147  0.0235
  130POPC   GL1 1551   3.571   2.369   9.135  0.1950  0.0967  0.1494
  130POPC   GL2 1552   3.516   2.191   8.868  0.0200  0.1379 -0.1641
  130POPC   C1A 1553   3.999   2.295   8.885  0.1218  0.1099 -0.1065
  130POPC   D2A 1554   4.195   2.124   8.517  0.0329 -0.1019 -0.1230
  130POPC   C3A 1555   4.184   2.217   8.066  0.0997  0.2545  0.2612
  130POPC   C4A 1556   4.121   2.627   8.131 -0.2118 -0.0424 -0.0314
  130POPC   C1B 1557   3.699   2.369   8.448  0.1051  0.1428 -0.1047
  130POPC   C2B 1558   3.682   2.367   7.992 -0.0273  0.0590 -0.1102
  130POPC   C3B 1559   3.937   2.332   7.583  0.0839  0.4043  0.0678
  130POPC   C4B 1560   4.149   2.528   7.181  0.0750  0.0940  0.1574
  131POPC   NC3 1561   2.541  15.942   8.463  0.0016  0.1708  0.3440
  131POPC   PO4 1562   2.189  15.796   8.324  0.2971 -0.2384  0.3875
  131POPC   GL1 1563   2.180  15.671   7.935  0.1426 -0.2194  0.2127
  131POPC   GL2 1564   1.967  15.454   7.847 -0.1025  0.2620 -0.0350
  131POPC   C1A 1565   2.007  15.854   7.534 -0.0115  0.0177  0.2196
  131POPC   D2A 1566   2.083  15.991   7.096 -0.0069 -0.2153 -0.1276
  131POPC   C3A 1567   2.241  15.987   6.658  0.2632  0.1275  0.1892
  131POPC   C4A 1568   2.571  16.129   6.310  0.4597  0.3859  0.0338
  131POPC   C1B 1569   1.932  15.349   7.414 -0.1657  0.4185  0.0921
  131POPC   C2B 1570   1.894  15.501   7.011 -0.1825  0.1258 -0.5860
  131POPC   C3B 1571   1.789  15.513   6.582 -0.0187 -0.1271  0.2059
  131POPC   C4B 1572   1.978  15.622   6.177 -0.0352  0.0328 -0.0200
  132POPC   NC3 1573  14.324   6.495  13.994  0.0370  0.4594  0.0120
  132POPC   PO4 1574  14.298   6.093  13.914 -0.0539 -0.0694  0.2522
  132POPC   GL1 1575  13.930   6.062  13.752  0.3127 -0.3911  0.1545
  132POPC   GL2 1576  13.753   6.133  13.967 -0.0556 -0.1520  0.0821
  132POPC   C1A 1577  13.536   6.283  13.626  0.2601 -0.3324 -0.1639
  132POPC   D2A 1578  13.143   6.567  13.794  0.1720  0.2257 -0.1125
  132POPC   C3A 1579  12.697   6.438  13.914  0.0212 -0.0919 -0.1139
  132POPC   C4A 1580  12.362   6.170  13.822  0.1033  0.1569 -0.0191
  132POPC   C1B 1581  13.481   5.978  14.262  0.1494  0.1245  0.1155
  132POPC   C2B 1582  13.164   5.787  14.528 -0.0879  0.0879  0.3756
  132POPC   C3B 1583  13.027   5.718  14.948  0.0009  0.1035 -0.0355
  132POPC   C4B 1584  12.625   5.756  15.249 -0.0644 -0.0721  0.2573
  133POPC   NC3 1585   2.217   7.021   9.333  0.0154  0.1961 -0.2564
  133POPC   PO4 1586   2.286   6.688   9.602 -0.2802 -0.0151  0.2218
  133POPC   GL1 1587   2.165   6.578   9.215 -0.0709  0.2212 -0.0578
  133POPC   GL2 1588   2.406   6.590   9.062  0.2074  0.0261 -0.0384
  133POPC   C1A 1589   2.028   6.593   8.753  0.3615  0.0681 -0.2596
  133POPC   D2A 1590   1.993   6.953   8.485 -0.0460 -0.2650  0.2025
  133POPC   C3A 1591   1.769   6.749   8.124  0.2274  0.1221  0.2289
  133POPC   C4A 1592   1.407   6.850   7.867  0.3791 -0.1442 -0.1595
  133POPC   C1B 1593   2.470   6.893   8.646 -0.0038  0.2310 -0.0917
  133POPC   C2B 1594   2.589   7.002   8.216  0.0036  0.1213  0.0767
  133POPC   C3B 1595   2.776   7.115   7.803 -0.0559 -0.2021 -0.2270
  133POPC   C4B 1596   2.773   7.073   7.298 -0.0259  0.2388  0.0996
  134POPC   NC3 1597  11.816  11.163   9.567  0.1793 -0.0658  0.1729
  134POPC   PO4 1598  11.915  10.798   9.606 -0.0311  0.2820 -0.2169
  134POPC   GL1 1599  11.974  10.699   9.230 -0.2666  0.3796 -0.1237
  134POPC   GL2 1600  11.725  10.545   9.092 -0.1919 -0.0527 -0.0594
  134POPC   C1A 1601  11.921  10.905   8.811 -0.3966 -0.1583 -0.1690
  134POPC   D2A 1602  11.698  10.883   8.425 -0.2365  0.0970 -0.2085
  134POPC   C3A 1603  11.635  11.222   8.056  0.2883  0.1681  0.3382
  134POPC   C4A 1604  11.507  11.193   7.648  0.0572  0.0224  0.0304
  134POPC   C1B 1605  11.660  10.283   8.731 -0.1627  0.2736 -0.3650
  134POPC   C2B 1606  11.470   9.862   8.755 -0.0800  0.1514  0.0512
  134POPC   C3B 1607  11.639   9.471   8.773 -0.0411  0.0279 -0.1731
  134POPC   C4B 1608  11.715   9.044   8.836 -0.0676  0.2077 -0.1355
  135POPC   NC3 1609   4.772   1.451   9.656  0.2497  0.1497  0.2214
  135POPC   PO4 1610   5.125   1.491   9.815  0.2030  0.0411  0.0342
  135POPC   GL1 1611   5.160   1.707   9.441  0.1250  0.3921  0.1216
  135POPC   GL2 1612   4.941   1.904   9.393  0.0309  0.0387  0.1665
  135POPC   C1A 1613   5.195   1.598   8.985 -0.0960  0.0865 -0.0825
  135POPC   D2A 1614   4.839   1.569   8.725  0.2522  0.2128  0.0640
  135POPC   C3A 1615   4.704   1.874   8.414 -0.0592 -0.0746 -0.0931
  135POPC   C4A 1616   4.593   2.313   8.274 -0.3984 -0.0287  0.0357
  135POPC   C1B 1617   4.984   2.066   8.976 -0.0775  0.1903  0.0844
  135POPC   C2B 1618   5.056   2.206   8.545 -0.0424 -0.0730  0.1880
  135POPC   C3B 1619   5.469   2.331   8.327 -0.0192 -0.3900 -0.1854
  135POPC   C4B 1620   5.829   2.348   8.022  0.0288 -0.1486 -0.0717
  136POPC   NC3 1621  15.963  32.822   9.318  0.1481 -0.2507 -0.5138
  136POPC   PO4 1622  15.994  33.084   9.041 -0.1537  0.0017  0.0978
  136POPC   GL1 1623  16.008  33.088   8.558  0.0037  0.1326  0.4785
  136POPC   GL2 1624  15.690  33.068   8.490 -0.1567  0.1334  0.3445
  136POPC   C1A 1625  15.956  33.342   8.138  0.0210  0.0431  0.1058
  136POPC   D2A 1626  15.974  33.533   7.726 -0.2351  0.0336  0.3249
  136POPC   C3A 1627  15.766  33.560   7.280  0.1892  0.1269 -0.1804
  136POPC   C4A 1628  15.524  33.227   7.101  0.3721  0.3561  0.0092
  136POPC   C1B 1629  15.448  33.414   8.222  0.3319 -0.0113  0.0783
  136POPC   C2B 1630  15.457  33.587   7.735 -0.0050  0.0030 -0.0104
  136POPC   C3B 1631  15.253  33.480   7.366  0.4769 -0.0761 -0.1577
  136POPC   C4B 1632  15.108  33.440   6.936  0.0203  0.0876  0.0744
  137POPC   NC3 1633   2.912   8.590   9.276  0.3745 -0.0997 -0.1542
  137POPC   PO4 1634   2.642   8.811   9.149 -0.1978  0.3221 -0.0372
  137POPC   GL1 1635   2.779   8.705   8.799  0.5164 -0.2997  0.2533
  137POPC   GL2 1636   2.888   8.912   8.717  0.1355 -0.3500  0.2224
  137POPC   C1A 1637   2.643   8.638   8.363 -0.1021 -0.3503 -0.0420
  137POPC   D2A 1638   2.648   8.518   7.879  0.1511  0.1671 -0.1197
  137POPC   C3A 1639   2.582   8.863   7.628  0.0006 -0.0808 -0.0603
  137POPC   C4A 1640   2.585   9.026   7.162  0.1597  0.1531  0.1220
  137POPC   C1B 1641   2.887   9.038   8.228  0.2911 -0.1425  0.0460
  137POPC   C2B 1642   3.021   9.096   7.755  0.0085 -0.0111  0.0558
  137POPC   C3B 1643   3.148   9.024   7.326 -0.0702 -0.1737 -0.1472
  137POPC   C4B 1644   3.035   8.955   6.910  0.2007 -0.0646 -0.2089
  138POPC   NC3 1645  13.228  15.377   8.422  0.1288 -0.1319 -0.1260
  138POPC   PO4 1646  13.385  15.115   8.653  0.2672  0.0696  0.1583
  138POPC   GL1 1647  13.645  15.039   8.281 -0.2101  0.0514  0.2824
  138POPC   GL2 1648  13.479  14.889   8.070 -0.1009  0.0257 -0.2599
  138POPC   C1A 1649  13.698  15.286   7.874  0.2245  0.0233  0.0137
  138POPC   D2A 1650  13.770  15.625   7.575  0.1034  0.1054 -0.0639
  138POPC   C3A 1651  13.450  15.715   7.250  0.0302  0.0548 -0.1144
  138POPC   C4A 1652  13.387  15.904   6.875  0.0792 -0.0082  0.1023
  138POPC   C1B 1653  13.316  15.068   7.647 -0.1812 -0.0448  0.1160
  138POPC   C2B 1654  13.519  15.244   7.301 -0.0071  0.3457  0.0160
  138POPC   C3B 1655  13.614  15.400   6.870  0.2960 -0.2604  0.1767
  138POPC   C4B 1656  13.512  15.224   6.456 -0.0219  0.4881 -0.2617
  139POPC   NC3 1657   3.656   6.641   9.487 -0.0520 -0.0711  0.1127
  139POPC   PO4 1658   3.790   6.931   9.274 -0.1719  0.0496  0.0286
  139POPC   GL1 1659   3.957   6.890   8.864  0.0243  0.1490  0.2762
  139POPC   GL2 1660   4.079   7.108   8.929 -0.2519  0.0936  0.0047
  139POPC   C1A 1661   4.243   6.860   8.494  0.1905 -0.4639  0.3569
  139POPC   D2A 1662   4.322   6.717   7.995  0.1171  0.2621  0.3959
  139POPC   C3A 1663   4.251   6.295   7.740  0.0974 -0.2634  0.0721
  139POPC   C4A 1664   4.317   5.912   7.951 -0.0855  0.0184  0.2134
  139POPC   C1B 1665   3.902   7.187   8.527  0.0815 -0.2131  0.2491
  139POPC   C2B 1666   3.807   7.190   8.080  0.4465  0.0804 -0.1595
  139POPC   C3B 1667   3.669   7.043   7.676  0.0626 -0.0338  0.2197
  139POPC   C4B 1668   3.657   6.604   7.488  0.0402 -0.1768 -0.1589
  140POPC   NC3 1669  15.141   7.206  11.383  0.0267 -0.0539 -0.0187
  140POPC   PO4 1670  14.852   6.957  11.306  0.1755  0.2181  0.0298
  140POPC   GL1 1671  14.554   7.084  11.140  0.1116  0.2366 -0.0593
  140POPC   GL2 1672  14.658   7.412  11.079 -0.2872 -0.1331 -0.1242
  140POPC   C1A 1673  14.124   6.961  11.054  0.0147 -0.0658  0.0048
  140POPC   D2A 1674  13.883   6.674  11.191  0.2020  0.0881 -0.0549
  140POPC   C3A 1675  13.400   6.570  11.125  0.0945 -0.0770 -0.0660
  140POPC   C4A 1676  12.973   6.761  11.195 -0.0893  0.3240 -0.0527
  140POPC   C1B 1677  14.245   7.419  11.207  0.2644 -0.1728 -0.1278
  140POPC   C2B 1678  13.788   7.495  11.259  0.0508 -0.0228  0.0923
  140POPC   C3B 1679  13.489   7.824  11.170  0.0919 -0.2279 -0.2040
  140POPC   C4B 1680  13.076   7.910  11.046 -0.2175 -0.0357  0.2906
  141POPC   NC3 1681   7.363   1.167  12.392 -0.0715 -0.0769 -0.0977
  141POPC   PO4 1682   7.171   1.311  12.097  0.2502  0.0096 -0.0820
  141POPC   GL1 1683   7.375   1.633  12.200  0.4629 -0.3884 -0.2931
  141POPC   GL2 1684   7.681   1.622  12.096 -0.3200  0.0611 -0.1747
  141POPC   C1A 1685   7.260   2.017  12.415 -0.0421  0.2331 -0.0493
  141POPC   D2A 1686   6.980   2.150  12.764 -0.3381 -0.3611  0.0648
  141POPC   C3A 1687   7.297   2.467  12.884  0.1064 -0.0157  0.5987
  141POPC   C4A 1688   7.681   2.722  12.929  0.0806  0.1809 -0.1754
  141POPC   C1B 1689   7.676   2.087  12.110  0.0393  0.1120 -0.2076
  141POPC   C2B 1690   7.797   2.486  12.285  0.1019  0.2055 -0.1138
  141POPC   C3B 1691   8.012   2.791  12.551  0.2746 -0.2665 -0.3938
  141POPC   C4B 1692   7.810   3.176  12.778  0.2063 -0.2128 -0.1198
  142POPC   NC3 1693   4.757   6.648  10.546 -0.0978  0.2569  0.1707
  142POPC   PO4 1694   4.447   6.697  10.310 -0.0187 -0.1630 -0.0963
  142POPC   GL1 1695   4.763   6.551  10.091  0.1219 -0.0593 -0.1524
  142POPC   GL2 1696   4.886   6.853  10.102 -0.2218  0.4287 -0.1246
  142POPC   C1A 1697   5.222   6.417  10.241 -0.0509  0.1451 -0.0160
  142POPC   D2A 1698   5.614   6.159  10.217 -0.1547  0.1699  0.3728
  142POPC   C3A 1699   5.967   6.249   9.869  0.2918 -0.2916 -0.3675
  142POPC   C4A 1700   6.259   6.334   9.566  0.2036  0.0066 -0.2272
  142POPC   C1B 1701   5.138   6.562   9.806 -0.0286 -0.0644  0.0071
  142POPC   C2B 1702   5.486   6.399   9.472 -0.0750  0.2446 -0.2273
  142POPC   C3B 1703   5.552   6.435   9.018  0.0251 -0.0231 -0.1028
  142POPC   C4B 1704   5.942   6.607   8.809 -0.0638  0.1482 -0.0659
  143POPC   NC3 1705   9.088   1.363  10.734  0.1877 -0.0421 -0.0944
  143POPC   PO4 1706   8.928   1.277  11.124 -0.2448 -0.3308  0.0009
  143POPC   GL1 1707   9.074   1.545  11.274 -0.0539 -0.4911  0.1273
  143POPC   GL2 1708   9.342   1.569  11.129 -0.0013  0.0458 -0.1513
  143POPC   C1A 1709   9.110   1.871  11.597  0.1590  0.3542  0.1084
  143POPC   D2A 1710   9.174   1.911  12.111 -0.0888 -0.1860  0.1183
  143POPC   C3A 1711   9.500   2.029  12.374 -0.3541 -0.1109  0.0432
  143POPC   C4A 1712   9.633   2.437  12.505  0.0555 -0.1274  0.0316
  143POPC   C1B 1713   9.353   2.014  11.113  0.0239  0.0858  0.0414
  143POPC   C2B 1714   9.398   2.434  11.023  0.1050 -0.2975 -0.1441
  143POPC   C3B 1715   9.487   2.879  11.245  0.2476 -0.0601 -0.0154
  143POPC   C4B 1716   9.527   3.145  11.618  0.0419 -0.1301 -0.2173
  144POPC   NC3 1717  11.721  11.251  10.496 -0.0185  0.0479  0.2509
  144POPC   PO4 1718  11.640  10.841  10.411  0.0258  0.0728  0.0570
  144POPC   GL1 1719  11.319  10.685  10.413 -0.0530  0.1532 -0.0294
  144POPC   GL2 1720  11.164  10.711  10.118 -0.2494 -0.0154  0.3294
  144POPC   C1A 1721  11.213  10.243  10.262 -0.1521 -0.1585 -0.1854
  144POPC   D2A 1722  11.096   9.997   9.896  0.0668  0.0523  0.3138
  144POPC   C3A 1723  11.092   9.804   9.447 -0.0726 -0.2231 -0.0184
  144POPC   C4A 1724  11.038   9.801   9.040 -0.0107  0.1215  0.0572
  144POPC   C1B 1725  10.893  10.682   9.722  0.0730  0.1663 -0.2087
  144POPC   C2B 1726  10.803  10.287   9.486 -0.0246  0.1341  0.0119
  144POPC   C3B 1727  10.563   9.892   9.495  0.1318 -0.1295 -0.1289
  144POPC   C4B 1728  10.225   9.778   9.140 -0.0378 -0.0980  0.1570
  145POPC   NC3 1729  15.603   1.306   8.950  0.0409  0.1350 -0.2353
  145POPC   PO4 1730  15.967   1.149   8.865 -0.1085  0.2423  0.2882
  145POPC   GL1 1731  15.888   1.042   8.462  0.1099  0.0648 -0.2836
  145POPC   GL2 1732  16.078   1.327   8.455 -0.1120  0.1776 -0.1340
  145POPC   C1A 1733  15.711   0.953   8.091 -0.0371  0.0217  0.2125
  145POPC   D2A 1734  15.474   1.245   7.815 -0.1346 -0.0952  0.1000
  145POPC   C3A 1735  15.411   1.119   7.403  0.0341 -0.0649  0.4811
  145POPC   C4A 1736  15.208   1.090   7.010  0.0603  0.2280  0.0279
  145POPC   C1B 1737  15.678   1.474   8.372 -0.2914  0.1822 -0.0050
  145POPC   C2B 1738  15.283   1.528   8.173  0.0905 -0.1999  0.1904
  145POPC   C3B 1739  14.948   1.402   7.830  0.1983 -0.0919  0.5440
  145POPC   C4B 1740  14.884   1.152   7.456 -0.2117 -0.1037 -0.1521
  146POPC   NC3 1741   8.196  10.539  11.004 -0.1459 -0.1893  0.3743
  146POPC   PO4 1742   8.175  10.157  10.909 -0.1821  0.0490  0.1725
  146POPC   GL1 1743   8.461   9.893  11.164  0.3444 -0.1841  0.2040
  146POPC   GL2 1744   8.322   9.712  11.341  0.2992 -0.3212  0.0822
  146POPC   C1A 1745   8.685   9.584  10.873 -0.2345 -0.1388  0.2833
  146POPC   D2A 1746   8.636   9.516  10.418 -0.0407 -0.3388  0.0879
  146POPC   C3A 1747   8.350   9.576  10.055  0.1593  0.1106  0.1233
  146POPC   C4A 1748   8.072   9.570   9.643 -0.3537 -0.1528 -0.3142
  146POPC   C1B 1749   8.263   9.328  11.105 -0.2141  0.0426 -0.2165
  146POPC   C2B 1750   8.541   9.140  10.763 -0.0862 -0.1096 -0.2647
  146POPC   C3B 1751   8.777   8.928  10.376 -0.0830 -0.0109 -0.1452
  146POPC   C4B 1752   8.601   9.087   9.996  0.0622  0.1703 -0.0192
  147POPC   NC3 1753   7.796  13.421   8.933 -0.1725 -0.1930 -0.2359
  147POPC   PO4 1754   7.477  13.247   8.881 -0.0149  0.2630  0.0567
  147POPC   GL1 1755   7.744  13.171   8.508  0.0255 -0.1101 -0.3105
  147POPC   GL2 1756   7.888  13.414   8.470  0.5999  0.0234  0.5203
  147POPC   C1A 1757   7.897  12.770   8.356  0.0328 -0.2517  0.0356
  147POPC   D2A 1758   7.916  12.330   8.394 -0.2182  0.0985  0.1159
  147POPC   C3A 1759   8.150  12.167   8.017 -0.1411  0.0590  0.0696
  147POPC   C4A 1760   8.368  12.362   7.664  0.0305  0.3484  0.0884
  147POPC   C1B 1761   8.085  13.186   8.143  0.3122 -0.1646 -0.1593
  147POPC   C2B 1762   8.401  13.102   7.872 -0.1864 -0.1134  0.1315
  147POPC   C3B 1763   8.496  13.056   7.450 -0.0372 -0.0933 -0.1575
  147POPC   C4B 1764   8.477  12.700   7.175 -0.1516 -0.4009 -0.0227
  148POPC   NC3 1765   4.532  10.199   9.140  0.1147 -0.0946  0.0999
  148POPC   PO4 1766   4.351  10.499   9.182  0.2674 -0.0851 -0.0234
  148POPC   GL1 1767   4.257  10.360   8.847 -0.0056 -0.3320 -0.0828
  148POPC   GL2 1768   4.225  10.114   8.731  0.0064 -0.2202 -0.0183
  148POPC   C1A 1769   4.281  10.484   8.376 -0.0940  0.0197  0.1149
  148POPC   D2A 1770   4.227  10.452   7.880  0.3037  0.0584  0.0826
  148POPC   C3A 1771   4.629  10.585   7.683 -0.1703 -0.2256 -0.2524
  148POPC   C4A 1772   4.877  10.980   7.649 -0.0474 -0.1564  0.3670
  148POPC   C1B 1773   4.607   9.993   8.415  0.0444 -0.0106 -0.3922
  148POPC   C2B 1774   4.973   9.931   8.075 -0.3089  0.1594 -0.2487
  148POPC   C3B 1775   5.019  10.104   7.628  0.2849 -0.2085  0.0472
  148POPC   C4B 1776   5.414  10.247   7.375 -0.1941 -0.2308 -0.0565
  149POPC   NC3 1777   4.696   6.200  11.238 -0.0339 -0.0894 -0.2864
  149POPC   PO4 1778   4.587   6.299  10.862  0.0409 -0.2323 -0.0265
  149POPC   GL1 1779   5.015   6.279  10.642  0.0729  0.2582  0.0246
  149POPC   GL2 1780   5.112   6.160  10.913 -0.1632 -0.4075  0.2612
  149POPC   C1A 1781   5.213   5.886  10.483  0.3328  0.0886  0.0161
  149POPC   D2A 1782   5.623   5.868  10.767  0.3879 -0.1033  0.2964
  149POPC   C3A 1783   5.959   5.842  10.472  0.2047  0.0604 -0.1486
  149POPC   C4A 1784   6.268   6.081  10.252  0.0897  0.0676  0.2690
  149POPC   C1B 1785   5.511   6.371  11.054  0.1902  0.0306 -0.0021
  149POPC   C2B 1786   5.887   6.672  11.090 -0.1947  0.0725  0.1522
  149POPC   C3B 1787   6.330   6.572  10.871  0.0568  0.1030  0.2787
  149POPC   C4B 1788   6.546   6.497  10.493  0.1943  0.1945  0.1125
  150POPC   NC3 1789  11.891   9.559  14.040 -0.0872  0.1159  0.1329
  150POPC   PO4 1790  11.550   9.756  13.959  0.0138  0.2907 -0.2954
  150POPC   GL1 1791  11.406   9.452  14.045  0.2042  0.0506  0.1959
  150POPC   GL2 1792  11.371   9.301  13.822  0.0791  0.1950 -0.0023
  150POPC   C1A 1793  10.967   9.335  14.072  0.0335  0.0810 -0.0884
  150POPC   D2A 1794  10.717   8.963  14.177  0.1162  0.1446 -0.2095
  150POPC   C3A 1795  10.769   8.504  14.020 -0.0356 -0.2943  0.0826
  150POPC   C4A 1796  10.626   8.166  13.797 -0.1086 -0.0924 -0.4216
  150POPC   C1B 1797  10.947   8.966  13.718  0.0413 -0.0936  0.2363
  150POPC   C2B 1798  10.771   8.542  13.507  0.2588  0.0746 -0.1403
  150POPC   C3B 1799  10.715   8.171  13.255 -0.1569 -0.1233 -0.2312
  150POPC   C4B 1800  10.314   8.109  13.014  0.1621  0.2688 -0.2048
  151POPC   NC3 1801   3.961   7.723   9.537  0.2324 -0.2070  0.1647
  151POPC   PO4 1802   3.796   7.373   9.481 -0.3212 -0.1921  0.2324
  151POPC   GL1 1803   3.876   7.479   9.113  0.1102 -0.1548  0.0738
  151POPC   GL2 1804   4.090   7.589   9.027  0.2479 -0.3251 -0.5742
  151POPC   C1A 1805   3.672   7.598   8.677 -0.3927 -0.1817 -0.1333
  151POPC   D2A 1806   3.518   7.710   8.309  0.1134 -0.1386 -0.1037
  151POPC   C3A 1807   3.560   7.950   7.888 -0.2644 -0.0635  0.2526
  151POPC   C4A 1808   3.846   8.025   7.594 -0.2349 -0.1107  0.2950
  151POPC   C1B 1809   4.273   7.578   8.619 -0.1845  0.0046 -0.3104
  151POPC   C2B 1810   4.378   7.317   8.181 -0.2098 -0.3024  0.0555
  151POPC   C3B 1811   4.347   7.304   7.770  0.2781 -0.1267  0.1411
  151POPC   C4B 1812   4.126   7.258   7.423 -0.2729  0.2767 -0.0253
  152POPC   NC3 1813  13.182   0.903  14.426 -0.3339  0.1093 -0.0461
  152POPC   PO4 1814  13.142   1.226  14.660  0.0335  0.0497  0.1841
  152POPC   GL1 1815  13.037   1.550  14.823 -0.2827 -0.0591  0.0144
  152POPC   GL2 1816  12.794   1.572  14.985  0.4450 -0.2253 -0.0868
  152POPC   C1A 1817  13.177   1.890  15.067 -0.2443 -0.0333 -0.2869
  152POPC   D2A 1818  13.531   2.178  15.276  0.0302 -0.0847  0.3841
  152POPC   C3A 1819  13.187   2.237  15.630  0.3026  0.1002 -0.0166
  152POPC   C4A 1820  12.739   2.172  15.741  0.0357 -0.3701 -0.2445
  152POPC   C1B 1821  12.470   1.448  15.207  0.2458  0.0023  0.0400
  152POPC   C2B 1822  12.176   1.662  15.519 -0.1602  0.4530 -0.0457
  152POPC   C3B 1823  12.076   2.026  15.799 -0.2350 -0.3804  0.0251
  152POPC   C4B 1824  12.170   2.000  16.277 -0.1410 -0.3180 -0.1414
  153POPC   NC3 1825   5.249   0.831  15.136 -0.0209 -0.3359  0.6078
  153POPC   PO4 1826   5.408   1.056  14.836 -0.1799 -0.0875  0.2065
  153POPC   GL1 1827   5.633   1.030  15.208  0.1678  0.3859 -0.3939
  153POPC   GL2 1828   5.605   0.799  15.451 -0.0751  0.1326 -0.0343
  153POPC   C1A 1829   6.065   1.214  15.263 -0.1266 -0.2131  0.0885
  153POPC   D2A 1830   6.217   1.635  15.407 -0.1843  0.4330  0.0086
  153POPC   C3A 1831   6.525   1.770  15.753  0.0425  0.0561  0.1082
  153POPC   C4A 1832   6.874   2.023  15.892 -0.1462  0.3199  0.2791
  153POPC   C1B 1833   5.525   0.879  15.899  0.0162 -0.0856 -0.2983
  153POPC   C2B 1834   5.436   1.252  16.138 -0.1737 -0.1410 -0.3160
  153POPC   C3B 1835   5.667   1.616  16.414  0.1835  0.2228  0.0399
  153POPC   C4B 1836   5.851   1.883  16.801 -0.0806 -0.0184  0.1760
  154POPC   NC3 1837  16.116   4.104   9.127  0.1169 -0.0928  0.4129
  154POPC   PO4 1838  16.506   4.008   9.151 -0.1432 -0.1784  0.0245
  154POPC   GL1 1839  16.370   3.965   8.752 -0.4738  0.1850 -0.4710
  154POPC   GL2 1840  16.436   3.648   8.746  0.0615 -0.2946  0.0620
  154POPC   C1A 1841  16.110   4.297   8.566 -0.0221 -0.0934  0.0111
  154POPC   D2A 1842  15.787   4.337   8.243  0.1118  0.0820  0.0947
  154POPC   C3A 1843  15.682   4.417   7.774  0.1985  0.0056  0.0431
  154POPC   C4A 1844  15.294   4.352   7.438 -0.3433 -0.0149 -0.0211
  154POPC   C1B 1845  16.360   3.780   8.248 -0.0549  0.1605  0.1201
  154POPC   C2B 1846  16.169   4.129   8.042 -0.2927 -0.1199  0.0874
  154POPC   C3B 1847  16.219   4.232   7.591  0.0784 -0.0795  0.1783
  154POPC   C4B 1848  15.926   4.515   7.320 -0.1344  0.1772 -0.1531
  155POPC   NC3 1849   4.370   3.544   9.709  0.0343 -0.1024 -0.1585
  155POPC   PO4 1850   4.540   3.912   9.722  0.1504  0.1811  0.0649
  155POPC   GL1 1851   4.739   4.028   9.506 -0.1317 -0.0240  0.0492
  155POPC   GL2 1852   4.823   3.804   9.306 -0.0420 -0.7510  0.0129
  155POPC   C1A 1853   5.040   4.265   9.280 -0.0570 -0.2010 -0.1339
  155POPC   D2A 1854   5.491   4.309   9.398 -0.0830 -0.1445  0.1283
  155POPC   C3A 1855   5.833   4.086   9.107  0.1159  0.1122  0.0505
  155POPC   C4A 1856   6.115   3.762   8.934 -0.0098 -0.1075  0.2371
  155POPC   C1B 1857   4.990   3.957   8.912  0.0255  0.3929 -0.2673
  155POPC   C2B 1858   4.983   4.120   8.454  0.0400 -0.0095 -0.0864
  155POPC   C3B 1859   4.796   4.509   8.234 -0.2062  0.2087 -0.1990
  155POPC   C4B 1860   5.071   4.780   8.072 -0.2654 -0.0622 -0.0992
  156POPC   NC3 1861   8.455  12.031   9.617  0.1671 -0.2283  0.0930
  156POPC   PO4 1862   8.373  11.642   9.662  0.1133 -0.0746 -0.0604
  156POPC   GL1 1863   8.499  11.432   9.367  0.0576 -0.4359 -0.2230
  156POPC   GL2 1864   8.712  11.283   9.401  0.1154  0.1117 -0.2252
  156POPC   C1A 1865   8.446  11.239   8.954 -0.1374  0.0964 -0.1852
  156POPC   D2A 1866   8.537  10.871   8.732 -0.2561 -0.1918 -0.0470
  156POPC   C3A 1867   8.391  10.858   8.244  0.0143 -0.0968 -0.1936
  156POPC   C4A 1868   8.127  10.692   7.890 -0.1828 -0.1195  0.1286
  156POPC   C1B 1869   8.990  11.262   9.012  0.0736 -0.0710 -0.2898
  156POPC   C2B 1870   9.294  11.170   8.677 -0.3265 -0.0228 -0.0061
  156POPC   C3B 1871   9.327  11.341   8.229  0.0123  0.0904  0.2005
  156POPC   C4B 1872   9.558  11.225   7.812 -0.1708  0.0122 -0.0183
  157POPC   NC3 1873  10.825   1.013  11.669  0.0720 -0.4117  0.2173
  157POPC   PO4 1874  10.991   0.999  12.030  0.2118 -0.1283  0.0312
  157POPC   GL1 1875  10.958   1.363  11.983  0.6223 -0.3004  0.4260
  157POPC   GL2 1876  11.057   1.568  11.748  0.2036 -0.0063 -0.0460
  157POPC   C1A 1877  11.126   1.723  12.268 -0.0406  0.0218 -0.1480
  157POPC   D2A 1878  11.309   1.813  12.707 -0.1263 -0.1993  0.1463
  157POPC   C3A 1879  11.061   1.860  13.049 -0.2536 -0.2221  0.2007
  157POPC   C4A 1880  10.788   2.159  12.911  0.0855  0.0859  0.1548
  157POPC   C1B 1881  10.970   2.055  11.618 -0.0606  0.0751  0.1446
  157POPC   C2B 1882  10.666   2.366  11.497  0.0655  0.1709  0.0918
  157POPC   C3B 1883  10.498   2.679  11.215  0.0614 -0.0396 -0.0269
  157POPC   C4B 1884  10.681   2.836  10.791  0.0949  0.0879 -0.2362
  158POPC   NC3 1885   3.977  15.360   8.493 -0.0274 -0.3532 -0.3146
  158POPC   PO4 1886   3.811  15.727   8.652  0.0315 -0.1368  0.0512
  158POPC   GL1 1887   3.708  15.921   8.279  0.3698 -0.0787 -0.1466
  158POPC   GL2 1888   3.559  15.709   8.213 -0.0849 -0.2262  0.0465
  158POPC   C1A 1889   3.910  16.131   7.919  0.1625  0.0904 -0.0421
  158POPC   D2A 1890   3.802  16.518   7.571 -0.2014 -0.0677  0.0508
  158POPC   C3A 1891   3.675  16.371   7.142 -0.1267 -0.4576 -0.2363
  158POPC   C4A 1892   3.372  16.429   6.801 -0.0000  0.1044  0.0580
  158POPC   C1B 1893   3.528  15.709   7.762 -0.3255  0.0551  0.1924
  158POPC   C2B 1894   3.601  16.008   7.483  0.0172 -0.2673 -0.1920
  158POPC   C3B 1895   4.025  15.967   7.268  0.3395 -0.0600  0.1824
  158POPC   C4B 1896   4.437  16.092   7.190  0.1325 -0.0734  0.1289
  159POPC   NC3 1897  11.937   0.577  10.643  0.1320  0.0935 -0.1249
  159POPC   PO4 1898  12.028   0.779  10.960  0.5882  0.1608  0.1651
  159POPC   GL1 1899  12.044   1.135  10.821  0.2160 -0.1596 -0.0911
  159POPC   GL2 1900  11.918   1.227  10.551  0.0620 -0.0765 -0.1554
  159POPC   C1A 1901  11.662   1.393  10.889  0.1951  0.0314 -0.1183
  159POPC   D2A 1902  11.358   1.744  10.766  0.1270  0.1638 -0.0990
  159POPC   C3A 1903  11.287   2.196  10.727  0.3374 -0.1927  0.1672
  159POPC   C4A 1904  11.153   2.629  10.793  0.2069  0.0153 -0.1968
  159POPC   C1B 1905  11.627   1.500  10.384  0.0840  0.1453  0.2191
  159POPC   C2B 1906  11.306   1.830  10.252  0.0357 -0.0356 -0.0563
  159POPC   C3B 1907  11.179   2.301  10.258 -0.2702  0.3583 -0.2795
  159POPC   C4B 1908  11.060   2.759  10.318  0.0633  0.1412  0.2346
  160POPC   NC3 1909   2.842  16.412   8.445 -0.1166  0.2946  0.3498
  160POPC   PO4 1910   2.423  16.418   8.425  0.0226  0.2632 -0.3867
  160POPC   GL1 1911   2.518  16.305   8.020  0.2223 -0.1557  0.3340
  160POPC   GL2 1912   2.252  16.210   7.893 -0.1483 -0.1288 -0.1355
  160POPC   C1A 1913   2.464  16.641   7.779  0.2265 -0.1631  0.0353
  160POPC   D2A 1914   2.264  17.039   7.653  0.0111 -0.1650 -0.0413
  160POPC   C3A 1915   2.195  17.142   7.220  0.1725 -0.1229  0.0422
  160POPC   C4A 1916   2.381  17.296   6.854  0.4661  0.0587 -0.2428
  160POPC   C1B 1917   2.454  16.035   7.543 -0.1507  0.0202  0.1457
  160POPC   C2B 1918   2.803  15.731   7.452  0.1171  0.1951  0.1665
  160POPC   C3B 1919   3.005  15.621   6.983  0.0156  0.1731  0.0267
  160POPC   C4B 1920   2.891  15.789   6.536  0.0250 -0.1133  0.0902
  161POPC   NC3 1921   9.062  15.629   9.558  0.0074  0.0078  0.1500
  161POPC   PO4 1922   8.767  15.849   9.506 -0.0442 -0.3122 -0.1631
  161POPC   GL1 1923   8.712  15.945   9.135  0.5371  0.1718 -0.2376
  161POPC   GL2 1924   8.870  15.903   8.917 -0.0534  0.0161  0.0122
  161POPC   C1A 1925   8.733  16.382   8.893 -0.3498  0.2211  0.1606
  161POPC   D2A 1926   8.667  16.603   8.503  0.0205  0.0778 -0.1874
  161POPC   C3A 1927   8.810  16.733   8.110  0.2947 -0.1009 -0.1051
  161POPC   C4A 1928   9.023  16.991   7.801  0.1186  0.1080 -0.0036
  161POPC   C1B 1929   8.910  15.988   8.497  0.1865 -0.1029 -0.0675
  161POPC   C2B 1930   9.004  16.217   8.145 -0.3057 -0.0311  0.2391
  161POPC   C3B 1931   9.050  16.390   7.678  0.0195  0.0572 -0.1945
  161POPC   C4B 1932   8.883  16.336   7.291  0.0094 -0.1112  0.1470
  162POPC   NC3 1933   2.737   5.390   9.570  0.0555 -0.1135  0.1319
  162POPC   PO4 1934   2.407   5.357   9.341 -0.1905 -0.0583 -0.1155
  162POPC   GL1 1935   2.751   5.437   9.110  0.0427  0.1476 -0.2249
  162POPC   GL2 1936   2.805   5.235   8.932 -0.0635  0.2307  0.2084
  162POPC   C1A 1937   3.098   5.542   8.802  0.2048  0.2813  0.0159
  162POPC   D2A 1938   3.054   5.602   8.342  0.0694  0.3422  0.0952
  162POPC   C3A 1939   3.343   5.796   8.104 -0.0359 -0.3278  0.2379
  162POPC   C4A 1940   3.499   6.052   7.734  0.1167  0.0321 -0.2832
  162POPC   C1B 1941   2.879   5.167   8.486  0.0620  0.1974 -0.0666
  162POPC   C2B 1942   2.846   5.228   8.039  0.0691  0.2523  0.1062
  162POPC   C3B 1943   2.713   5.320   7.611 -0.1128  0.0846 -0.0183
  162POPC   C4B 1944   2.502   5.515   7.232  0.0274  0.1907  0.1707
  163POPC   NC3 1945   4.769   1.761  15.051  0.0072  0.0900 -0.1887
  163POPC   PO4 1946   4.453   1.561  15.010 -0.1697  0.2787  0.0222
  163POPC   GL1 1947   4.378   1.696  15.422  0.0492  0.2045  0.3100
  163POPC   GL2 1948   4.519   1.976  15.408 -0.0637  0.1667 -0.2969
  163POPC   C1A 1949   4.716   1.617  15.704 -0.0386 -0.1170  0.1806
  163POPC   D2A 1950   5.092   1.613  15.951 -0.0431  0.1474 -0.0760
  163POPC   C3A 1951   5.052   1.520  16.439 -0.0522 -0.2646 -0.1121
  163POPC   C4A 1952   5.212   1.637  16.820 -0.0994 -0.2300 -0.0094
  163POPC   C1B 1953   4.542   2.358  15.609  0.0859 -0.1439 -0.0636
  163POPC   C2B 1954   4.575   2.517  16.003  0.1093  0.0031 -0.0923
  163POPC   C3B 1955   4.596   2.483  16.456  0.0737 -0.0938  0.0388
  163POPC   C4B 1956   4.983   2.576  16.637 -0.1793 -0.3762 -0.1500
  164POPC   NC3 1957   0.155   1.351  15.709 -0.0443 -0.3800 -0.0570
  164POPC   PO4 1958   0.492   1.599  15.757 -0.0164  0.1030 -0.0323
  164POPC   GL1 1959   0.572   1.403  16.116 -0.1381  0.2951 -0.0288
  164POPC   GL2 1960   0.621   1.586  16.351  0.3631 -0.2422  0.0869
  164POPC   C1A 1961   0.915   1.249  16.444 -0.3112  0.0221  0.0096
  164POPC   D2A 1962   0.935   1.368  16.886 -0.1212  0.3128  0.2067
  164POPC   C3A 1963   0.770   1.299  17.291  0.3047 -0.1323 -0.0528
  164POPC   C4A 1964   0.415   1.296  17.554 -0.0927  0.3832  0.0104
  164POPC   C1B 1965   0.391   1.772  16.667 -0.1250 -0.0078  0.0488
  164POPC   C2B 1966   0.285   2.036  17.029 -0.1935  0.2670  0.0499
  164POPC   C3B 1967   0.507   2.130  17.438 -0.2047 -0.3582  0.0841
  164POPC   C4B 1968   0.992   2.164  17.480  0.0332  0.3915  0.2984
  165POPC   NC3 1969   0.786   2.751   9.488  0.2555 -0.0882 -0.0373
  165POPC   PO4 1970   0.748   2.763   9.126  0.1456 -0.3245  0.0424
  165POPC   GL1 1971   0.518   2.757   8.833 -0.2036 -0.0856 -0.1880
  165POPC   GL2 1972   0.243   2.837   8.846 -0.2720 -0.0553  0.0045
  165POPC   C1A 1973   0.442   2.704   8.377  0.0162  0.2268  0.0198
  165POPC   D2A 1974   0.090   2.878   8.115 -0.0698  0.0049  0.2022
  165POPC   C3A 1975   0.240   2.968   7.700  0.0994  0.0242 -0.0971
  165POPC   C4A 1976   0.372   2.998   7.236 -0.0639 -0.2644 -0.2765
  165POPC   C1B 1977  -0.118   2.647   8.616  0.2577  0.0760 -0.1085
  165POPC   C2B 1978  -0.416   2.430   8.284 -0.1090  0.0413  0.0145
  165POPC   C3B 1979  -0.327   2.153   7.945 -0.0255  0.1470 -0.0868
  165POPC   C4B 1980   0.061   1.937   7.780  0.1351 -0.4704 -0.1362
  166POPC   NC3 1981   7.494  12.425   8.616  0.0867  0.2239  0.1419
  166POPC   PO4 1982   7.211  12.260   8.825  0.1189  0.0712 -0.0030
  166POPC   GL1 1983   7.168  12.274   8.386 -0.0841 -0.1218 -0.0045
  166POPC   GL2 1984   7.413  11.983   8.386  0.2152  0.2445  0.2621
  166POPC   C1A 1985   7.183  12.034   7.994  0.3521 -0.0896 -0.0455
  166POPC   D2A 1986   7.590  11.859   7.763  0.1526  0.0515 -0.0462
  166POPC   C3A 1987   7.870  11.686   8.035  0.2136  0.0016  0.4304
  166POPC   C4A 1988   7.949  11.860   8.418 -0.2753  0.2672 -0.3102
  166POPC   C1B 1989   7.626  12.252   8.039  0.1805 -0.0217  0.1559
  166POPC   C2B 1990   7.762  12.295   7.595  0.3704 -0.0417  0.1550
  166POPC   C3B 1991   8.045  12.408   7.266  0.1136 -0.0897 -0.1153
  166POPC   C4B 1992   7.982  12.571   6.864 -0.1078 -0.2867  0.0697
  167POPC   NC3 1993  10.909  15.344   9.306  0.0071 -0.1298  0.1371
  167POPC   PO4 1994  11.171  15.626   9.364 -0.1489  0.6953  0.1805
  167POPC   GL1 1995  11.219  15.576   8.877 -0.0964  0.0862 -0.4628
  167POPC   GL2 1996  11.016  15.351   8.849 -0.0434 -0.2868  0.2001
  167POPC   C1A 1997  10.979  15.714   8.473 -0.1468  0.0566 -0.2651
  167POPC   D2A 1998  10.987  15.548   8.094  0.0348 -0.1580  0.2229
  167POPC   C3A 1999  11.099  15.445   7.654 -0.0126 -0.0273  0.0793
  167POPC   C4A 2000  11.072  15.148   7.353 -0.1498 -0.2646  0.2818
  167POPC   C1B 2001  11.245  15.321   8.461 -0.0284  0.0786 -0.0141
  167POPC   C2B 2002  11.521  15.279   8.071  0.1088  0.1703 -0.0431
  167POPC   C3B 2003  11.603  15.430   7.664  0.2501 -0.1294 -0.1309
  167POPC   C4B 2004  11.734  15.721   7.336  0.1602  0.2094 -0.0354
  168POPC   NC3 2005   4.963   7.400  10.528  0.0078  0.0445 -0.1741
  168POPC   PO4 2006   4.753   7.424  10.175  0.0671  0.1283 -0.2938
  168POPC   GL1 2007   4.743   7.509   9.807 -0.2076  0.1093  0.4553
  168POPC   GL2 2008   4.960   7.679   9.766  0.1776 -0.0408  0.0401
  168POPC   C1A 2009   4.883   7.260   9.443 -0.0288  0.2941  0.2592
  168POPC   D2A 2010   5.093   7.252   8.996 -0.0315 -0.0737 -0.0182
  168POPC   C3A 2011   5.392   7.452   8.691 -0.0753  0.2438 -0.3450
  168POPC   C4A 2012   5.617   7.519   8.243 -0.0329  0.2183  0.1831
  168POPC   C1B 2013   5.226   7.671   9.336 -0.0162  0.1435 -0.0562
  168POPC   C2B 2014   5.637   7.467   9.230  0.0598 -0.0190 -0.3335
  168POPC   C3B 2015   5.904   7.442   8.903  0.0747 -0.2525  0.1254
  168POPC   C4B 2016   6.413   7.447   8.864  0.0184  0.0906 -0.2672
  169POPC   NC3 2017  16.050   9.708   9.499  0.1378  0.0792  0.2367
  169POPC   PO4 2018  16.411   9.611   9.342 -0.0979  0.0053 -0.0926
  169POPC   GL1 2019  16.207   9.659   9.034 -0.1201  0.1530 -0.2606
  169POPC   GL2 2020  16.013   9.434   9.114 -0.2293 -0.0920  0.2297
  169POPC   C1A 2021  16.260   9.382   8.651 -0.0267 -0.2013 -0.0259
  169POPC   D2A 2022  16.443   9.275   8.256  0.0179 -0.0498  0.0244
  169POPC   C3A 2023  16.256   8.868   8.023  0.1047  0.1970 -0.2207
  169POPC   C4A 2024  16.206   8.495   7.757  0.1362  0.0987 -0.0003
  169POPC   C1B 2025  15.732   9.309   8.718  0.1161  0.0865  0.0792
  169POPC   C2B 2026  15.883   9.045   8.361  0.0843 -0.1322 -0.0447
  169POPC   C3B 2027  15.700   9.030   7.931  0.1891  0.3846  0.1010
  169POPC   C4B 2028  15.851   8.977   7.424  0.1760  0.1384  0.1171
  170POPC   NC3 2029   2.029  12.022   8.216  0.0403  0.1046  0.0644
  170POPC   PO4 2030   2.046  12.360   8.419  0.1248  0.0761 -0.1983
  170POPC   GL1 2031   1.963  12.386   7.986 -0.4727  0.1063  0.2168
  170POPC   GL2 2032   1.816  12.532   7.775 -0.4437 -0.2698 -0.3342
  170POPC   C1A 2033   2.313  12.232   7.698  0.0331  0.0157  0.2504
  170POPC   D2A 2034   2.507  12.122   7.258 -0.2439  0.0929 -0.1674
  170POPC   C3A 2035   2.523  11.843   6.857  0.3673 -0.2090 -0.0052
  170POPC   C4A 2036   2.819  11.999   6.553  0.0175  0.4810  0.1699
  170POPC   C1B 2037   1.693  12.164   7.506  0.2082  0.0343 -0.0634
  170POPC   C2B 2038   1.438  12.021   7.172 -0.0294  0.1568  0.0389
  170POPC   C3B 2039   1.387  12.037   6.733  0.0664  0.0327  0.0354
  170POPC   C4B 2040   1.615  12.238   6.407  0.0259  0.1317 -0.1013
  171POPC   NC3 2041   8.274   0.911  10.540  0.2957 -0.1575  0.1466
  171POPC   PO4 2042   8.493   0.902  10.870  0.1455 -0.1686 -0.1848
  171POPC   GL1 2043   8.558   1.293  10.682  0.2130 -0.1309 -0.0370
  171POPC   GL2 2044   8.340   1.421  10.541 -0.0451  0.3162 -0.0937
  171POPC   C1A 2045   8.760   1.573  10.381 -0.0804 -0.1285 -0.2441
  171POPC   D2A 2046   8.848   1.867   9.980  0.3060  0.0143  0.0189
  171POPC   C3A 2047   8.661   1.957   9.585 -0.1516  0.0927  0.1762
  171POPC   C4A 2048   8.456   2.199   9.214 -0.1326 -0.2450 -0.1957
  171POPC   C1B 2049   8.360   1.875  10.429  0.0731  0.0859 -0.0930
  171POPC   C2B 2050   8.636   2.234  10.236  0.1802  0.0149  0.0755
  171POPC   C3B 2051   8.755   2.615  10.137 -0.0675 -0.0564 -0.1535
  171POPC   C4B 2052   8.885   3.043  10.185  0.2192  0.1669 -0.3100
  172POPC   NC3 2053  16.018  32.690   8.339  0.1253 -0.1932 -0.0218
  172POPC   PO4 2054  15.851  32.336   8.301 -0.0819 -0.1443 -0.0925
  172POPC   GL1 2055  15.685  32.404   8.022 -0.0525  0.3500  0.1651
  172POPC   GL2 2056  15.878  32.471   7.785  0.2833  0.3087  0.2373
  172POPC   C1A 2057  15.280  32.610   7.986  0.0821  0.2790 -0.0174
  172POPC   D2A 2058  14.842  32.689   7.905 -0.3700  0.1237  0.0005
  172POPC   C3A 2059  14.865  32.614   7.430  0.2026 -0.0753 -0.2524
  172POPC   C4A 2060  14.932  32.539   7.001  0.2737  0.0834  0.1641
  172POPC   C1B 2061  15.836  32.687   7.365 -0.1798  0.1702 -0.1163
  172POPC   C2B 2062  15.917  32.829   6.963 -0.1606  0.3272  0.1581
  172POPC   C3B 2063  16.010  32.802   6.506  0.3376 -0.0296 -0.0896
  172POPC   C4B 2064  15.680  32.558   6.255  0.0400  0.0347 -0.0923
  173POPC   NC3 2065   3.417   4.625  14.626 -0.0760  0.0708  0.2035
  173POPC   PO4 2066   3.425   4.313  14.895  0.0857  0.0528  0.0839
  173POPC   GL1 2067   3.707   4.060  14.955  0.2441  0.2456 -0.0680
  173POPC   GL2 2068   3.631   3.758  14.981  0.0628 -0.1956 -0.0365
  173POPC   C1A 2069   4.100   4.061  15.205 -0.0345 -0.1217 -0.2346
  173POPC   D2A 2070   4.320   3.851  15.549  0.0905  0.2221 -0.1870
  173POPC   C3A 2071   4.761   3.827  15.556  0.1846  0.0728 -0.0097
  173POPC   C4A 2072   5.126   3.809  15.798 -0.0678 -0.1536 -0.0413
  173POPC   C1B 2073   3.769   3.732  15.426  0.0845 -0.1790 -0.3426
  173POPC   C2B 2074   3.859   3.896  15.849  0.1062  0.1213  0.0965
  173POPC   C3B 2075   3.954   4.177  16.245  0.1238 -0.3329 -0.1978
  173POPC   C4B 2076   4.054   4.235  16.662 -0.1803  0.1074  0.1176
  174POPC   NC3 2077  15.535   5.062   9.268 -0.0484  0.0159 -0.1355
  174POPC   PO4 2078  15.851   5.304   9.327  0.3978  0.0533 -0.0921
  174POPC   GL1 2079  16.109   5.283   8.968  0.0992  0.0595 -0.1302
  174POPC   GL2 2080  15.856   5.179   8.814  0.2126  0.0650 -0.0349
  174POPC   C1A 2081  16.273   5.571   8.700 -0.2912 -0.5443  0.1366
  174POPC   D2A 2082  16.092   5.569   8.334  0.1461 -0.1491 -0.0480
  174POPC   C3A 2083  15.670   5.645   8.231  0.2022  0.2498 -0.1681
  174POPC   C4A 2084  15.399   5.639   7.885  0.2382 -0.0322  0.2966
  174POPC   C1B 2085  15.706   5.183   8.366 -0.1200  0.0960  0.0359
  174POPC   C2B 2086  15.660   5.189   7.861  0.0533 -0.1340  0.0519
  174POPC   C3B 2087  15.716   5.106   7.426 -0.0571 -0.1644 -0.0695
  174POPC   C4B 2088  15.645   4.882   7.054 -0.0146  0.0521 -0.0503
  175POPC   NC3 2089  14.147  12.665   8.801 -0.0779 -0.0074  0.0591
  175POPC   PO4 2090  13.844  12.589   9.013 -0.0504  0.0219  0.0163
  175POPC   GL1 2091  13.587  12.347   8.796 -0.5416  0.0883  0.0510
  175POPC   GL2 2092  13.822  12.373   8.524  0.1731  0.0358 -0.0586
  175POPC   C1A 2093  13.273  12.384   8.384 -0.2669 -0.0095 -0.0412
  175POPC   D2A 2094  12.784  12.306   8.452 -0.1548  0.0238  0.0692
  175POPC   C3A 2095  12.614  12.277   8.060 -0.1407 -0.0270  0.0710
  175POPC   C4A 2096  12.640  12.044   7.659 -0.1040  0.1063  0.0352
  175POPC   C1B 2097  13.679  12.539   8.117 -0.0099 -0.0460 -0.0322
  175POPC   C2B 2098  13.719  12.544   7.616  0.0899  0.1001 -0.2005
  175POPC   C3B 2099  13.747  12.386   7.202 -0.1431 -0.0603 -0.2436
  175POPC   C4B 2100  13.732  12.400   6.719  0.2171 -0.2794  0.1073
  176POPC   NC3 2101  13.565  14.340   8.563  0.1391  0.1980  0.0678
  176POPC   PO4 2102  13.328  14.581   8.546 -0.4063  0.0204  0.1058
  176POPC   GL1 2103  13.240  14.463   8.195 -0.0901 -0.1095 -0.0092
  176POPC   GL2 2104  13.449  14.361   8.045  0.2006 -0.1302  0.0763
  176POPC   C1A 2105  13.020  14.650   7.843  0.1491  0.3061 -0.2645
  176POPC   D2A 2106  13.065  14.760   7.378  0.0938  0.0624  0.5688
  176POPC   C3A 2107  12.801  14.651   7.005  0.3526 -0.0616  0.2776
  176POPC   C4A 2108  12.383  14.630   6.814 -0.1382  0.0666 -0.2104
  176POPC   C1B 2109  13.526  14.531   7.639 -0.0084  0.2341 -0.0650
  176POPC   C2B 2110  13.506  14.749   7.172  0.0120  0.3165 -0.3483
  176POPC   C3B 2111  13.523  14.721   6.707 -0.0023 -0.1807 -0.0316
  176POPC   C4B 2112  13.442  14.638   6.264 -0.0610  0.0962  0.0420
  177POPC   NC3 2113   9.304   0.980  10.936 -0.0154  0.1341 -0.1999
  177POPC   PO4 2114   9.576   1.235  10.845  0.1119 -0.0488 -0.0139
  177POPC   GL1 2115   9.570   1.566  10.688  0.3889 -0.0263  0.0913
  177POPC   GL2 2116   9.583   1.671  10.397  0.1405  0.3206  0.2636
  177POPC   C1A 2117   9.248   1.936  10.606  0.0396 -0.1612  0.0307
  177POPC   D2A 2118   9.187   2.185  10.188  0.2936 -0.4638 -0.2282
  177POPC   C3A 2119   9.466   2.425   9.885 -0.2624  0.1069  0.0021
  177POPC   C4A 2120   9.704   2.801   9.831  0.1155  0.0598  0.0415
  177POPC   C1B 2121   9.648   2.078  10.289  0.4831 -0.0357 -0.4355
  177POPC   C2B 2122   9.478   2.435  10.571 -0.1964 -0.2590 -0.0134
  177POPC   C3B 2123   9.525   2.857  10.755  0.3359  0.2699 -0.0320
  177POPC   C4B 2124   9.723   3.218  10.956 -0.1494  0.2408  0.2488
  178POPC   NC3 2125   9.694  14.260   8.729  0.3552  0.0518  0.1046
  178POPC   PO4 2126   9.449  13.990   8.818 -0.1572  0.2145  0.2558
  178POPC   GL1 2127   9.349  14.008   8.478  0.4209  0.0764  0.0230
  178POPC   GL2 2128   9.616  13.968   8.346  0.3186 -0.1642 -0.0245
  178POPC   C1A 2129   9.204  14.217   8.147 -0.2485  0.0777 -0.0477
  178POPC   D2A 2130   9.027  14.538   7.913  0.4054 -0.0830 -0.0687
  178POPC   C3A 2131   9.005  14.403   7.482  0.0142 -0.0716  0.3012
  178POPC   C4A 2132   8.871  14.103   7.205 -0.1707  0.0277 -0.1486
  178POPC   C1B 2133   9.656  13.938   7.874  0.1569 -0.1003  0.0230
  178POPC   C2B 2134   9.775  13.834   7.494 -0.1396  0.0664 -0.1350
  178POPC   C3B 2135  10.061  13.828   7.110  0.1091 -0.1415  0.2848
  178POPC   C4B 2136  10.002  14.061   6.721  0.1527  0.2503  0.1789
  179POPC   NC3 2137   0.015   0.249   8.371  0.0339  0.0922 -0.3625
  179POPC   PO4 2138   0.160  -0.129   8.436 -0.0138  0.0254 -0.0074
  179POPC   GL1 2139   0.174  -0.102   8.080 -0.2169 -0.0363 -0.0851
  179POPC   GL2 2140   0.046  -0.385   7.960  0.2264 -0.2940  0.1233
  179POPC   C1A 2141  -0.179   0.003   7.892 -0.0778  0.0447 -0.1669
  179POPC   D2A 2142  -0.400   0.230   7.588  0.0995 -0.1217 -0.0062
  179POPC   C3A 2143  -0.284   0.361   7.180  0.0273  0.0295 -0.0928
  179POPC   C4A 2144  -0.436   0.512   6.779  0.2534 -0.0531 -0.0217
  179POPC   C1B 2145   0.316  -0.481   7.590 -0.0550 -0.0005 -0.2079
  179POPC   C2B 2146   0.416  -0.389   7.215 -0.1601  0.1211  0.3148
  179POPC   C3B 2147   0.551  -0.336   6.823  0.1770  0.3076 -0.1864
  179POPC   C4B 2148   0.692  -0.200   6.417 -0.0120 -0.5044  0.0509
  180POPC   NC3 2149   3.690  14.304   8.108 -0.0272  0.0537 -0.4517
  180POPC   PO4 2150   3.749  13.897   8.139  0.0524 -0.1598  0.0669
  180POPC   GL1 2151   3.924  13.882   7.819 -0.3757  0.2979 -0.1005
  180POPC   GL2 2152   4.019  14.124   7.748 -0.4782  0.2228  0.1278
  180POPC   C1A 2153   4.019  13.538   7.503 -0.0951  0.0488 -0.1260
  180POPC   D2A 2154   4.383  13.311   7.668 -0.1261  0.3332  0.0156
  180POPC   C3A 2155   4.698  13.123   7.333 -0.0551  0.1812 -0.2124
  180POPC   C4A 2156   4.866  13.046   6.899  0.0671  0.0249  0.0957
  180POPC   C1B 2157   3.932  14.152   7.255 -0.0756 -0.0741  0.0352
  180POPC   C2B 2158   3.773  14.187   6.821  0.0418 -0.2484 -0.1818
  180POPC   C3B 2159   3.592  14.044   6.375 -0.3490  0.1184  0.4924
  180POPC   C4B 2160   3.620  13.930   5.938  0.3590  0.3363  0.2901
  181POPC   NC3 2161  14.706   0.493   9.284 -0.0784 -0.0173  0.2844
  181POPC   PO4 2162  14.983   0.266   9.109  0.0489  0.2673 -0.0299
  181POPC   GL1 2163  14.779   0.251   8.800  0.4526  0.3526 -0.1863
  181POPC   GL2 2164  14.482   0.144   8.834  0.1022  0.0740 -0.2509
  181POPC   C1A 2165  14.752   0.145   8.332 -0.3130  0.2141  0.0838
  181POPC   D2A 2166  14.564   0.417   7.976  0.2008  0.0732 -0.2668
  181POPC   C3A 2167  14.246   0.470   7.627  0.3870  0.1228 -0.1001
  181POPC   C4A 2168  14.054   0.494   7.148  0.3542 -0.1392 -0.2780
  181POPC   C1B 2169  14.500   0.590   8.508 -0.1410  0.0058 -0.0763
  181POPC   C2B 2170  14.223   0.784   8.195 -0.0165  0.3637 -0.0038
  181POPC   C3B 2171  13.985   1.102   7.965 -0.2765  0.2625  0.1512
  181POPC   C4B 2172  13.785   1.203   7.620 -0.0279  0.0452  0.1326
  182POPC   NC3 2173   4.826   5.956  12.452 -0.1946 -0.0464  0.0048
  182POPC   PO4 2174   4.733   5.618  12.556 -0.1295  0.1099  0.1799
  182POPC   GL1 2175   5.017   5.525  12.822 -0.0342 -0.5000 -0.5130
  182POPC   GL2 2176   5.226   5.668  12.734 -0.5870 -0.3751  0.0915
  182POPC   C1A 2177   5.391   5.314  13.052 -0.2653 -0.0719  0.0491
  182POPC   D2A 2178   5.741   5.186  13.258 -0.0896  0.0740  0.1583
  182POPC   C3A 2179   5.991   5.378  13.628 -0.1603  0.1197  0.0544
  182POPC   C4A 2180   6.276   5.259  13.991  0.0378  0.0130  0.1667
  182POPC   C1B 2181   5.441   5.573  12.362  0.1444 -0.4091  0.0291
  182POPC   C2B 2182   5.741   5.599  12.026 -0.3119 -0.0368 -0.2193
  182POPC   C3B 2183   6.195   5.526  12.086  0.0796  0.2505 -0.2850
  182POPC   C4B 2184   6.566   5.590  11.864 -0.0051 -0.0242  0.0068
  183POPC   NC3 2185   2.788  11.784   8.396  0.0758 -0.0315 -0.1567
  183POPC   PO4 2186   2.904  12.175   8.420 -0.4282  0.1715  0.0466
  183POPC   GL1 2187   2.946  12.247   8.025  0.0213 -0.1613 -0.1882
  183POPC   GL2 2188   2.840  12.518   7.986 -0.1150  0.0185  0.0395
  183POPC   C1A 2189   3.241  12.099   7.710 -0.0401  0.2133 -0.0209
  183POPC   D2A 2190   3.568  11.987   7.422  0.1812 -0.1082  0.1997
  183POPC   C3A 2191   3.810  11.805   7.099 -0.0987  0.2468 -0.1426
  183POPC   C4A 2192   3.942  11.549   6.670 -0.0486 -0.1524 -0.1058
  183POPC   C1B 2193   2.840  12.437   7.492 -0.0660  0.1198 -0.1606
  183POPC   C2B 2194   2.975  12.524   7.039 -0.1830  0.2302  0.1871
  183POPC   C3B 2195   3.042  12.642   6.603  0.1456 -0.0404 -0.1132
  183POPC   C4B 2196   3.189  12.338   6.251 -0.1228  0.0224  0.0979
  184POPC   NC3 2197   6.450  12.756   8.940 -0.2077  0.0512 -0.2125
  184POPC   PO4 2198   6.359  12.781   8.576 -0.2082  0.0544 -0.0067
  184POPC   GL1 2199   6.239  12.550   8.319 -0.3697  0.0918  0.1259
  184POPC   GL2 2200   6.388  12.505   8.063 -0.0076  0.0469  0.5154
  184POPC   C1A 2201   6.188  12.102   8.104  0.0087  0.0155  0.0298
  184POPC   D2A 2202   6.334  11.682   8.054  0.2310 -0.2334  0.1558
  184POPC   C3A 2203   6.325  11.449   7.695 -0.2300 -0.2003  0.0260
  184POPC   C4A 2204   6.498  11.215   7.355 -0.2562 -0.2177  0.0286
  184POPC   C1B 2205   6.412  12.404   7.597 -0.1337 -0.0631 -0.2585
  184POPC   C2B 2206   6.077  12.355   7.215  0.0365  0.1784  0.0299
  184POPC   C3B 2207   6.059  12.072   6.839  0.0535 -0.1497 -0.0349
  184POPC   C4B 2208   6.310  12.077   6.440 -0.1567 -0.0316  0.4143
  185POPC   NC3 2209  13.366  12.081   9.130  0.3200  0.0868  0.0255
  185POPC   PO4 2210  13.669  11.849   9.051  0.0576 -0.0049 -0.0319
  185POPC   GL1 2211  13.571  11.838   8.694  0.4121  0.4563 -0.1656
  185POPC   GL2 2212  13.870  11.861   8.589  0.2033  0.3428 -0.1375
  185POPC   C1A 2213  13.629  11.463   8.358  0.2381 -0.2691  0.0519
  185POPC   D2A 2214  13.502  11.404   7.975 -0.2772  0.1641  0.1394
  185POPC   C3A 2215  13.324  11.174   7.635 -0.1474 -0.1442  0.4079
  185POPC   C4A 2216  13.110  11.233   7.202  0.0618  0.1422 -0.3147
  185POPC   C1B 2217  13.571  11.980   8.230  0.1364 -0.1144  0.2601
  185POPC   C2B 2218  13.470  11.918   7.805  0.1479  0.0766 -0.3790
  185POPC   C3B 2219  13.318  11.711   7.442 -0.0545  0.0193  0.3082
  185POPC   C4B 2220  13.071  12.051   7.296  0.1127 -0.2714  0.0663
  186POPC   NC3 2221   6.293   1.789  13.184 -0.4877 -0.0593  0.0528
  186POPC   PO4 2222   6.386   1.666  13.584 -0.3640 -0.0494 -0.0695
  186POPC   GL1 2223   6.653   2.030  13.628  0.1369 -0.0193  0.3983
  186POPC   GL2 2224   6.633   2.016  13.948  0.0312 -0.0423 -0.0095
  186POPC   C1A 2225   6.764   2.492  13.556 -0.0267 -0.0742 -0.0849
  186POPC   D2A 2226   7.080   2.729  13.290  0.1086  0.1237 -0.0010
  186POPC   C3A 2227   7.378   3.038  13.480  0.1990 -0.0654 -0.4338
  186POPC   C4A 2228   7.692   3.268  13.762  0.0054 -0.1981 -0.3045
  186POPC   C1B 2229   6.863   2.273  14.243 -0.1004 -0.0630 -0.0274
  186POPC   C2B 2230   7.234   2.344  14.541 -0.0002 -0.0943  0.1191
  186POPC   C3B 2231   7.223   2.691  14.864 -0.2226  0.0373 -0.0442
  186POPC   C4B 2232   7.538   2.719  15.194 -0.0831 -0.0098  0.2225
  187POPC   NC3 2233   2.033  13.089   7.765  0.3462  0.0608  0.1625
  187POPC   PO4 2234   1.990  13.451   7.911  0.0055  0.0812  0.2736
  187POPC   GL1 2235   1.774  13.566   7.557 -0.3083  0.2436 -0.0485
  187POPC   GL2 2236   2.058  13.674   7.470  0.1798  0.1002 -0.1512
  187POPC   C1A 2237   1.761  13.328   7.138  0.1293 -0.0388  0.0069
  187POPC   D2A 2238   1.820  13.187   6.666  0.0091  0.2057  0.1204
  187POPC   C3A 2239   2.177  13.025   6.473 -0.4789 -0.0556 -0.2749
  187POPC   C4A 2240   2.603  12.837   6.483 -0.3529  0.0513 -0.2999
  187POPC   C1B 2241   2.368  13.831   7.157 -0.0859  0.1741 -0.0137
  187POPC   C2B 2242   2.388  13.980   6.740 -0.1099 -0.0589  0.3339
  187POPC   C3B 2243   2.143  14.082   6.362 -0.0443 -0.0579  0.0148
  187POPC   C4B 2244   1.713  14.069   6.191 -0.0241  0.0895 -0.0045
  188POPC   NC3 2245  11.678  13.653   9.132  0.2211  0.1369 -0.1504
  188POPC   PO4 2246  11.451  13.518   8.866 -0.0300  0.2344  0.1942
  188POPC   GL1 2247  11.312  13.635   8.482 -0.0976  0.1754 -0.3831
  188POPC   GL2 2248  11.262  13.906   8.528 -0.6084  0.1554  0.2308
  188POPC   C1A 2249  11.263  13.441   8.078  0.0968 -0.1435  0.0218
  188POPC   D2A 2250  11.269  13.371   7.612  0.2913  0.0880  0.1501
  188POPC   C3A 2251  10.989  13.332   7.229 -0.0141 -0.2574  0.1986
  188POPC   C4A 2252  10.735  13.234   6.835  0.1091 -0.0304  0.1857
  188POPC   C1B 2253  11.102  13.973   8.127  0.1189  0.0519 -0.2098
  188POPC   C2B 2254  10.870  14.018   7.724  0.0586 -0.0563 -0.2050
  188POPC   C3B 2255  10.777  14.197   7.298  0.2383  0.0483  0.1795
  188POPC   C4B 2256  10.789  14.578   6.965  0.1456  0.1237  0.0948
  189POPC   NC3 2257  14.641   6.698  10.375  0.0923 -0.1681  0.1204
  189POPC   PO4 2258  14.623   6.350  10.482  0.0341  0.1337  0.1955
  189POPC   GL1 2259  14.540   6.497  10.007 -0.0317  0.1479  0.3083
  189POPC   GL2 2260  14.726   6.230  10.004 -0.0861  0.0075 -0.1792
  189POPC   C1A 2261  14.337   6.836   9.776 -0.0643 -0.1676 -0.1261
  189POPC   D2A 2262  14.489   6.943   9.292 -0.0137  0.0448 -0.0802
  189POPC   C3A 2263  14.404   6.551   9.013 -0.0814 -0.1437 -0.2690
  189POPC   C4A 2264  14.127   6.177   9.076 -0.0732 -0.0916 -0.1854
  189POPC   C1B 2265  14.271   6.080   9.911  0.2119  0.0977 -0.1758
  189POPC   C2B 2266  13.956   5.959   9.555 -0.2487 -0.1291 -0.3492
  189POPC   C3B 2267  13.712   5.795   9.196  0.2005  0.1380 -0.0197
  189POPC   C4B 2268  13.466   5.386   9.031 -0.3125 -0.1673  0.0011
  190POPC   NC3 2269   3.408   9.125   8.700 -0.0141 -0.5030  0.1903
  190POPC   PO4 2270   3.455   9.369   9.043 -0.1300  0.0460  0.1195
  190POPC   GL1 2271   3.802   9.351   8.927 -0.2853  0.0075  0.1707
  190POPC   GL2 2272   3.882   9.664   8.922 -0.2992  0.1128 -0.1283
  190POPC   C1A 2273   3.930   9.241   8.494 -0.0897 -0.1121 -0.0265
  190POPC   D2A 2274   3.951   9.312   8.037  0.1898  0.1247 -0.0343
  190POPC   C3A 2275   3.861   9.142   7.633 -0.2252  0.0051  0.0841
  190POPC   C4A 2276   3.764   9.075   7.183 -0.0370 -0.0207  0.2363
  190POPC   C1B 2277   4.090   9.683   8.487 -0.1167 -0.2072 -0.2202
  190POPC   C2B 2278   4.303   9.634   8.076 -0.0862  0.0698  0.1678
  190POPC   C3B 2279   4.331   9.420   7.642  0.0743 -0.0502  0.3697
  190POPC   C4B 2280   4.360   8.999   7.435  0.0434  0.1073 -0.4319
  191POPC   NC3 2281   5.281  14.337   9.008 -0.1598  0.1393  0.1928
  191POPC   PO4 2282   5.215  14.198   8.631 -0.2130 -0.1221 -0.0780
  191POPC   GL1 2283   5.220  14.002   8.255  0.3359  0.0096  0.1673
  191POPC   GL2 2284   4.995  13.961   8.008 -0.0527 -0.1484 -0.4734
  191POPC   C1A 2285   5.520  14.256   7.946 -0.0132  0.3453  0.0285
  191POPC   D2A 2286   5.804  14.352   7.585 -0.1224 -0.2613  0.0249
  191POPC   C3A 2287   5.548  14.147   7.273 -0.0372 -0.0365 -0.2981
  191POPC   C4A 2288   5.539  14.184   6.815  0.0301 -0.2878 -0.0829
  191POPC   C1B 2289   4.941  13.994   7.534 -0.2420 -0.1145 -0.0646
  191POPC   C2B 2290   4.766  14.155   7.117 -0.0119 -0.2950  0.0077
  191POPC   C3B 2291   4.746  14.005   6.672  0.2101 -0.4136  0.1350
  191POPC   C4B 2292   4.767  13.948   6.199  0.1186 -0.2064 -0.0186
  192POPC   NC3 2293   6.343   8.790  11.808  0.1672  0.0965  0.0428
  192POPC   PO4 2294   6.001   8.634  11.626 -0.1064  0.0885 -0.1694
  192POPC   GL1 2295   6.287   8.312  11.501  0.1586  0.1584 -0.0477
  192POPC   GL2 2296   6.146   8.135  11.655  0.1349  0.1803 -0.1563
  192POPC   C1A 2297   6.693   8.100  11.587  0.2290 -0.0139 -0.0877
  192POPC   D2A 2298   7.036   8.013  11.883  0.1635 -0.0760  0.0016
  192POPC   C3A 2299   7.186   7.724  12.182  0.1597  0.0809 -0.0463
  192POPC   C4A 2300   7.028   7.429  12.527  0.0808  0.0852  0.1784
  192POPC   C1B 2301   6.365   7.752  11.791  0.0110  0.3480  0.1612
  192POPC   C2B 2302   6.725   7.586  11.572  0.1727  0.0965  0.1507
  192POPC   C3B 2303   7.036   7.412  11.294 -0.2392 -0.0092  0.0703
  192POPC   C4B 2304   7.159   7.062  10.963  0.1728 -0.1693 -0.3146
  193POPC   NC3 2305  13.479   3.367  11.962  0.1401 -0.1645 -0.1845
  193POPC   PO4 2306  13.646   3.236  12.330 -0.0268 -0.1857 -0.3772
  193POPC   GL1 2307  13.352   3.497  12.417 -0.0075  0.2475 -0.0307
  193POPC   GL2 2308  13.347   3.780  12.436  0.1130  0.0727  0.0450
  193POPC   C1A 2309  12.905   3.408  12.228 -0.1285 -0.3579 -0.3978
  193POPC   D2A 2310  12.470   3.478  12.205 -0.1034  0.1138 -0.0602
  193POPC   C3A 2311  12.219   3.730  12.535 -0.0318  0.0551 -0.0528
  193POPC   C4A 2312  11.742   3.854  12.695  0.0483  0.1742 -0.3639
  193POPC   C1B 2313  13.290   3.806  12.035 -0.0222  0.1506 -0.3394
  193POPC   C2B 2314  13.007   3.788  11.692  0.1863 -0.0453  0.0146
  193POPC   C3B 2315  12.719   3.712  11.281  0.2317  0.1880 -0.0302
  193POPC   C4B 2316  12.368   3.667  11.060  0.2150  0.1759 -0.0069
  194POPC   NC3 2317  13.836   4.441  12.555 -0.1281 -0.1645  0.0217
  194POPC   PO4 2318  13.820   4.162  12.295  0.0934 -0.4308 -0.2396
  194POPC   GL1 2319  13.573   4.453  12.178 -0.2574  0.0095  0.2799
  194POPC   GL2 2320  13.692   4.572  11.897 -0.2037 -0.1915 -0.2370
  194POPC   C1A 2321  13.149   4.417  12.306 -0.2741  0.0757  0.0353
  194POPC   D2A 2322  12.766   4.580  12.201 -0.1627  0.1448 -0.0307
  194POPC   C3A 2323  12.481   4.883  12.271 -0.0279  0.4483 -0.2114
  194POPC   C4A 2324  12.110   5.130  12.173 -0.0503  0.3766  0.2357
  194POPC   C1B 2325  13.234   4.753  11.935  0.0332  0.1054 -0.0999
  194POPC   C2B 2326  12.864   5.009  11.907 -0.1497  0.2127  0.1622
  194POPC   C3B 2327  12.508   5.336  11.996 -0.0377 -0.0057  0.3969
  194POPC   C4B 2328  12.186   5.655  11.981 -0.0475  0.1663  0.2146
  195POPC   NC3 2329   3.449   2.928  14.917 -0.0428  0.2203 -0.1724
  195POPC   PO4 2330   3.761   3.094  14.773  0.1669  0.1028  0.2768
  195POPC   GL1 2331   3.738   3.326  15.078  0.1758 -0.1651  0.3944
  195POPC   GL2 2332   3.508   3.318  15.279  0.0948 -0.0762  0.0711
  195POPC   C1A 2333   4.009   3.293  15.435 -0.0256  0.5658  0.3877
  195POPC   D2A 2334   3.970   3.403  15.862 -0.1245  0.3537  0.0620
  195POPC   C3A 2335   4.228   3.716  16.094 -0.1957 -0.0908  0.1995
  195POPC   C4A 2336   4.407   3.827  16.478 -0.2499  0.1362  0.1361
  195POPC   C1B 2337   3.552   3.423  15.737  0.1415  0.3014  0.1326
  195POPC   C2B 2338   3.627   3.604  16.174 -0.1831 -0.1868 -0.1879
  195POPC   C3B 2339   3.870   3.748  16.544 -0.2017 -0.1707 -0.1277
  195POPC   C4B 2340   4.158   3.823  16.923 -0.0118 -0.1701 -0.0629
  196POPC   NC3 2341  14.952   1.170   8.825  0.2943 -0.1303 -0.1653
  196POPC   PO4 2342  14.647   1.256   9.101 -0.3178 -0.0247 -0.0498
  196POPC   GL1 2343  14.376   1.173   8.804  0.1396 -0.1550 -0.1853
  196POPC   GL2 2344  14.476   1.061   8.590 -0.2783 -0.2289 -0.1427
  196POPC   C1A 2345  13.967   1.074   8.525 -0.0072  0.0890 -0.2246
  196POPC   D2A 2346  13.563   1.107   8.294  0.0857  0.1403  0.0777
  196POPC   C3A 2347  13.460   0.889   7.900 -0.0708 -0.0030  0.0203
  196POPC   C4A 2348  13.287   1.091   7.503 -0.2078 -0.4341  0.2955
  196POPC   C1B 2349  14.336   1.342   8.237  0.1369 -0.0371  0.1992
  196POPC   C2B 2350  14.093   1.650   7.935  0.0783  0.1869 -0.0477
  196POPC   C3B 2351  13.726   1.744   7.690 -0.1613  0.1205  0.0268
  196POPC   C4B 2352  13.327   1.944   7.797 -0.0139 -0.0456 -0.3371
  197POPC   NC3 2353   3.984   6.987   9.767 -0.1554 -0.3007  0.0932
  197POPC   PO4 2354   4.356   6.944   9.912  0.2639 -0.1060  0.4384
  197POPC   GL1 2355   4.338   6.875   9.479  0.0290  0.4187  0.1777
  197POPC   GL2 2356   4.300   7.190   9.390 -0.1867 -0.0572  0.2864
  197POPC   C1A 2357   4.693   6.860   9.138 -0.1587  0.3003  0.1791
  197POPC   D2A 2358   5.137   6.843   9.318  0.0486 -0.2299 -0.0035
  197POPC   C3A 2359   5.545   7.009   9.155 -0.0077 -0.5938 -0.2829
  197POPC   C4A 2360   5.999   7.023   9.095  0.1213  0.2856 -0.0934
  197POPC   C1B 2361   4.536   7.297   9.027  0.2079 -0.0157 -0.0992
  197POPC   C2B 2362   4.727   7.215   8.629 -0.0351 -0.4073  0.2826
  197POPC   C3B 2363   5.073   7.225   8.358 -0.0835 -0.3041  0.1763
  197POPC   C4B 2364   5.411   7.122   8.017  0.1211  0.1738 -0.2145
  198POPC   NC3 2365  13.426   2.569  12.043 -0.3216 -0.0825  0.1414
  198POPC   PO4 2366  13.080   2.593  11.830 -0.0162 -0.2953 -0.0061
  198POPC   GL1 2367  12.825   2.942  11.999 -0.1085  0.1073 -0.0837
  198POPC   GL2 2368  12.715   2.711  12.190 -0.3778 -0.2921  0.1100
  198POPC   C1A 2369  12.390   3.091  11.952  0.0103  0.2351  0.3401
  198POPC   D2A 2370  12.037   3.398  11.752  0.1833 -0.1850  0.1072
  198POPC   C3A 2371  12.087   3.835  11.844  0.0848  0.3608 -0.2034
  198POPC   C4A 2372  11.824   4.106  12.118 -0.2887  0.0565  0.4176
  198POPC   C1B 2373  12.247   2.664  12.123  0.0736 -0.1978 -0.2182
  198POPC   C2B 2374  11.892   2.809  12.278  0.1699  0.0154 -0.0637
  198POPC   C3B 2375  11.557   3.114  12.365 -0.0936 -0.1759  0.1674
  198POPC   C4B 2376  11.310   3.355  12.070 -0.0844 -0.2386 -0.0857
  199POPC   NC3 2377  15.553   4.263   9.974 -0.0866  0.4020  0.0883
  199POPC   PO4 2378  15.747   4.366   9.645  0.0233 -0.2448 -0.0838
  199POPC   GL1 2379  15.463   4.650   9.430 -0.0323  0.0044 -0.3209
  199POPC   GL2 2380  15.609   4.516   9.224 -0.0219 -0.0396 -0.2275
  199POPC   C1A 2381  15.036   4.896   9.264  0.0446  0.0302 -0.1441
  199POPC   D2A 2382  14.950   5.256   9.019  0.0040 -0.0207  0.3635
  199POPC   C3A 2383  15.326   5.478   9.036  0.2703 -0.0094  0.1185
  199POPC   C4A 2384  15.676   5.712   8.696 -0.1201 -0.1040 -0.0047
  199POPC   C1B 2385  15.419   4.712   8.885 -0.1126 -0.0275  0.2714
  199POPC   C2B 2386  15.297   5.079   8.653  0.1010 -0.0220 -0.0504
  199POPC   C3B 2387  14.890   5.276   8.536 -0.2225  0.2962 -0.1910
  199POPC   C4B 2388  14.601   5.550   8.696 -0.2282 -0.0684 -0.1769
  200POPC   NC3 2389   3.126  15.013   8.511 -0.3123 -0.0286 -0.0136
  200POPC   PO4 2390   3.107  15.428   8.442 -0.0027  0.0803  0.0554
  200POPC   GL1 2391   3.066  15.317   8.112 -0.3554 -0.1545  0.1805
  200POPC   GL2 2392   3.075  15.645   7.974  0.0728  0.0894 -0.2319
  200POPC   C1A 2393   3.115  14.847   7.959 -0.0089  0.0560  0.1772
  200POPC   D2A 2394   3.446  14.640   7.748 -0.1834  0.2473  0.2822
  200POPC   C3A 2395   3.554  14.542   7.320  0.1125  0.1862 -0.0619
  200POPC   C4A 2396   3.251  14.483   6.950 -0.0028 -0.1208 -0.1757
  200POPC   C1B 2397   2.829  15.257   7.763 -0.0477 -0.4998  0.2069
  200POPC   C2B 2398   2.759  15.208   7.336  0.1122  0.0980  0.0378
  200POPC   C3B 2399   2.800  15.214   6.817  0.2112 -0.0186 -0.0716
  200POPC   C4B 2400   2.798  15.270   6.366  0.2593 -0.2706  0.2064
  201POPC   NC3 2401   1.606   2.591   8.928 -0.1671 -0.0217  0.0079
  201POPC   PO4 2402   1.215   2.531   8.972 -0.1052 -0.0167  0.0638
  201POPC   GL1 2403   1.240   2.714   8.649 -0.1434 -0.0483  0.0788
  201POPC   GL2 2404   1.393   2.560   8.439  0.1810  0.2289 -0.0382
  201POPC   C1A 2405   1.282   3.023   8.277  0.1181 -0.1832 -0.1853
  201POPC   D2A 2406   1.101   3.153   7.841  0.3900 -0.2531  0.0152
  201POPC   C3A 2407   0.806   2.983   7.555 -0.2107  0.2115 -0.2118
  201POPC   C4A 2408   0.854   3.093   7.110 -0.0194 -0.0317 -0.0717
  201POPC   C1B 2409   0.955   2.634   8.334 -0.0864  0.1084 -0.0496
  201POPC   C2B 2410   0.658   2.631   7.923 -0.2173  0.1404  0.1830
  201POPC   C3B 2411   0.701   2.487   7.503 -0.0435 -0.0760 -0.0514
  201POPC   C4B 2412   0.693   2.601   7.085  0.2044 -0.1587  0.2699
  202POPC   NC3 2413  13.074   0.597  10.123 -0.0817 -0.0475 -0.2192
  202POPC   PO4 2414  13.122   0.792   9.792 -0.2818  0.3214 -0.1859
  202POPC   GL1 2415  13.212   1.044   9.456  0.0670 -0.1966  0.0803
  202POPC   GL2 2416  13.132   0.996   9.120  0.0330 -0.0560  0.2540
  202POPC   C1A 2417  13.053   1.454   9.291 -0.2644 -0.0084  0.0386
  202POPC   D2A 2418  12.649   1.700   9.287  0.1395  0.1348  0.0724
  202POPC   C3A 2419  12.465   2.126   9.357 -0.0259  0.1096  0.1040
  202POPC   C4A 2420  12.520   2.453   9.678  0.0194  0.0482  0.3015
  202POPC   C1B 2421  13.068   1.121   8.709  0.1343  0.2166  0.0201
  202POPC   C2B 2422  12.871   1.442   8.430 -0.1615 -0.1250 -0.0302
  202POPC   C3B 2423  12.927   1.700   8.065 -0.1395 -0.0747 -0.1327
  202POPC   C4B 2424  12.827   1.951   7.615  0.3093  0.5141 -0.0391
  203POPC   NC3 2425   3.519   7.232   8.987 -0.0278  0.2077  0.1688
  203POPC   PO4 2426   3.237   6.988   9.193 -0.1578 -0.0602  0.0320
  203POPC   GL1 2427   3.522   6.699   8.957  0.0781  0.0696 -0.1121
  203POPC   GL2 2428   3.347   6.564   8.807  0.1146 -0.0227  0.1007
  203POPC   C1A 2429   3.667   6.761   8.491  0.1603 -0.1782 -0.0337
  203POPC   D2A 2430   3.791   6.629   8.062  0.2990 -0.0499  0.2966
  203POPC   C3A 2431   3.863   6.144   8.013 -0.0468 -0.0803  0.1652
  203POPC   C4A 2432   3.901   5.682   7.956  0.0646 -0.2431  0.2643
  203POPC   C1B 2433   3.064   6.621   8.465 -0.0754 -0.2620  0.0230
  203POPC   C2B 2434   2.874   6.603   8.047  0.0632 -0.0660  0.1723
  203POPC   C3B 2435   2.993   6.245   7.775  0.1251 -0.1022  0.0462
  203POPC   C4B 2436   3.125   5.918   7.461 -0.0292  0.1052  0.0183
  204POPC   NC3 2437   8.859  12.134  16.436  0.1476 -0.1788 -0.2189
  204POPC   PO4 2438   8.743  12.497  16.500 -0.0989  0.1056 -0.4032
  204POPC   GL1 2439   8.958  12.502  16.798 -0.2099  0.2464 -0.4199
  204POPC   GL2 2440   8.986  12.750  16.915  0.2290  0.0115 -0.1551
  204POPC   C1A 2441   8.845  12.454  17.271 -0.1563  0.2887 -0.1279
  204POPC   D2A 2442   8.701  12.498  17.707  0.1659 -0.1073  0.2641
  204POPC   C3A 2443   9.066  12.524  17.936  0.1315  0.0770  0.0800
  204POPC   C4A 2444   9.436  12.293  18.109  0.0205  0.4052  0.1731
  204POPC   C1B 2445   8.865  13.081  17.167  0.0541  0.0542  0.3748
  204POPC   C2B 2446   8.857  13.523  17.324  0.0989  0.1346 -0.0277
  204POPC   C3B 2447   8.985  13.575  17.791 -0.0091  0.2569 -0.1935
  204POPC   C4B 2448   8.753  13.622  18.159  0.0638 -0.1291  0.2847
  205POPC   NC3 2449   0.930   1.250   8.595  0.1290 -0.0354 -0.0937
  205POPC   PO4 2450   0.614   1.072   8.453 -0.0029  0.2389  0.1704
  205POPC   GL1 2451   0.632   0.985   8.116 -0.0842  0.1495 -0.2605
  205POPC   GL2 2452   0.909   1.021   8.075  0.2337 -0.2432 -0.4394
  205POPC   C1A 2453   0.443   0.865   7.723  0.0108  0.2166  0.0222
  205POPC   D2A 2454   0.030   0.950   7.605 -0.0876 -0.3041  0.1799
  205POPC   C3A 2455  -0.145   0.897   7.153 -0.0194  0.2735  0.1403
  205POPC   C4A 2456   0.152   1.000   6.808  0.1585 -0.2101 -0.1412
  205POPC   C1B 2457   0.949   1.099   7.649 -0.3531  0.0339 -0.1857
  205POPC   C2B 2458   0.605   1.267   7.426 -0.2212  0.0997  0.2519
  205POPC   C3B 2459   0.361   1.343   7.104  0.0710 -0.1360 -0.0098
  205POPC   C4B 2460   0.360   1.663   6.745  0.0204  0.2673 -0.0547
  206POPC   NC3 2461   1.185   5.002   9.260 -0.0755  0.2202 -0.1053
  206POPC   PO4 2462   1.264   4.611   9.279 -0.0365  0.2240  0.2347
  206POPC   GL1 2463   1.133   4.735   8.838 -0.0731  0.0617 -0.4329
  206POPC   GL2 2464   1.230   4.909   8.694  0.1648  0.2396  0.1551
  206POPC   C1A 2465   0.781   4.493   8.592 -0.1616  0.1859  0.1398
  206POPC   D2A 2466   0.539   4.569   8.249  0.1502  0.0720  0.1941
  206POPC   C3A 2467   0.652   4.625   7.800 -0.1692 -0.0787 -0.0177
  206POPC   C4A 2468   0.608   4.568   7.395  0.0106  0.1443  0.3222
  206POPC   C1B 2469   1.300   5.288   8.410  0.0910  0.1706 -0.2436
  206POPC   C2B 2470   1.327   5.414   7.946 -0.1265 -0.0308 -0.3249
  206POPC   C3B 2471   1.317   5.363   7.495 -0.2394 -0.2403  0.1708
  206POPC   C4B 2472   1.519   5.438   7.151 -0.3727  0.0434  0.2391
  207POPC   NC3 2473   9.444   0.377  12.611  0.1916  0.3057  0.0549
  207POPC   PO4 2474   9.551   0.743  12.644 -0.1127  0.0504  0.0491
  207POPC   GL1 2475   9.568   1.093  12.710 -0.1348  0.0887 -0.1534
  207POPC   GL2 2476   9.835   1.236  12.757  0.1458 -0.0759  0.1173
  207POPC   C1A 2477   9.360   1.490  12.844  0.0307 -0.3458 -0.2209
  207POPC   D2A 2478   9.394   1.938  13.020 -0.1517 -0.1812 -0.2249
  207POPC   C3A 2479   9.194   2.327  12.855  0.0367 -0.0195  0.3467
  207POPC   C4A 2480   9.222   2.693  12.576  0.0226 -0.0114 -0.0763
  207POPC   C1B 2481   9.781   1.554  13.122 -0.0758 -0.0850 -0.1359
  207POPC   C2B 2482  10.010   1.878  13.246 -0.1544  0.0877 -0.0522
  207POPC   C3B 2483  10.159   2.216  13.538 -0.0453 -0.0451 -0.2670
  207POPC   C4B 2484  10.473   2.456  13.569 -0.2134 -0.0590 -0.1564
  208POPC   NC3 2485  15.340   9.613   9.687  0.0623 -0.0785  0.1704
  208POPC   PO4 2486  15.637   9.887   9.766 -0.1162  0.3208 -0.1877
  208POPC   GL1 2487  15.568   9.969   9.431  0.0530  0.1008  0.3331
  208POPC   GL2 2488  15.648   9.781   9.231 -0.1340 -0.1255 -0.0348
  208POPC   C1A 2489  15.604  10.229   9.045  0.1787  0.1391 -0.0354
  208POPC   D2A 2490  15.714  10.431   8.642  0.3264  0.0736  0.1146
  208POPC   C3A 2491  15.637  10.164   8.286  0.1109  0.0651  0.1408
  208POPC   C4A 2492  15.718  10.454   7.883  0.1452  0.4545  0.0780
  208POPC   C1B 2493  15.811   9.845   8.785  0.0734  0.0063 -0.0094
  208POPC   C2B 2494  15.908   9.701   8.342 -0.2672  0.3383 -0.1337
  208POPC   C3B 2495  15.740   9.535   7.950 -0.1128  0.3691 -0.0771
  208POPC   C4B 2496  15.632   9.449   7.494  0.4282 -0.2241  0.3707
  209POPC   NC3 2497  14.540   2.565   9.370 -0.1908  0.3083  0.3133
  209POPC   PO4 2498  14.496   2.905   9.500 -0.3066 -0.1184  0.1215
  209POPC   GL1 2499  14.467   2.930   9.079  0.1229 -0.0876  0.2625
  209POPC   GL2 2500  14.367   3.239   9.129 -0.2678  0.0895 -0.1142
  209POPC   C1A 2501  14.238   2.612   8.840  0.1801  0.1235  0.3849
  209POPC   D2A 2502  14.109   2.350   8.482 -0.2700 -0.1767  0.1381
  209POPC   C3A 2503  14.236   2.569   8.095 -0.0662 -0.1720 -0.1014
  209POPC   C4A 2504  14.498   2.673   7.768 -0.2179  0.1628  0.0045
  209POPC   C1B 2505  14.127   3.117   8.739 -0.0891  0.0195 -0.1413
  209POPC   C2B 2506  14.131   2.983   8.311 -0.0364 -0.2733 -0.1042
  209POPC   C3B 2507  14.238   3.038   7.917 -0.0685 -0.2121  0.0736
  209POPC   C4B 2508  14.056   2.995   7.514  0.0001  0.0361  0.0929
  210POPC   NC3 2509   2.773  13.038  16.774 -0.0797 -0.0738  0.2022
  210POPC   PO4 2510   2.585  13.357  16.856  0.0066 -0.1922  0.0375
  210POPC   GL1 2511   2.805  13.274  17.215  0.3038 -0.1389  0.1506
  210POPC   GL2 2512   2.722  12.953  17.270  0.1383  0.0406  0.1855
  210POPC   C1A 2513   2.867  13.250  17.701 -0.0435  0.1020  0.0608
  210POPC   D2A 2514   2.697  13.111  18.133 -0.0712  0.0198 -0.0853
  210POPC   C3A 2515   2.692  13.348  18.474  0.0784 -0.1352 -0.0039
  210POPC   C4A 2516   3.018  13.381  18.848 -0.2090 -0.1099 -0.0570
  210POPC   C1B 2517   2.684  12.750  17.709  0.0346 -0.1458 -0.1035
  210POPC   C2B 2518   2.848  12.523  18.103 -0.0154  0.0297  0.1365
  210POPC   C3B 2519   2.897  12.183  18.500  0.0160 -0.0776 -0.1621
  210POPC   C4B 2520   2.955  11.729  18.678 -0.2282  0.0292  0.0273
  211POPC   NC3 2521   9.410   1.015  12.287 -0.2226 -0.0661  0.5038
  211POPC   PO4 2522   9.592   0.937  11.928  0.0451 -0.0560 -0.1064
  211POPC   GL1 2523   9.745   1.226  11.977  0.2669  0.3488  0.0335
  211POPC   GL2 2524   9.745   1.406  12.204 -0.1309  0.0830 -0.2009
  211POPC   C1A 2525  10.144   1.472  11.876  0.1798 -0.0836  0.0499
  211POPC   D2A 2526  10.553   1.504  11.670  0.1107  0.3058  0.1613
  211POPC   C3A 2527  10.523   1.861  11.470  0.0480  0.1840  0.1964
  211POPC   C4A 2528  10.218   2.082  11.195 -0.1520  0.1263 -0.0660
  211POPC   C1B 2529   9.783   1.693  12.629  0.1784  0.0162  0.3318
  211POPC   C2B 2530   9.857   2.092  12.830 -0.1667  0.2292 -0.0646
  211POPC   C3B 2531   9.782   2.308  13.214  0.0962  0.1384 -0.2893
  211POPC   C4B 2532   9.793   2.592  13.571 -0.1560  0.1387 -0.1138
  212POPC   NC3 2533   1.113  13.189   8.189 -0.4473 -0.2531 -0.1918
  212POPC   PO4 2534   1.117  13.461   7.908 -0.0811 -0.1252 -0.1423
  212POPC   GL1 2535   1.044  13.324   7.622 -0.2031 -0.0592  0.0842
  212POPC   GL2 2536   1.116  13.021   7.655  0.0697  0.0574 -0.0841
  212POPC   C1A 2537   0.678  13.294   7.296 -0.1796 -0.2461 -0.2201
  212POPC   D2A 2538   0.388  13.406   6.980  0.0866 -0.2008  0.2764
  212POPC   C3A 2539   0.427  13.403   6.506 -0.1618 -0.1055  0.1938
  212POPC   C4A 2540   0.205  13.535   6.143  0.1648  0.0042 -0.1996
  212POPC   C1B 2541   0.821  12.843   7.386  0.3224 -0.2121  0.1985
  212POPC   C2B 2542   0.683  12.714   6.937 -0.0618 -0.1763  0.0482
  212POPC   C3B 2543   0.457  12.898   6.540  0.0894 -0.0518  0.0479
  212POPC   C4B 2544   0.137  13.038   6.241 -0.1525  0.0591 -0.0535
  213POPC   NC3 2545   4.958   2.968  12.701  0.0054 -0.0497 -0.1305
  213POPC   PO4 2546   5.058   3.328  12.820 -0.1188  0.3313  0.3311
  213POPC   GL1 2547   5.482   3.494  12.867 -0.3031  0.3198 -0.0685
  213POPC   GL2 2548   5.560   3.400  13.131 -0.2659 -0.1694  0.0261
  213POPC   C1A 2549   5.792   3.639  12.571  0.0037 -0.2697 -0.1379
  213POPC   D2A 2550   6.243   3.831  12.560 -0.0131 -0.2367  0.0819
  213POPC   C3A 2551   6.624   3.949  12.836 -0.3994  0.0650  0.1125
  213POPC   C4A 2552   7.056   4.045  12.914  0.0414  0.1564  0.3081
  213POPC   C1B 2553   5.932   3.653  13.037 -0.4038  0.1679  0.1691
  213POPC   C2B 2554   6.280   3.880  13.253  0.1454  0.0583  0.3308
  213POPC   C3B 2555   6.736   3.935  13.343  0.2483  0.1585  0.1265
  213POPC   C4B 2556   6.919   4.384  13.551  0.1005  0.0005  0.0854
  214POPC   NC3 2557   0.687   0.579   8.347 -0.2348 -0.0812 -0.3009
  214POPC   PO4 2558   0.509   0.283   8.420  0.2143  0.2071  0.1781
  214POPC   GL1 2559   0.382   0.299   8.007 -0.4010  0.2396  0.3573
  214POPC   GL2 2560   0.626   0.422   7.895  0.2518  0.4240 -0.0078
  214POPC   C1A 2561   0.271   0.011   7.663 -0.0431  0.2133  0.0599
  214POPC   D2A 2562  -0.011  -0.042   7.339  0.1124 -0.1096 -0.1674
  214POPC   C3A 2563   0.021  -0.136   6.921  0.2940 -0.2302  0.0035
  214POPC   C4A 2564   0.120  -0.061   6.480 -0.0826  0.0634  0.3250
  214POPC   C1B 2565   0.591   0.385   7.429 -0.0348 -0.1208  0.0236
  214POPC   C2B 2566   0.277   0.256   7.079 -0.1036  0.4557 -0.1185
  214POPC   C3B 2567   0.114   0.425   6.662  0.0226 -0.0695 -0.0135
  214POPC   C4B 2568   0.333   0.734   6.409 -0.1018  0.0574  0.0234
  215POPC   NC3 2569  13.537   2.874  12.636  0.0670  0.0014 -0.0330
  215POPC   PO4 2570  13.200   2.678  12.527  0.1029 -0.0948 -0.0416
  215POPC   GL1 2571  12.845   2.917  12.549  0.1637 -0.1565 -0.2599
  215POPC   GL2 2572  12.950   3.131  12.793  0.0743 -0.1344  0.2243
  215POPC   C1A 2573  12.521   2.860  12.908 -0.0381 -0.0028  0.0434
  215POPC   D2A 2574  12.337   2.947  13.256 -0.0960 -0.1664 -0.0373
  215POPC   C3A 2575  11.874   3.029  13.322 -0.1361  0.0734  0.0598
  215POPC   C4A 2576  11.385   2.876  13.446 -0.1263  0.0289  0.0594
  215POPC   C1B 2577  12.526   3.383  12.778  0.3748  0.3129  0.0810
  215POPC   C2B 2578  12.165   3.526  13.047  0.1514 -0.0420 -0.1682
  215POPC   C3B 2579  11.994   3.960  13.178 -0.1411  0.1724 -0.2338
  215POPC   C4B 2580  11.626   4.237  13.082  0.2308  0.1486  0.0307
  216POPC   NC3 2581   6.270  10.091  10.195 -0.0525 -0.3252 -0.0765
  216POPC   PO4 2582   6.249  10.274   9.847  0.0322  0.0376  0.2424
  216POPC   GL1 2583   6.441   9.995   9.718 -0.1339  0.0688 -0.1064
  216POPC   GL2 2584   6.817  10.038   9.567  0.0163 -0.2275 -0.2624
  216POPC   C1A 2585   6.511   9.768   9.323 -0.0171  0.0988 -0.1973
  216POPC   D2A 2586   6.500   9.607   8.906  0.0035 -0.0719  0.1140
  216POPC   C3A 2587   6.847   9.562   8.613 -0.1534 -0.0196 -0.1418
  216POPC   C4A 2588   7.221   9.711   8.341 -0.2470 -0.1178  0.0311
  216POPC   C1B 2589   6.987   9.590   9.536 -0.2668  0.0679 -0.1043
  216POPC   C2B 2590   7.297   9.259   9.370 -0.0161 -0.2245  0.1066
  216POPC   C3B 2591   7.436   8.993   9.051  0.0342 -0.1384 -0.3360
  216POPC   C4B 2592   7.485   8.657   8.652 -0.4041 -0.0658  0.0086
  217POPC   NC3 2593   0.371   5.941   9.220 -0.0935 -0.3185 -0.0749
  217POPC   PO4 2594   0.548   5.652   9.399  0.0069  0.0385 -0.0919
  217POPC   GL1 2595   0.724   5.695   9.030  0.0561 -0.1884  0.2396
  217POPC   GL2 2596   0.863   5.894   9.071 -0.0276  0.0060  0.3202
  217POPC   C1A 2597   0.620   5.872   8.611  0.0602 -0.1085 -0.1313
  217POPC   D2A 2598   0.663   5.900   8.152 -0.0879  0.0334  0.1627
  217POPC   C3A 2599   0.447   6.169   7.817  0.1606 -0.1282 -0.3507
  217POPC   C4A 2600   0.374   6.457   7.447 -0.1908 -0.0546 -0.0348
  217POPC   C1B 2601   1.189   5.880   8.717  0.0410  0.1496  0.2626
  217POPC   C2B 2602   1.203   5.747   8.315 -0.0019 -0.0140 -0.1410
  217POPC   C3B 2603   1.110   5.877   7.894 -0.1252 -0.1201 -0.0078
  217POPC   C4B 2604   0.892   6.138   7.584 -0.1945  0.2512  0.1474
  218POPC   NC3 2605   5.493   2.130  12.014  0.1749 -0.1651  0.0104
  218POPC   PO4 2606   5.284   2.320  11.718 -0.5923  0.1672 -0.1359
  218POPC   GL1 2607   5.575   2.545  11.862 -0.0380  0.3664  0.3702
  218POPC   GL2 2608   5.439   2.795  11.790 -0.2892 -0.0307  0.3376
  218POPC   C1A 2609   5.715   2.882  12.166 -0.0768 -0.0860 -0.0019
  218POPC   D2A 2610   5.925   3.163  12.426 -0.1439 -0.0625 -0.0151
  218POPC   C3A 2611   6.260   3.331  12.570 -0.0078 -0.0313  0.2114
  218POPC   C4A 2612   6.442   3.516  12.958  0.0462 -0.1474  0.1480
  218POPC   C1B 2613   5.875   2.811  11.706 -0.1824 -0.2128  0.2774
  218POPC   C2B 2614   6.182   2.926  12.008 -0.3938  0.1686 -0.0670
  218POPC   C3B 2615   6.519   3.241  12.071 -0.2800  0.2571 -0.0362
  218POPC   C4B 2616   6.653   3.583  12.333  0.1927 -0.0658  0.0253
  219POPC   NC3 2617  13.568   8.629  12.278 -0.0617 -0.0360 -0.0448
  219POPC   PO4 2618  13.884   8.517  12.425  0.0556  0.1751  0.1380
  219POPC   GL1 2619  13.646   8.157  12.317  0.0316  0.0814 -0.1503
  219POPC   GL2 2620  13.537   8.134  12.624 -0.2101 -0.1686 -0.1699
  219POPC   C1A 2621  13.657   7.731  12.249 -0.0956  0.2273 -0.4496
  219POPC   D2A 2622  13.744   7.254  12.005  0.3190  0.2030 -0.2912
  219POPC   C3A 2623  13.345   6.980  11.935 -0.0379 -0.2488 -0.0504
  219POPC   C4A 2624  12.881   6.849  12.034  0.0504  0.1386  0.1599
  219POPC   C1B 2625  13.163   7.849  12.670  0.1609 -0.0595 -0.0270
  219POPC   C2B 2626  12.756   7.759  12.852 -0.2310 -0.2014 -0.1702
  219POPC   C3B 2627  12.433   7.460  12.727  0.0559 -0.1159  0.1871
  219POPC   C4B 2628  12.048   7.264  12.594 -0.0128  0.0760 -0.0198
  220POPC   NC3 2629   4.436   5.589   9.783  0.0320  0.0597  0.2746
  220POPC   PO4 2630   4.472   5.985   9.822  0.0552  0.2995  0.0276
  220POPC   GL1 2631   4.791   5.968   9.632  0.0623  0.2650  0.2351
  220POPC   GL2 2632   4.844   6.290   9.558  0.0563  0.0068  0.2381
  220POPC   C1A 2633   4.752   5.876   9.186  0.3776 -0.0763 -0.0026
  220POPC   D2A 2634   4.993   5.882   8.769  0.0651  0.1985  0.1586
  220POPC   C3A 2635   4.921   5.461   8.652 -0.1027  0.0422  0.2295
  220POPC   C4A 2636   4.537   5.195   8.518 -0.1661 -0.3438 -0.2407
  220POPC   C1B 2637   5.167   6.103   9.287  0.1224 -0.0658  0.2747
  220POPC   C2B 2638   5.575   5.946   9.125  0.0960 -0.0978  0.1637
  220POPC   C3B 2639   5.909   6.005   8.755 -0.2216  0.2008  0.0319
  220POPC   C4B 2640   6.365   5.940   8.578  0.2059 -0.1064  0.2250
  221POPC   NC3 2641  15.193   2.385   9.286  0.0288 -0.0731  0.0231
  221POPC   PO4 2642  15.247   2.023   9.414 -0.1446 -0.0077 -0.2295
  221POPC   GL1 2643  15.323   2.040   9.034  0.0590 -0.1606  0.4136
  221POPC   GL2 2644  15.022   2.083   8.923 -0.0334 -0.0711 -0.0711
  221POPC   C1A 2645  15.300   2.404   8.721  0.2016  0.1226  0.2341
  221POPC   D2A 2646  15.167   2.804   8.557 -0.2208 -0.1516 -0.1136
  221POPC   C3A 2647  15.080   3.177   8.289 -0.3451  0.2383  0.3701
  221POPC   C4A 2648  14.690   3.303   7.996 -0.1083  0.2803 -0.1487
  221POPC   C1B 2649  15.188   2.003   8.474  0.4504 -0.1433  0.0086
  221POPC   C2B 2650  15.196   2.050   8.058  0.2279  0.2461  0.0253
  221POPC   C3B 2651  15.216   1.868   7.670 -0.0530  0.1169  0.1098
  221POPC   C4B 2652  15.007   1.682   7.334  0.0269  0.2429  0.1213
  222POPC   NC3 2653   1.999   9.344   8.484 -0.0782  0.1288 -0.1370
  222POPC   PO4 2654   2.248   9.529   8.735  0.1995  0.0932  0.0819
  222POPC   GL1 2655   2.357   9.574   8.315  0.0429 -0.5177  0.1607
  222POPC   GL2 2656   2.630   9.474   8.351 -0.2782 -0.0192 -0.0163
  222POPC   C1A 2657   2.220   9.596   7.887 -0.6200  0.1323  0.3818
  222POPC   D2A 2658   2.182   9.855   7.477  0.0735  0.0165 -0.1094
  222POPC   C3A 2659   1.688   9.868   7.326  0.2019 -0.3463  0.0635
  222POPC   C4A 2660   1.547   9.929   6.852  0.3012 -0.0862  0.0997
  222POPC   C1B 2661   2.637   9.399   7.933 -0.0866  0.1360  0.0566
  222POPC   C2B 2662   2.738   9.335   7.480 -0.0384  0.0771 -0.0570
  222POPC   C3B 2663   2.575   9.657   7.175 -0.2594  0.3300  0.0441
  222POPC   C4B 2664   2.241   9.907   6.968  0.1062  0.0475  0.2356
  223POPC   NC3 2665  10.701  10.941  11.289 -0.1405 -0.2736 -0.1091
  223POPC   PO4 2666  10.803  11.020  10.906  0.0886 -0.2369  0.0373
  223POPC   GL1 2667  10.643  10.590  10.996  0.0065  0.2350 -0.1361
  223POPC   GL2 2668  10.394  10.514  10.824  0.0877  0.1492  0.0953
  223POPC   C1A 2669  10.782  10.159  10.820 -0.0724  0.2776 -0.0658
  223POPC   D2A 2670  10.595   9.759  10.876 -0.0106  0.0470 -0.0381
  223POPC   C3A 2671  10.633   9.296  10.794 -0.3066  0.0347 -0.0411
  223POPC   C4A 2672  10.427   8.931  10.665  0.1125  0.1152 -0.1247
  223POPC   C1B 2673  10.349  10.156  10.519  0.3660  0.2810  0.0564
  223POPC   C2B 2674  10.365   9.719  10.480  0.2586  0.0637  0.0162
  223POPC   C3B 2675  10.169   9.281  10.364 -0.0155 -0.0585  0.2070
  223POPC   C4B 2676  10.007   8.830  10.424  0.0607 -0.1250 -0.0960
  224POPC   NC3 2677   6.732  11.970   8.581  0.1710 -0.0364 -0.1027
  224POPC   PO4 2678   6.597  12.308   8.704  0.4150  0.0024  0.2311
  224POPC   GL1 2679   6.775  12.411   8.376  0.0722 -0.0962 -0.2631
  224POPC   GL2 2680   6.815  12.706   8.299  0.1423  0.0869  0.1902
  224POPC   C1A 2681   6.682  12.136   7.969 -0.2931 -0.0335 -0.3822
  224POPC   D2A 2682   6.706  11.915   7.585  0.0267  0.1027 -0.1889
  224POPC   C3A 2683   6.502  12.101   7.205 -0.0053  0.1000  0.0222
  224POPC   C4A 2684   6.430  12.370   6.871  0.3009 -0.1707  0.0918
  224POPC   C1B 2685   6.876  12.546   7.893  0.0772  0.0537  0.2790
  224POPC   C2B 2686   6.955  12.355   7.507 -0.0948 -0.0451  0.1426
  224POPC   C3B 2687   7.210  12.062   7.412  0.3152 -0.1783  0.2574
  224POPC   C4B 2688   7.237  11.914   6.971  0.0223 -0.1197  0.1009
  225POPC   NC3 2689   3.098   2.429   9.095  0.1523 -0.1422  0.1035
  225POPC   PO4 2690   2.761   2.249   9.221 -0.3522  0.0554 -0.2501
  225POPC   GL1 2691   2.656   2.427   8.881 -0.1217 -0.1697 -0.4071
  225POPC   GL2 2692   2.519   2.669   8.978 -0.0992  0.0990  0.1628
  225POPC   C1A 2693   2.438   2.304   8.499 -0.1873 -0.1987  0.0397
  225POPC   D2A 2694   2.443   2.437   8.038  0.2291  0.0305  0.2944
  225POPC   C3A 2695   2.833   2.583   7.840  0.0706 -0.1439 -0.1721
  225POPC   C4A 2696   3.297   2.670   7.667  0.0105  0.0354 -0.4704
  225POPC   C1B 2697   2.753   2.734   8.525  0.2901 -0.0163 -0.4045
  225POPC   C2B 2698   2.986   2.982   8.136  0.0521 -0.0566 -0.1380
  225POPC   C3B 2699   2.758   3.091   7.757 -0.1818 -0.0290 -0.2346
  225POPC   C4B 2700   2.943   3.118   7.318  0.3745  0.1830 -0.0357
  226POPC   NC3 2701   7.391  15.379   8.778 -0.1394  0.3079 -0.1289
  226POPC   PO4 2702   7.003  15.387   8.646 -0.0879  0.0302  0.1124
  226POPC   GL1 2703   7.300  15.584   8.357 -0.1328  0.2268  0.0190
  226POPC   GL2 2704   7.137  15.848   8.323 -0.1098 -0.4633 -0.3332
  226POPC   C1A 2705   7.718  15.871   8.280  0.0683  0.5065  0.3043
  226POPC   D2A 2706   8.146  15.752   8.206 -0.0646  0.2587 -0.1155
  226POPC   C3A 2707   8.253  15.754   7.765  0.1288 -0.2875  0.0056
  226POPC   C4A 2708   8.156  16.007   7.391  0.0855  0.0167  0.0584
  226POPC   C1B 2709   6.993  16.058   7.930 -0.0654  0.1947  0.0066
  226POPC   C2B 2710   7.155  16.438   7.623 -0.0543 -0.0857 -0.1772
  226POPC   C3B 2711   7.075  16.549   7.124  0.0083 -0.2708 -0.1224
  226POPC   C4B 2712   6.951  16.832   6.815 -0.1189  0.1191 -0.0208
  227POPC   NC3 2713   3.641   5.822   9.585 -0.2767  0.0823  0.1644
  227POPC   PO4 2714   3.419   5.501   9.507  0.0977  0.0507 -0.3291
  227POPC   GL1 2715   3.575   5.359   9.186 -0.2771  0.2834 -0.0010
  227POPC   GL2 2716   3.689   5.090   9.087  0.1998  0.1673 -0.1572
  227POPC   C1A 2717   3.588   5.464   8.732 -0.1560 -0.2220 -0.3139
  227POPC   D2A 2718   3.469   5.316   8.317  0.0545  0.1647 -0.3270
  227POPC   C3A 2719   3.641   5.247   7.902 -0.1006  0.4446  0.0355
  227POPC   C4A 2720   3.994   5.280   7.590  0.1112  0.0981  0.0129
  227POPC   C1B 2721   3.313   5.029   8.868 -0.0976 -0.1601  0.1366
  227POPC   C2B 2722   3.293   4.853   8.485  0.0792  0.0863 -0.1264
  227POPC   C3B 2723   3.255   4.910   8.018 -0.2837  0.1268 -0.0693
  227POPC   C4B 2724   3.012   4.861   7.592 -0.1639 -0.0514  0.1073
  228POPC   NC3 2725   9.223  16.292   9.574 -0.3464 -0.1198 -0.1240
  228POPC   PO4 2726   9.260  15.987   9.793  0.0682 -0.1099 -0.2093
  228POPC   GL1 2727   9.461  15.912   9.398 -0.0020 -0.3688 -0.1726
  228POPC   GL2 2728   9.238  15.960   9.249 -0.0693  0.0143 -0.1287
  228POPC   C1A 2729   9.657  16.172   9.050 -0.1765  0.0693 -0.2186
  228POPC   D2A 2730  10.041  16.442   8.908  0.0575  0.1829  0.1295
  228POPC   C3A 2731  10.002  16.854   8.707  0.0460  0.3336  0.0899
  228POPC   C4A 2732   9.970  17.188   8.417  0.1797  0.0184 -0.0138
  228POPC   C1B 2733   9.189  16.258   8.861 -0.0219  0.0508 -0.1397
  228POPC   C2B 2734   9.144  16.508   8.511  0.2338 -0.1348  0.1044
  228POPC   C3B 2735   9.368  16.712   8.165  0.0023 -0.0391 -0.1395
  228POPC   C4B 2736   9.620  16.737   7.769  0.1393  0.1765 -0.2791
  229POPC   NC3 2737  10.045  32.765   8.948  0.0120 -0.1210 -0.0964
  229POPC   PO4 2738  10.335  32.478   8.982 -0.0687 -0.0510 -0.2179
  229POPC   GL1 2739  10.541  32.494   8.695 -0.2980  0.0430 -0.2431
  229POPC   GL2 2740  10.771  32.707   8.724 -0.3903  0.0974  0.0231
  229POPC   C1A 2741  10.380  32.618   8.284  0.0219 -0.0558 -0.1095
  229POPC   D2A 2742  10.637  32.759   7.896  0.0354  0.3342 -0.1672
  229POPC   C3A 2743  10.588  32.505   7.521  0.1157 -0.0001  0.2068
  229POPC   C4A 2744  10.664  32.514   7.071 -0.0378  0.2118  0.1958
  229POPC   C1B 2745  10.941  32.625   8.317  0.1149  0.1823  0.0379
  229POPC   C2B 2746  11.099  32.683   7.904  0.1140  0.0871  0.0434
  229POPC   C3B 2747  11.043  32.814   7.398  0.1158  0.1463 -0.1744
  229POPC   C4B 2748  10.750  33.170   7.380 -0.0756 -0.0412 -0.0554
  230POPC   NC3 2749   9.796  14.913   9.395  0.1789 -0.2715 -0.1193
  230POPC   PO4 2750   9.524  15.096   9.215 -0.0042  0.1991  0.0577
  230POPC   GL1 2751   9.513  15.233   8.812  0.1766 -0.1864 -0.3954
  230POPC   GL2 2752   9.272  15.103   8.775 -0.1734 -0.0229 -0.1649
  230POPC   C1A 2753   9.717  15.505   8.507 -0.1538  0.1139  0.0386
  230POPC   D2A 2754   9.640  15.597   8.039  0.4699  0.0420 -0.2470
  230POPC   C3A 2755   9.425  15.715   7.667  0.2809  0.1960 -0.0641
  230POPC   C4A 2756   9.296  16.010   7.369 -0.0997 -0.1187 -0.0349
  230POPC   C1B 2757   9.233  15.312   8.361  0.1630 -0.1041  0.2730
  230POPC   C2B 2758   9.108  15.591   8.050  0.3458  0.0285  0.0752
  230POPC   C3B 2759   8.793  15.487   7.696  0.2623 -0.0937  0.2751
  230POPC   C4B 2760   8.503  15.512   7.336  0.1059  0.2015  0.3584
  231POPC   NC3 2761   6.432  13.000   8.156  0.0323 -0.0831  0.1402
  231POPC   PO4 2762   6.655  13.179   8.445  0.0296  0.0081 -0.2162
  231POPC   GL1 2763   6.862  13.159   8.130  0.1531  0.0561  0.0318
  231POPC   GL2 2764   6.965  13.044   7.897  0.0158 -0.1834 -0.0783
  231POPC   C1A 2765   7.189  13.479   7.929 -0.0788  0.2262 -0.3338
  231POPC   D2A 2766   7.478  13.756   7.669 -0.3847  0.0841 -0.3401
  231POPC   C3A 2767   7.774  13.609   7.324 -0.0805  0.1005  0.0868
  231POPC   C4A 2768   7.699  13.499   6.896  0.3473 -0.3772 -0.0138
  231POPC   C1B 2769   6.601  12.929   7.622  0.1545  0.0261 -0.1713
  231POPC   C2B 2770   6.650  12.707   7.194 -0.3415 -0.0816 -0.2668
  231POPC   C3B 2771   6.769  12.782   6.763 -0.1993 -0.0740 -0.1789
  231POPC   C4B 2772   6.873  13.138   6.561 -0.1835  0.1456 -0.0573
  232POPC   NC3 2773   7.834  32.608   9.558 -0.0547 -0.1272  0.0484
  232POPC   PO4 2774   7.995  32.933   9.520 -0.2206 -0.1890  0.1232
  232POPC   GL1 2775   8.217  33.031   9.203 -0.0776 -0.2127 -0.1101
  232POPC   GL2 2776   8.192  33.300   9.149  0.2710  0.2303 -0.0806
  232POPC   C1A 2777   8.537  33.006   8.818  0.1699  0.0068  0.1265
  232POPC   D2A 2778   8.617  33.277   8.464  0.0202  0.0050 -0.1860
  232POPC   C3A 2779   8.601  33.652   8.201  0.0331  0.1306 -0.0745
  232POPC   C4A 2780   8.875  33.960   7.985 -0.0404 -0.2554  0.0906
  232POPC   C1B 2781   8.156  33.519   8.787 -0.0343 -0.0208  0.0550
  232POPC   C2B 2782   8.087  33.531   8.316 -0.1785 -0.1201 -0.0985
  232POPC   C3B 2783   8.126  33.613   7.896  0.0023 -0.0572  0.0541
  232POPC   C4B 2784   8.391  33.738   7.530  0.0162 -0.3248 -0.0297
  233POPC   NC3 2785  12.707   0.154   9.307 -0.1170 -0.1808  0.1135
  233POPC   PO4 2786  13.108   0.117   9.294 -0.1927 -0.3189 -0.1577
  233POPC   GL1 2787  13.192   0.334   9.029  0.0509 -0.0646 -0.2916
  233POPC   GL2 2788  13.161   0.219   8.793 -0.0280 -0.2256  0.0937
  233POPC   C1A 2789  12.817   0.548   8.849 -0.0153 -0.0868 -0.0536
  233POPC   D2A 2790  12.657   0.895   8.611 -0.0655  0.1296 -0.0021
  233POPC   C3A 2791  12.487   0.919   8.200  0.1087  0.1423  0.4110
  233POPC   C4A 2792  12.476   0.986   7.780  0.1459  0.0072  0.3336
  233POPC   C1B 2793  12.991   0.218   8.379  0.2439  0.1216  0.1255
  233POPC   C2B 2794  12.774   0.391   7.994 -0.0481 -0.1499 -0.0237
  233POPC   C3B 2795  12.930   0.736   7.786 -0.1545  0.0650  0.0254
  233POPC   C4B 2796  12.807   0.981   7.396 -0.1437 -0.1833  0.0938
  234POPC   NC3 2797   4.097  13.543   8.144  0.2665  0.0253  0.3217
  234POPC   PO4 2798   4.340  13.752   8.361  0.4055  0.2685  0.0370
  234POPC   GL1 2799   4.572  13.641   8.001  0.0777  0.1266 -0.0055
  234POPC   GL2 2800   4.399  13.848   7.886  0.2781  0.2127 -0.0197
  234POPC   C1A 2801   4.812  13.511   7.636 -0.0610  0.1321  0.0992
  234POPC   D2A 2802   4.896  13.568   7.158 -0.2095 -0.2450 -0.2195
  234POPC   C3A 2803   4.620  13.529   6.834  0.0802  0.1462  0.2311
  234POPC   C4A 2804   4.275  13.528   6.508 -0.1525  0.2328  0.2996
  234POPC   C1B 2805   4.418  13.789   7.418  0.1760  0.1052  0.0558
  234POPC   C2B 2806   4.354  13.983   6.985  0.2482  0.1472 -0.3137
  234POPC   C3B 2807   4.245  13.994   6.549  0.0990 -0.1912  0.3119
  234POPC   C4B 2808   4.011  14.187   6.175 -0.1175  0.1300  0.1608
  235POPC   NC3 2809   4.314   6.536  13.372  0.1217  0.1694  0.0544
  235POPC   PO4 2810   4.702   6.551  13.448  0.0323 -0.0436  0.3505
  235POPC   GL1 2811   5.113   6.476  13.507 -0.0730 -0.0004 -0.1308
  235POPC   GL2 2812   5.430   6.308  13.464 -0.0877  0.0890 -0.0180
  235POPC   C1A 2813   5.271   6.502  13.938  0.0757 -0.0828 -0.2509
  235POPC   D2A 2814   5.262   6.297  14.355  0.0249  0.3390  0.2064
  235POPC   C3A 2815   5.695   6.370  14.535 -0.1179 -0.0056  0.0671
  235POPC   C4A 2816   5.970   6.008  14.600 -0.1209 -0.0096 -0.2065
  235POPC   C1B 2817   5.854   6.271  13.615  0.3386  0.0072 -0.2960
  235POPC   C2B 2818   6.009   5.871  13.681 -0.0994 -0.2332  0.1256
  235POPC   C3B 2819   6.456   5.698  13.606 -0.0972 -0.5976 -0.0842
  235POPC   C4B 2820   6.717   5.502  13.334 -0.1156 -0.1094 -0.2143
  236POPC   NC3 2821   7.503  10.350  12.166  0.2170  0.1102  0.0371
  236POPC   PO4 2822   7.480   9.958  12.230 -0.2391  0.1098 -0.0573
  236POPC   GL1 2823   7.734   9.619  12.245 -0.1499 -0.2765  0.0694
  236POPC   GL2 2824   7.672   9.619  12.566  0.0259  0.0362 -0.1818
  236POPC   C1A 2825   7.787   9.280  11.948 -0.2587  0.1826 -0.3186
  236POPC   D2A 2826   7.720   8.800  11.789  0.2013 -0.3181  0.2449
  236POPC   C3A 2827   7.223   8.763  11.763  0.0299 -0.1509 -0.2811
  236POPC   C4A 2828   6.882   8.510  11.695 -0.2598  0.2018  0.0022
  236POPC   C1B 2829   7.783   9.208  12.492  0.0290 -0.3605 -0.1555
  236POPC   C2B 2830   8.021   8.945  12.188 -0.3173  0.3504 -0.4004
  236POPC   C3B 2831   8.283   8.539  12.233 -0.1000  0.0220 -0.2779
  236POPC   C4B 2832   8.650   8.251  12.236  0.3128  0.0535  0.1586
  237POPC   NC3 2833   8.347  15.909   9.744 -0.0634  0.0566 -0.0302
  237POPC   PO4 2834   8.255  16.013   9.378 -0.2326  0.1717 -0.0727
  237POPC   GL1 2835   8.343  16.063   8.907 -0.0154 -0.2893  0.1804
  237POPC   GL2 2836   8.259  16.400   8.913 -0.3223  0.1892  0.0505
  237POPC   C1A 2837   8.411  16.191   8.425  0.1727  0.0973 -0.1709
  237POPC   D2A 2838   8.577  16.330   8.003 -0.2317 -0.1925  0.1726
  237POPC   C3A 2839   8.426  16.476   7.565  0.3406 -0.0119 -0.2546
  237POPC   C4A 2840   8.343  16.350   7.166 -0.0973 -0.1639  0.4288
  237POPC   C1B 2841   8.177  16.657   8.552  0.0195  0.1074 -0.0723
  237POPC   C2B 2842   8.294  16.761   8.127 -0.1905  0.1845 -0.1603
  237POPC   C3B 2843   8.519  16.906   7.738 -0.2140  0.0970 -0.2771
  237POPC   C4B 2844   8.703  16.814   7.305  0.4218  0.0910  0.0110
  238POPC   NC3 2845   8.995  15.923  15.374  0.2219 -0.0900 -0.3319
  238POPC   PO4 2846   8.633  15.975  15.251  0.0217  0.0173 -0.3314
  238POPC   GL1 2847   8.635  16.368  15.320  0.1164  0.0368  0.1282
  238POPC   GL2 2848   8.881  16.386  15.462  0.2779 -0.1749 -0.0599
  238POPC   C1A 2849   8.508  16.622  15.712  0.1356 -0.0903  0.1540
  238POPC   D2A 2850   8.238  16.450  16.032 -0.0111  0.5449  0.1767
  238POPC   C3A 2851   8.134  16.833  16.261 -0.2042 -0.3469 -0.0171
  238POPC   C4A 2852   8.031  17.133  16.589  0.2571 -0.0504  0.0878
  238POPC   C1B 2853   8.907  16.459  15.904 -0.1275  0.0458  0.0187
  238POPC   C2B 2854   8.690  16.728  16.276  0.1199 -0.2939 -0.1520
  238POPC   C3B 2855   8.453  16.885  16.623  0.1611 -0.0555 -0.1951
  238POPC   C4B 2856   8.251  16.773  17.018 -0.0017 -0.1480  0.2552
  239POPC   NC3 2857   9.434  13.109   8.854 -0.4930 -0.0213  0.0156
  239POPC   PO4 2858   9.135  12.980   9.017 -0.2244  0.1538  0.1251
  239POPC   GL1 2859   8.914  13.138   8.741 -0.2310 -0.0554  0.2009
  239POPC   GL2 2860   8.739  12.910   8.667 -0.3185 -0.1983 -0.0681
  239POPC   C1A 2861   9.093  13.248   8.345  0.1133  0.2454 -0.2411
  239POPC   D2A 2862   9.206  13.053   7.969 -0.0717  0.0058 -0.3610
  239POPC   C3A 2863   9.312  12.795   7.657  0.4998  0.3132  0.1103
  239POPC   C4A 2864   9.410  12.710   7.219 -0.2220  0.1713  0.0918
  239POPC   C1B 2865   8.793  12.847   8.224 -0.1166 -0.0647 -0.0966
  239POPC   C2B 2866   8.730  12.733   7.779  0.1322 -0.0459 -0.4681
  239POPC   C3B 2867   8.838  12.425   7.444 -0.1203  0.1006  0.2274
  239POPC   C4B 2868   8.943  12.357   6.989 -0.2131 -0.0937  0.0688
  240POPC   NC3 2869   5.649   2.527  10.290  0.1170 -0.1141 -0.2300
  240POPC   PO4 2870   5.968   2.326  10.425 -0.0013  0.1109  0.2272
  240POPC   GL1 2871   6.078   2.658  10.166 -0.0467  0.0981 -0.3300
  240POPC   GL2 2872   6.022   2.479   9.946 -0.1610 -0.1623 -0.0887
  240POPC   C1A 2873   6.390   2.976   9.988  0.1335 -0.2975  0.0332
  240POPC   D2A 2874   6.644   3.259   9.754  0.2256 -0.1532 -0.1533
  240POPC   C3A 2875   6.747   3.687   9.909 -0.1725 -0.0398 -0.0595
  240POPC   C4A 2876   6.554   4.117   9.923  0.1943  0.0501  0.3438
  240POPC   C1B 2877   6.212   2.577   9.506 -0.0496  0.3466  0.1965
  240POPC   C2B 2878   6.261   2.705   9.056  0.1244 -0.1239  0.3636
  240POPC   C3B 2879   6.568   3.016   8.954 -0.3336  0.1468  0.5602
  240POPC   C4B 2880   6.912   3.258   8.764  0.1134  0.0283 -0.0632
  241POPC   NC3 2881   2.696  13.005   8.043  0.1857 -0.1687  0.0195
  241POPC   PO4 2882   2.340  12.754   8.011 -0.2110 -0.2901  0.0647
  241POPC   GL1 2883   2.286  12.660   7.580  0.1621  0.2892  0.0110
  241POPC   GL2 2884   2.405  12.852   7.520 -0.1204 -0.1421 -0.1143
  241POPC   C1A 2885   2.056  12.390   7.266 -0.2852  0.1206  0.1079
  241POPC   D2A 2886   1.694  12.417   6.987 -0.0026 -0.0740 -0.1222
  241POPC   C3A 2887   1.554  12.844   6.953 -0.1334  0.1528 -0.1864
  241POPC   C4A 2888   1.116  13.014   7.022  0.1228  0.2272 -0.2950
  241POPC   C1B 2889   2.470  12.622   7.133  0.1427 -0.2365  0.1235
  241POPC   C2B 2890   2.595  12.374   6.756 -0.3901 -0.3263  0.0811
  241POPC   C3B 2891   2.363  12.383   6.384 -0.2357 -0.2256 -0.1162
  241POPC   C4B 2892   1.940  12.623   6.320  0.1054  0.2371  0.1666
  242POPC   NC3 2893   0.342   3.506   9.100 -0.2207  0.0329 -0.1350
  242POPC   PO4 2894   0.539   3.257   8.858 -0.1573 -0.1137 -0.1649
  242POPC   GL1 2895   0.821   3.403   8.640 -0.1384 -0.1295  0.0182
  242POPC   GL2 2896   0.808   3.105   8.498 -0.0855  0.0872  0.1837
  242POPC   C1A 2897   0.937   3.543   8.163 -0.3178  0.1043  0.1388
  242POPC   D2A 2898   0.952   3.727   7.761 -0.1103 -0.0400 -0.0953
  242POPC   C3A 2899   0.996   3.401   7.461  0.1530 -0.1978  0.3589
  242POPC   C4A 2900   1.386   3.208   7.279 -0.2452 -0.0933  0.3108
  242POPC   C1B 2901   0.606   3.155   8.044 -0.0189 -0.2712  0.1093
  242POPC   C2B 2902   0.534   3.398   7.687 -0.1221 -0.0358 -0.0912
  242POPC   C3B 2903   0.270   3.492   7.352 -0.1141 -0.0078  0.0050
  242POPC   C4B 2904  -0.177   3.600   7.309 -0.0581  0.0953 -0.0384
  243POPC   NC3 2905  11.886   1.158  11.306  0.2375 -0.1053  0.0071
  243POPC   PO4 2906  12.019   1.531  11.427  0.0414  0.2285 -0.0210
  243POPC   GL1 2907  11.761   1.804  11.371  0.1116  0.1963  0.3193
  243POPC   GL2 2908  11.857   2.000  11.593 -0.0661  0.0804  0.3344
  243POPC   C1A 2909  11.869   2.204  11.119  0.0097 -0.0172 -0.0853
  243POPC   D2A 2910  11.645   2.480  10.856  0.1052 -0.0567  0.1350
  243POPC   C3A 2911  11.629   2.731  10.463 -0.0537  0.2929  0.1187
  243POPC   C4A 2912  11.513   3.137  10.402  0.0381  0.1945  0.1510
  243POPC   C1B 2913  11.493   2.307  11.473 -0.1490  0.2545 -0.2774
  243POPC   C2B 2914  11.120   2.564  11.673 -0.2123  0.2538 -0.3789
  243POPC   C3B 2915  10.771   2.804  11.662 -0.0851  0.1204  0.0136
  243POPC   C4B 2916  10.472   3.136  11.584 -0.0721  0.0749  0.2116
  244POPC   NC3 2917   2.695  17.273   8.778  0.2085 -0.1277 -0.3532
  244POPC   PO4 2918   2.449  17.026   8.645 -0.0421  0.2451  0.2743
  244POPC   GL1 2919   2.383  17.204   8.282  0.0755 -0.1669 -0.1175
  244POPC   GL2 2920   2.547  17.455   8.355 -0.0297  0.0758  0.0535
  244POPC   C1A 2921   2.149  17.401   8.017  0.0695 -0.0468  0.0624
  244POPC   D2A 2922   1.908  17.810   7.898  0.0160 -0.1133 -0.0455
  244POPC   C3A 2923   2.262  18.227   7.931 -0.1926  0.0513  0.1758
  244POPC   C4A 2924   2.469  18.423   7.543 -0.1159 -0.3067  0.1246
  244POPC   C1B 2925   2.728  17.339   7.961 -0.0886 -0.0122 -0.0884
  244POPC   C2B 2926   2.812  17.038   7.648 -0.4547 -0.3419  0.1738
  244POPC   C3B 2927   2.641  16.991   7.258 -0.1051 -0.0222  0.0664
  244POPC   C4B 2928   2.889  16.760   6.981 -0.0954  0.0386 -0.0143
  245POPC   NC3 2929   1.263   1.858   9.185  0.0250 -0.1737 -0.1915
  245POPC   PO4 2930   1.077   2.027   8.911 -0.1881 -0.1258  0.2587
  245POPC   GL1 2931   1.153   2.181   8.532 -0.1806 -0.1316  0.0570
  245POPC   GL2 2932   1.384   1.988   8.415 -0.2453 -0.3122  0.0856
  245POPC   C1A 2933   0.999   2.215   8.067  0.0268 -0.1017 -0.0350
  245POPC   D2A 2934   1.003   1.992   7.658 -0.1888 -0.3219  0.0350
  245POPC   C3A 2935   1.092   2.269   7.287 -0.0475  0.0125 -0.2204
  245POPC   C4A 2936   1.179   2.706   7.187 -0.0390  0.2517  0.2129
  245POPC   C1B 2937   1.451   2.028   7.974 -0.2274 -0.1746 -0.0788
  245POPC   C2B 2938   1.640   2.285   7.587  0.0044 -0.0702  0.0460
  245POPC   C3B 2939   1.944   2.392   7.236 -0.1918  0.2477  0.1414
  245POPC   C4B 2940   2.161   2.623   6.903  0.2188 -0.2989  0.2467
  246POPC   NC3 2941   4.488   4.052  10.244  0.3529 -0.1790  0.1951
  246POPC   PO4 2942   4.322   4.337  10.082 -0.1169 -0.2141 -0.2032
  246POPC   GL1 2943   4.522   4.446   9.785  0.2439  0.4348 -0.2576
  246POPC   GL2 2944   4.543   4.744   9.765  0.2346 -0.3472 -0.3044
  246POPC   C1A 2945   4.482   4.372   9.360 -0.0228 -0.0980  0.2188
  246POPC   D2A 2946   4.657   4.282   8.959 -0.1241 -0.1595  0.2177
  246POPC   C3A 2947   5.061   4.440   8.824 -0.0835  0.1625 -0.1385
  246POPC   C4A 2948   5.480   4.308   8.838 -0.0211 -0.2140  0.2075
  246POPC   C1B 2949   4.923   4.780   9.471  0.0814  0.4042 -0.2010
  246POPC   C2B 2950   5.275   4.710   9.182  0.1377  0.2842 -0.1811
  246POPC   C3B 2951   5.607   4.778   8.899 -0.3911 -0.0170 -0.0635
  246POPC   C4B 2952   5.672   5.171   8.565 -0.0375  0.4336  0.2207
  247POPC   NC3 2953  14.194  13.842   8.255 -0.2105  0.0288  0.1113
  247POPC   PO4 2954  14.051  14.043   8.552 -0.0179  0.1072  0.1143
  247POPC   GL1 2955  13.824  14.173   8.186 -0.2589 -0.0461  0.0681
  247POPC   GL2 2956  13.697  13.929   8.124  0.0859 -0.0558  0.2513
  247POPC   C1A 2957  13.968  14.162   7.734 -0.4390 -0.2388 -0.0300
  247POPC   D2A 2958  13.895  14.327   7.285  0.4200  0.1838 -0.0383
  247POPC   C3A 2959  14.058  14.149   6.927  0.1378  0.1249 -0.2843
  247POPC   C4A 2960  14.281  14.018   6.564 -0.2480 -0.1098  0.0106
  247POPC   C1B 2961  13.470  14.035   7.662 -0.1739 -0.0752 -0.2012
  247POPC   C2B 2962  13.471  14.161   7.204  0.3886  0.0582 -0.0601
  247POPC   C3B 2963  13.590  14.235   6.775  0.1972  0.0704 -0.0525
  247POPC   C4B 2964  13.362  14.114   6.353 -0.0954  0.1309  0.1705
  248POPC   NC3 2965   4.921   3.503  13.287  0.0413 -0.1219 -0.0353
  248POPC   PO4 2966   4.780   3.587  13.659  0.2932 -0.0164 -0.1054
  248POPC   GL1 2967   5.058   3.689  13.815 -0.2045 -0.1134 -0.2862
  248POPC   GL2 2968   5.145   3.515  14.063  0.1313  0.0016 -0.1450
  248POPC   C1A 2969   5.436   3.860  13.924 -0.0702 -0.0008  0.2157
  248POPC   D2A 2970   5.735   4.047  14.253  0.1904  0.0988  0.1934
  248POPC   C3A 2971   6.121   4.325  14.112 -0.0069 -0.2852  0.0946
  248POPC   C4A 2972   6.327   4.386  13.661 -0.2782 -0.1114 -0.2870
  248POPC   C1B 2973   5.532   3.551  14.357 -0.1028 -0.0392  0.0939
  248POPC   C2B 2974   5.836   3.486  14.746  0.0139  0.1119 -0.1591
  248POPC   C3B 2975   6.215   3.598  15.015  0.0799  0.0989 -0.0158
  248POPC   C4B 2976   6.558   3.974  14.990  0.1759 -0.1799  0.1823
  249POPC   NC3 2977   3.130   3.106   9.529 -0.0846  0.2025  0.0121
  249POPC   PO4 2978   2.805   3.271   9.425  0.1220 -0.0087  0.0850
  249POPC   GL1 2979   2.899   3.219   9.041 -0.1639 -0.0689  0.0502
  249POPC   GL2 2980   3.016   2.956   9.030  0.0548  0.4497  0.1100
  249POPC   C1A 2981   2.895   3.387   8.609 -0.2100 -0.1175 -0.0657
  249POPC   D2A 2982   2.612   3.469   8.292  0.1156  0.0117 -0.0125
  249POPC   C3A 2983   2.358   3.555   7.899 -0.0908  0.0362 -0.2082
  249POPC   C4A 2984   2.380   3.926   7.531  0.2284  0.3805 -0.1187
  249POPC   C1B 2985   3.417   2.842   8.845 -0.0396  0.1013 -0.1662
  249POPC   C2B 2986   3.747   2.864   8.510 -0.0576 -0.0553  0.1409
  249POPC   C3B 2987   3.883   3.280   8.356  0.2005  0.1893 -0.2728
  249POPC   C4B 2988   3.714   3.642   8.145  0.1273 -0.0760  0.0968
  250POPC   NC3 2989   2.731   9.699   8.791 -0.1723  0.1531  0.1636
  250POPC   PO4 2990   2.928   9.400   8.807  0.1039  0.0868 -0.0893
  250POPC   GL1 2991   3.178   9.504   8.510 -0.0526 -0.1322 -0.1392
  250POPC   GL2 2992   3.445   9.641   8.554 -0.1621 -0.2421 -0.1767
  250POPC   C1A 2993   3.413   9.261   8.201  0.0825  0.0853  0.0568
  250POPC   D2A 2994   3.643   8.865   8.145  0.2383  0.2161 -0.0322
  250POPC   C3A 2995   3.919   8.677   7.819  0.1794  0.0688  0.2919
  250POPC   C4A 2996   4.112   8.594   7.438  0.0081  0.1318  0.0225
  250POPC   C1B 2997   3.635   9.698   8.179  0.0697  0.2290 -0.0466
  250POPC   C2B 2998   3.563   9.882   7.759 -0.2003  0.3251  0.1721
  250POPC   C3B 2999   3.419  10.077   7.319  0.0595 -0.1748 -0.1988
  250POPC   C4B 3000   3.591  10.273   6.979  0.1865 -0.0391  0.0212
  251POPC   NC3 3001   2.306   6.128   9.355  0.1684 -0.1615  0.0211
  251POPC   PO4 3002   2.661   6.332   9.483  0.0456 -0.2102 -0.0361
  251POPC   GL1 3003   2.714   6.146   9.104  0.5621 -0.3172 -0.0488
  251POPC   GL2 3004   2.651   5.856   9.163 -0.2827  0.0769 -0.3994
  251POPC   C1A 3005   2.934   6.103   8.689  0.1583 -0.1383  0.0063
  251POPC   D2A 3006   2.929   6.112   8.227 -0.2929  0.0095 -0.1564
  251POPC   C3A 3007   2.568   6.192   7.952  0.0938  0.1194 -0.0852
  251POPC   C4A 3008   2.384   6.367   7.588  0.4531  0.0152 -0.0790
  251POPC   C1B 3009   2.599   5.692   8.713  0.1524 -0.3373 -0.2199
  251POPC   C2B 3010   2.602   5.759   8.280 -0.1611 -0.0824 -0.1757
  251POPC   C3B 3011   2.848   5.722   7.899 -0.2071  0.1022  0.2483
  251POPC   C4B 3012   3.219   5.477   7.723  0.2052 -0.0488 -0.0150
  252POPC   NC3 3013  14.279  31.633   9.219  0.0894  0.0436  0.0623
  252POPC   PO4 3014  14.375  31.999   9.191  0.1448 -0.0891 -0.2042
  252POPC   GL1 3015  14.584  32.138   8.920  0.1783 -0.4140 -0.0858
  252POPC   GL2 3016  14.501  32.279   8.716 -0.1421  0.3628 -0.0485
  252POPC   C1A 3017  14.902  32.050   8.598 -0.3933 -0.0367 -0.0210
  252POPC   D2A 3018  14.929  31.714   8.283 -0.0067 -0.1450 -0.1672
  252POPC   C3A 3019  14.850  31.620   7.834  0.0268 -0.1723  0.1336
  252POPC   C4A 3020  15.021  31.438   7.413  0.0431 -0.2893 -0.2441
  252POPC   C1B 3021  14.693  32.430   8.293  0.3055  0.2791  0.0059
  252POPC   C2B 3022  14.527  32.247   7.917  0.0871  0.2024 -0.0404
  252POPC   C3B 3023  14.494  32.282   7.485  0.0642  0.0259 -0.0126
  252POPC   C4B 3024  14.456  32.587   7.133  0.1980  0.0348  0.0678
  253POPC   NC3 3025   6.927  12.718   8.802 -0.1612  0.2319 -0.3737
  253POPC   PO4 3026   7.294  12.762   9.003  0.0873  0.3606  0.1064
  253POPC   GL1 3027   7.387  12.889   8.603  0.2346  0.1161  0.3679
  253POPC   GL2 3028   7.185  13.068   8.432 -0.1492  0.2943  0.1372
  253POPC   C1A 3029   7.304  12.686   8.172  0.1284  0.1019 -0.0977
  253POPC   D2A 3030   7.400  12.628   7.743  0.1178 -0.2401 -0.0900
  253POPC   C3A 3031   7.108  12.826   7.433  0.1804 -0.1888 -0.0779
  253POPC   C4A 3032   7.118  12.987   7.041 -0.0331  0.2090  0.0522
  253POPC   C1B 3033   7.535  13.117   8.102 -0.1053 -0.1036 -0.2658
  253POPC   C2B 3034   7.577  13.217   7.644 -0.0313 -0.0249  0.0020
  253POPC   C3B 3035   7.378  13.337   7.258  0.0024  0.1673 -0.1025
  253POPC   C4B 3036   7.142  13.464   6.914  0.2171  0.1074  0.1951
  254POPC   NC3 3037   5.060   6.732  13.137  0.2445 -0.0294  0.2508
  254POPC   PO4 3038   5.027   6.793  12.742  0.4209  0.1688  0.4002
  254POPC   GL1 3039   5.422   6.636  12.756 -0.0887  0.0449 -0.0900
  254POPC   GL2 3040   5.429   6.461  13.004 -0.3069  0.1867  0.0685
  254POPC   C1A 3041   5.865   6.483  12.702  0.2921  0.0033 -0.0752
  254POPC   D2A 3042   6.326   6.358  12.605  0.1354  0.1581  0.2807
  254POPC   C3A 3043   6.707   6.164  12.641  0.0581  0.2584  0.2034
  254POPC   C4A 3044   6.860   5.804  12.865 -0.1569 -0.1545  0.1399
  254POPC   C1B 3045   5.791   6.233  13.126 -0.2954  0.2826  0.1097
  254POPC   C2B 3046   6.215   6.219  13.172  0.1910  0.0269  0.3113
  254POPC   C3B 3047   6.604   6.039  13.238  0.1943  0.0698  0.1942
  254POPC   C4B 3048   6.940   5.917  13.524 -0.1422 -0.0678  0.0380
  255POPC   NC3 3049   2.647  14.454   8.103 -0.1298 -0.1393  0.0405
  255POPC   PO4 3050   2.698  14.044   8.019  0.2187 -0.0962  0.2199
  255POPC   GL1 3051   2.937  14.172   7.717  0.0473 -0.1807 -0.0750
  255POPC   GL2 3052   3.015  13.867   7.695  0.2377 -0.0690  0.2347
  255POPC   C1A 3053   2.979  14.434   7.349  0.0512  0.0740 -0.3895
  255POPC   D2A 3054   2.804  14.782   7.114  0.0872 -0.3151 -0.0685
  255POPC   C3A 3055   2.845  14.721   6.649 -0.0771 -0.6530 -0.1947
  255POPC   C4A 3056   2.573  14.755   6.267  0.3513 -0.1029  0.0106
  255POPC   C1B 3057   2.842  13.954   7.286  0.0146 -0.3508 -0.0974
  255POPC   C2B 3058   2.855  14.140   6.856 -0.1559 -0.1361 -0.1679
  255POPC   C3B 3059   3.162  14.171   6.530  0.2055  0.1508  0.4734
  255POPC   C4B 3060   3.150  14.512   6.232 -0.0789 -0.0161 -0.1310
  256POPC   NC3 3061   4.225  12.090   8.235  0.1236  0.1566 -0.1220
  256POPC   PO4 3062   4.251  12.478   8.262  0.1965  0.1907 -0.0449
  256POPC   GL1 3063   4.404  12.596   7.950 -0.2596  0.2197 -0.0778
  256POPC   GL2 3064   4.276  12.498   7.740  0.1517  0.2976  0.0487
  256POPC   C1A 3065   4.867  12.469   7.949 -0.2305 -0.0996 -0.2888
  256POPC   D2A 3066   5.044  12.142   7.619 -0.1020 -0.0533  0.2066
  256POPC   C3A 3067   5.308  12.121   7.216 -0.2365  0.0241  0.1545
  256POPC   C4A 3068   5.557  12.410   6.924  0.2536 -0.2153 -0.0159
  256POPC   C1B 3069   4.465  12.156   7.770  0.1061 -0.1251 -0.0473
  256POPC   C2B 3070   4.679  11.853   7.519 -0.1424 -0.2710 -0.0956
  256POPC   C3B 3071   4.859  11.914   7.059 -0.1619 -0.3332 -0.2529
  256POPC   C4B 3072   4.762  12.165   6.688 -0.2480 -0.2671  0.1110
  257POPC   NC3 3073  16.213   2.755   9.119  0.1551 -0.2360 -0.0557
  257POPC   PO4 3074  16.361   3.169   9.046  0.2172  0.2913 -0.1661
  257POPC   GL1 3075  16.298   3.179   8.683 -0.2175 -0.2545  0.3440
  257POPC   GL2 3076  16.554   3.169   8.509  0.0460 -0.2894 -0.3328
  257POPC   C1A 3077  16.064   2.976   8.342  0.1460 -0.2463  0.0959
  257POPC   D2A 3078  16.069   2.765   7.870  0.0697 -0.0745  0.0130
  257POPC   C3A 3079  15.914   2.468   7.595  0.2580  0.2084 -0.1809
  257POPC   C4A 3080  15.813   2.088   7.361 -0.2335 -0.0911  0.2303
  257POPC   C1B 3081  16.537   3.354   8.048 -0.1251  0.0085 -0.0632
  257POPC   C2B 3082  16.247   3.258   7.661  0.0468 -0.1703  0.1043
  257POPC   C3B 3083  15.965   3.011   7.377  0.0915 -0.2101  0.0510
  257POPC   C4B 3084  15.700   3.000   7.015  0.3622 -0.0893  0.0915
  258POPC   NC3 3085  11.464   1.267  12.045  0.0635 -0.3513  0.1931
  258POPC   PO4 3086  11.771   1.117  11.835 -0.2148  0.2507  0.0380
  258POPC   GL1 3087  11.614   1.396  11.582 -0.2414  0.1510  0.0899
  258POPC   GL2 3088  11.454   1.390  11.351 -0.0663 -0.3814 -0.2403
  258POPC   C1A 3089  11.435   1.776  11.807  0.0379 -0.1102  0.0239
  258POPC   D2A 3090  11.436   2.178  11.949 -0.1202 -0.4192 -0.1513
  258POPC   C3A 3091  10.964   2.280  12.042  0.3353  0.1852  0.2282
  258POPC   C4A 3092  10.587   2.554  12.103  0.4301  0.2980  0.0246
  258POPC   C1B 3093  11.348   1.844  11.296  0.3304  0.1164  0.0391
  258POPC   C2B 3094  11.138   2.236  11.169  0.2957 -0.0876  0.0453
  258POPC   C3B 3095  10.984   2.672  11.233  0.0956  0.1191 -0.1087
  258POPC   C4B 3096  10.908   3.140  11.205  0.0066 -0.1107 -0.0628
  259POPC   NC3 3097   7.381  16.515   9.220 -0.1479 -0.1072 -0.2573
  259POPC   PO4 3098   7.196  16.821   9.409  0.0766  0.2157 -0.1564
  259POPC   GL1 3099   7.499  17.055   9.236 -0.1777 -0.4754  0.1953
  259POPC   GL2 3100   7.476  16.955   8.967  0.1300  0.3110  0.0889
  259POPC   C1A 3101   7.489  17.481   9.044  0.1454  0.0655  0.0458
  259POPC   D2A 3102   7.399  17.772   8.697  0.0371 -0.1435  0.1214
  259POPC   C3A 3103   7.317  18.127   8.409 -0.0936 -0.0060 -0.0043
  259POPC   C4A 3104   6.940  18.470   8.385 -0.0203  0.4438  0.1376
  259POPC   C1B 3105   7.496  17.227   8.565 -0.0398  0.0001  0.1482
  259POPC   C2B 3106   7.630  17.516   8.215 -0.0300 -0.0301  0.0249
  259POPC   C3B 3107   7.757  17.960   8.203  0.1819  0.0691 -0.3019
  259POPC   C4B 3108   7.781  18.321   7.977  0.0744 -0.1714 -0.1526
  260POPC   NC3 3109   2.405   1.997   8.893 -0.1241  0.0735 -0.3146
  260POPC   PO4 3110   2.108   1.797   8.796  0.1097  0.2657  0.4723
  260POPC   GL1 3111   2.311   1.755   8.450 -0.0781  0.0615  0.4005
  260POPC   GL2 3112   2.587   1.665   8.513 -0.0388 -0.0527  0.0094
  260POPC   C1A 3113   2.426   1.939   8.035  0.0249  0.2133  0.1214
  260POPC   D2A 3114   2.766   1.969   7.744 -0.2682  0.2623  0.3289
  260POPC   C3A 3115   2.888   1.997   7.304  0.1980  0.1633 -0.1280
  260POPC   C4A 3116   3.133   2.075   6.931 -0.2597 -0.0959  0.0807
  260POPC   C1B 3117   2.851   2.009   8.338  0.3775 -0.1878  0.0219
  260POPC   C2B 3118   3.139   2.179   7.994  0.1422  0.2848  0.1092
  260POPC   C3B 3119   3.256   2.207   7.535 -0.2130 -0.3472 -0.0537
  260POPC   C4B 3120   3.417   2.446   7.145 -0.0788 -0.1228  0.1473
  261POPC   NC3 3121  15.218   5.128  14.837 -0.4616  0.2006  0.3760
  261POPC   PO4 3122  15.543   5.163  15.056 -0.0786  0.1997  0.0127
  261POPC   GL1 3123  15.224   5.047  15.273 -0.4110  0.1282 -0.0404
  261POPC   GL2 3124  14.939   5.065  15.270  0.2323 -0.3302  0.3901
  261POPC   C1A 3125  15.063   5.055  15.701  0.0398 -0.1732  0.0944
  261POPC   D2A 3126  14.769   5.010  15.975  0.3585  0.1041 -0.0578
  261POPC   C3A 3127  14.619   5.051  16.381 -0.0617 -0.1862 -0.0552
  261POPC   C4A 3128  14.207   5.007  16.628 -0.2980  0.0131 -0.1252
  261POPC   C1B 3129  14.533   5.039  15.544 -0.1892  0.0595 -0.0736
  261POPC   C2B 3130  14.215   4.826  15.817  0.1474  0.0662 -0.2238
  261POPC   C3B 3131  13.780   5.036  15.978  0.0467  0.0132  0.1722
  261POPC   C4B 3132  13.439   5.352  16.168  0.2020 -0.5023 -0.0511
  262POPC   NC3 3133  11.807  13.972  16.092  0.2046 -0.2803  0.1120
  262POPC   PO4 3134  12.005  14.211  16.290 -0.2940  0.0654 -0.3310
  262POPC   GL1 3135  11.985  14.115  16.626 -0.3078 -0.0100 -0.0596
  262POPC   GL2 3136  11.769  14.023  16.749 -0.2214  0.1301 -0.1953
  262POPC   C1A 3137  12.263  13.903  16.904  0.0725 -0.1383  0.2257
  262POPC   D2A 3138  12.435  13.803  17.375 -0.0258  0.1514 -0.2235
  262POPC   C3A 3139  12.451  13.953  17.809 -0.1559  0.2477  0.0046
  262POPC   C4A 3140  12.548  14.089  18.224  0.1328 -0.3126 -0.0278
  262POPC   C1B 3141  11.525  14.333  17.053 -0.1782 -0.1860 -0.0001
  262POPC   C2B 3142  11.368  14.527  17.449 -0.0816  0.3627 -0.0915
  262POPC   C3B 3143  11.335  14.330  17.877 -0.0417  0.1196 -0.1624
  262POPC   C4B 3144  11.620  14.164  18.180  0.0095 -0.0726  0.2747
  263POPC   NC3 3145  14.588   5.675  14.052  0.2584 -0.0411 -0.3687
  263POPC   PO4 3146  14.783   5.337  14.150  0.0828  0.2185  0.0487
  263POPC   GL1 3147  14.354   5.296  14.231 -0.2298  0.0245  0.0016
  263POPC   GL2 3148  14.103   5.173  14.119  0.1536 -0.1161 -0.1068
  263POPC   C1A 3149  14.096   5.337  14.682  0.0380  0.3433 -0.1887
  263POPC   D2A 3150  14.176   5.257  15.156 -0.0301  0.1289 -0.3894
  263POPC   C3A 3151  13.843   5.167  15.494  0.2421 -0.1229 -0.2165
  263POPC   C4A 3152  13.387   5.084  15.640 -0.0718 -0.0535 -0.1535
  263POPC   C1B 3153  13.718   5.255  14.341  0.1002  0.2172 -0.0458
  263POPC   C2B 3154  13.370   5.340  14.667  0.1780  0.2246 -0.0292
  263POPC   C3B 3155  12.994   5.089  14.716 -0.1242  0.0396  0.3410
  263POPC   C4B 3156  12.830   4.709  14.987 -0.1121 -0.3497  0.2032
  264POPC   NC3 3157   5.913   2.310  14.589 -0.1211 -0.0868 -0.0789
  264POPC   PO4 3158   5.749   1.996  14.727 -0.1577  0.2016 -0.0467
  264POPC   GL1 3159   5.869   2.212  15.105  0.0956  0.5314  0.1529
  264POPC   GL2 3160   6.004   2.025  15.180 -0.1408 -0.2549  0.1171
  264POPC   C1A 3161   6.153   2.455  15.372  0.2494 -0.4918  0.0165
  264POPC   D2A 3162   6.185   2.551  15.830 -0.0126  0.3525 -0.1338
  264POPC   C3A 3163   5.792   2.641  16.054 -0.3970 -0.4262  0.0029
  264POPC   C4A 3164   5.493   2.585  16.347 -0.1466  0.1023  0.0149
  264POPC   C1B 3165   6.065   2.004  15.652  0.0628 -0.3876  0.0216
  264POPC   C2B 3166   6.331   2.105  16.038  0.2533  0.1299  0.0284
  264POPC   C3B 3167   6.412   2.427  16.312 -0.1572 -0.2741  0.1278
  264POPC   C4B 3168   6.418   2.791  16.629  0.1150 -0.0504  0.2865
  265POPC   NC3 3169   7.555  17.040   9.672  0.2454 -0.1453 -0.1933
  265POPC   PO4 3170   7.687  16.678   9.561 -0.0880  0.1347  0.1234
  265POPC   GL1 3171   7.848  16.747   9.243  0.2376 -0.2013  0.2115
  265POPC   GL2 3172   7.983  17.063   9.341 -0.0961 -0.0302 -0.3929
  265POPC   C1A 3173   7.716  16.583   8.813 -0.1060  0.2011  0.3309
  265POPC   D2A 3174   7.686  16.768   8.394 -0.1093  0.0584 -0.0374
  265POPC   C3A 3175   7.932  17.150   8.294  0.0429 -0.2458  0.1841
  265POPC   C4A 3176   8.102  17.553   8.266  0.1181 -0.1529  0.0689
  265POPC   C1B 3177   7.964  17.119   8.920  0.0609  0.0985 -0.2839
  265POPC   C2B 3178   7.916  17.541   8.708 -0.3087 -0.1821  0.1542
  265POPC   C3B 3179   7.899  18.006   8.767  0.0060  0.1518  0.0934
  265POPC   C4B 3180   7.821  18.345   8.488  0.0932 -0.1971 -0.2420
  266POPC   NC3 3181  15.624   8.211  10.042 -0.1141 -0.0907 -0.0993
  266POPC   PO4 3182  15.643   7.937   9.738  0.3095  0.0018  0.0156
  266POPC   GL1 3183  15.671   7.926   9.332 -0.0046 -0.0758 -0.1202
  266POPC   GL2 3184  15.439   8.039   9.216  0.2241 -0.2643 -0.1404
  266POPC   C1A 3185  15.593   7.688   8.933 -0.0802  0.1799 -0.0302
  266POPC   D2A 3186  15.515   7.574   8.539 -0.2495 -0.3398 -0.2210
  266POPC   C3A 3187  15.222   7.260   8.265 -0.0815  0.0538 -0.2673
  266POPC   C4A 3188  14.944   6.947   8.192  0.0901 -0.1729  0.2500
  266POPC   C1B 3189  15.154   7.988   8.797  0.2335  0.0979  0.1362
  266POPC   C2B 3190  15.002   7.863   8.381 -0.0755 -0.2853 -0.1755
  266POPC   C3B 3191  14.791   7.573   8.054  0.1283  0.1178 -0.0692
  266POPC   C4B 3192  14.499   7.463   7.732 -0.1573  0.3364 -0.0217
  267POPC   NC3 3193   9.082   0.486  10.326  0.2239 -0.2420  0.1043
  267POPC   PO4 3194   9.301   0.176  10.135 -0.0823 -0.0619  0.0807
  267POPC   GL1 3195   9.317   0.611   9.999 -0.1448 -0.1003 -0.1372
  267POPC   GL2 3196   9.241   0.608   9.729  0.2060  0.0982  0.1902
  267POPC   C1A 3197   9.399   1.035   9.921  0.0576  0.0739  0.3720
  267POPC   D2A 3198   9.484   1.391   9.639  0.1055  0.3336 -0.1650
  267POPC   C3A 3199   9.617   1.764   9.554 -0.0908 -0.0202  0.1004
  267POPC   C4A 3200   9.815   2.190   9.351  0.0605 -0.0999  0.0467
  267POPC   C1B 3201   9.200   0.983   9.343 -0.2903 -0.1636 -0.3358
  267POPC   C2B 3202   9.213   1.309   9.069 -0.0411  0.0736 -0.1064
  267POPC   C3B 3203   9.126   1.694   8.760 -0.0224  0.1768  0.1794
  267POPC   C4B 3204   9.455   1.949   8.542  0.2203 -0.0162  0.1421
  268POPC   NC3 3205  13.759   1.855  14.897  0.1066  0.3171  0.2866
  268POPC   PO4 3206  13.772   2.098  14.607  0.0102 -0.1838 -0.2245
  268POPC   GL1 3207  13.453   2.278  14.830 -0.0763 -0.0457  0.2126
  268POPC   GL2 3208  13.207   2.265  14.577  0.0975 -0.0240  0.1633
  268POPC   C1A 3209  13.124   2.419  15.129  0.3544 -0.2372  0.2297
  268POPC   D2A 3210  12.775   2.584  15.291  0.3049  0.2472  0.3180
  268POPC   C3A 3211  12.388   2.410  15.480  0.2308  0.2830 -0.3594
  268POPC   C4A 3212  12.011   2.551  15.763 -0.1665 -0.2331 -0.1830
  268POPC   C1B 3213  13.005   2.634  14.660  0.0197 -0.0819  0.2101
  268POPC   C2B 3214  12.708   2.956  14.637 -0.0819  0.0063 -0.0499
  268POPC   C3B 3215  12.320   3.253  14.660  0.2106 -0.0130  0.0102
  268POPC   C4B 3216  12.031   3.572  14.396  0.0062 -0.0036  0.0452
  269POPC   NC3 3217   8.298  15.613   9.175 -0.0665  0.2157 -0.0009
  269POPC   PO4 3218   7.969  15.407   9.381  0.2895 -0.1149 -0.0458
  269POPC   GL1 3219   7.820  15.535   9.038 -0.0465 -0.1948  0.1168
  269POPC   GL2 3220   7.789  15.778   8.942 -0.3202  0.0613 -0.3485
  269POPC   C1A 3221   7.994  15.494   8.636  0.0404  0.0681  0.0346
  269POPC   D2A 3222   8.246  15.272   8.310  0.2157  0.1660 -0.0993
  269POPC   C3A 3223   8.461  15.144   7.897 -0.1619 -0.2833 -0.0459
  269POPC   C4A 3224   8.598  14.822   7.566 -0.0045 -0.1979  0.0202
  269POPC   C1B 3225   7.910  16.123   8.653 -0.0025  0.0640  0.0698
  269POPC   C2B 3226   7.970  16.345   8.231  0.1255  0.0874  0.2052
  269POPC   C3B 3227   7.976  16.340   7.751 -0.1093  0.2652  0.1198
  269POPC   C4B 3228   7.888  16.510   7.363 -0.0021 -0.1350  0.0308
  270POPC   NC3 3229   0.489  14.851   7.866 -0.0954  0.1982 -0.1035
  270POPC   PO4 3230   0.684  15.162   8.066  0.0249  0.1974 -0.0559
  270POPC   GL1 3231   0.692  15.270   7.708 -0.4589 -0.5094  0.0330
  270POPC   GL2 3232   0.444  15.441   7.606 -0.0118  0.3154 -0.0089
  270POPC   C1A 3233   0.732  15.060   7.300  0.0897 -0.2101  0.0043
  270POPC   D2A 3234   0.969  15.080   6.949 -0.2796  0.0786 -0.0109
  270POPC   C3A 3235   0.725  15.295   6.651 -0.1937 -0.0104  0.1466
  270POPC   C4A 3236   0.315  15.450   6.583  0.2231 -0.0773  0.3203
  270POPC   C1B 3237   0.468  15.560   7.161  0.0919  0.3402 -0.1186
  270POPC   C2B 3238   0.618  15.820   6.841 -0.3389  0.0176 -0.1252
  270POPC   C3B 3239   0.761  15.713   6.400  0.1591  0.0980 -0.2291
  270POPC   C4B 3240   0.763  15.827   5.970  0.0065  0.0217  0.3476
  271POPC   NC3 3241   4.337   8.619   9.677  0.2369  0.1020  0.1355
  271POPC   PO4 3242   4.331   9.027   9.634  0.0252 -0.2084 -0.2534
  271POPC   GL1 3243   4.518   8.967   9.299  0.4639  0.1298 -0.2659
  271POPC   GL2 3244   4.280   8.909   9.139  0.0347 -0.3038 -0.1189
  271POPC   C1A 3245   4.625   8.728   8.875  0.0609 -0.0674  0.0412
  271POPC   D2A 3246   4.918   8.793   8.515  0.0850  0.0143 -0.0874
  271POPC   C3A 3247   4.848   8.716   8.085 -0.0125  0.1644 -0.1513
  271POPC   C4A 3248   5.124   8.501   7.782  0.0230  0.2125  0.1472
  271POPC   C1B 3249   4.312   9.079   8.722 -0.1210  0.1223  0.0110
  271POPC   C2B 3250   4.471   9.038   8.302 -0.0430  0.4537  0.1110
  271POPC   C3B 3251   4.398   8.796   7.896 -0.1567 -0.0390  0.2242
  271POPC   C4B 3252   4.680   8.602   7.561 -0.0300  0.0457  0.2899
  272POPC   NC3 3253   0.708   2.343   8.791 -0.0757  0.1402 -0.2548
  272POPC   PO4 3254   0.581   2.043   8.982  0.0887 -0.1955 -0.3064
  272POPC   GL1 3255   0.281   2.028   8.739  0.0668  0.4811 -0.1537
  272POPC   GL2 3256   0.222   2.319   8.642 -0.4944  0.2067 -0.0686
  272POPC   C1A 3257   0.098   1.928   8.328  0.0346 -0.2848 -0.0805
  272POPC   D2A 3258  -0.174   1.630   8.053  0.0685  0.0050  0.0232
  272POPC   C3A 3259  -0.374   1.684   7.662  0.0139 -0.0719  0.1782
  272POPC   C4A 3260  -0.714   1.576   7.475  0.3296  0.0321 -0.4406
  272POPC   C1B 3261   0.085   2.415   8.222  0.2154 -0.0353  0.1483
  272POPC   C2B 3262   0.026   2.484   7.774 -0.1711  0.1990  0.0037
  272POPC   C3B 3263  -0.001   2.687   7.340  0.0593 -0.5270  0.1802
  272POPC   C4B 3264  -0.379   2.639   7.051  0.2595 -0.2216  0.3023
  273POPC   NC3 3265   7.683  10.898   9.346 -0.0230  0.0610 -0.3080
  273POPC   PO4 3266   7.734  10.979   9.753  0.2006 -0.3385  0.0293
  273POPC   GL1 3267   8.076  10.743   9.636 -0.1576 -0.4043 -0.0976
  273POPC   GL2 3268   8.004  10.548   9.839 -0.0030 -0.0073 -0.0330
  273POPC   C1A 3269   8.268  10.696   9.181  0.0119  0.0602 -0.0119
  273POPC   D2A 3270   8.287  10.344   8.851 -0.2606  0.0006 -0.5506
  273POPC   C3A 3271   8.283  10.403   8.364  0.3825  0.0010  0.1736
  273POPC   C4A 3272   8.321  10.146   7.960  0.0825  0.2243 -0.1535
  273POPC   C1B 3273   8.229  10.302   9.499  0.1147 -0.3209  0.2181
  273POPC   C2B 3274   8.257   9.956   9.237  0.3576  0.3593  0.2149
  273POPC   C3B 3275   8.297   9.475   9.205  0.1548 -0.0411  0.2162
  273POPC   C4B 3276   8.108   9.062   9.319  0.4450  0.0676  0.0047
  274POPC   NC3 3277  10.262  15.758  15.082 -0.0847 -0.0197 -0.1420
  274POPC   PO4 3278  10.617  15.815  15.216  0.0769  0.1744 -0.0715
  274POPC   GL1 3279  10.640  15.964  15.617 -0.0532 -0.2794  0.2817
  274POPC   GL2 3280  10.391  16.109  15.549  0.1871  0.0332  0.0740
  274POPC   C1A 3281  10.678  15.922  16.072 -0.0814  0.1295 -0.3008
  274POPC   D2A 3282  10.966  15.818  16.411 -0.0942 -0.1077  0.0752
  274POPC   C3A 3283  11.010  15.789  16.845  0.1798  0.2155  0.2380
  274POPC   C4A 3284  10.739  15.685  17.223 -0.1785 -0.0974  0.0361
  274POPC   C1B 3285  10.649  16.392  15.809  0.1955  0.2177 -0.0954
  274POPC   C2B 3286  10.879  16.727  15.916  0.0413 -0.1259  0.1864
  274POPC   C3B 3287  11.143  17.111  15.856  0.1208  0.0497 -0.3757
  274POPC   C4B 3288  11.305  17.542  15.853  0.1899 -0.1494  0.0437
  275POPC   NC3 3289  16.292  14.535   7.816 -0.1284 -0.1361 -0.1221
  275POPC   PO4 3290  16.531  14.738   8.100 -0.0560 -0.1562  0.0494
  275POPC   GL1 3291  16.276  15.081   7.809 -0.3423 -0.1068 -0.2321
  275POPC   GL2 3292  16.237  15.320   7.771  0.0957 -0.0856  0.0735
  275POPC   C1A 3293  16.593  15.086   7.425 -0.2228 -0.1681  0.1872
  275POPC   D2A 3294  16.626  15.152   6.983  0.2399 -0.0600  0.0755
  275POPC   C3A 3295  16.934  14.887   6.866 -0.0282 -0.2125  0.2456
  275POPC   C4A 3296  16.861  14.440   6.658 -0.0217 -0.4179 -0.1926
  275POPC   C1B 3297  16.212  15.412   7.358 -0.1247 -0.2883  0.1190
  275POPC   C2B 3298  16.218  15.456   6.907 -0.0742 -0.1136  0.3459
  275POPC   C3B 3299  16.196  15.415   6.481  0.0960 -0.1969 -0.1814
  275POPC   C4B 3300  16.365  15.154   6.207 -0.0799  0.0171  0.1293
  276POPC   NC3 3301   1.590   8.778   9.059  0.1041 -0.1017  0.1783
  276POPC   PO4 3302   1.226   8.833   8.919  0.1307 -0.1444 -0.2291
  276POPC   GL1 3303   1.380   8.874   8.602  0.0707  0.1241 -0.1499
  276POPC   GL2 3304   1.178   8.663   8.402 -0.1499 -0.1625  0.0352
  276POPC   C1A 3305   1.346   9.091   8.207 -0.1276 -0.0110  0.0764
  276POPC   D2A 3306   1.388   9.073   7.708 -0.1472  0.0422 -0.0457
  276POPC   C3A 3307   1.611   9.032   7.296  0.2074 -0.0210 -0.1657
  276POPC   C4A 3308   1.557   8.966   6.862  0.1182 -0.0084  0.0384
  276POPC   C1B 3309   1.228   8.607   7.982 -0.1478 -0.0857  0.1854
  276POPC   C2B 3310   1.235   8.259   7.633  0.2149  0.3026 -0.0365
  276POPC   C3B 3311   1.053   8.133   7.257 -0.0710  0.3734  0.0818
  276POPC   C4B 3312   0.738   8.097   6.880 -0.1035  0.1566  0.1276
  277POPC   NC3 3313   4.596  12.604   8.557  0.1223  0.2822 -0.1649
  277POPC   PO4 3314   4.913  12.857   8.556 -0.0498 -0.5048  0.0793
  277POPC   GL1 3315   4.771  12.976   8.209  0.0735 -0.0411  0.1921
  277POPC   GL2 3316   5.113  12.983   8.126  0.2549  0.0654  0.2559
  277POPC   C1A 3317   4.633  12.918   7.758  0.1506 -0.0525  0.1741
  277POPC   D2A 3318   4.392  12.758   7.358 -0.1739 -0.1084 -0.0652
  277POPC   C3A 3319   4.497  12.654   6.915  0.4001  0.0225 -0.0015
  277POPC   C4A 3320   4.381  12.600   6.468 -0.0553  0.1431  0.0696
  277POPC   C1B 3321   5.203  13.196   7.770 -0.1059 -0.0322  0.1416
  277POPC   C2B 3322   5.205  13.215   7.338  0.0066 -0.1227 -0.2077
  277POPC   C3B 3323   5.285  13.325   6.871 -0.2363 -0.0815 -0.0326
  277POPC   C4B 3324   5.508  13.364   6.446  0.2021 -0.0337  0.3729
  278POPC   NC3 3325  13.540  13.797   8.590  0.0762 -0.2518  0.0452
  278POPC   PO4 3326  13.871  13.539   8.551  0.0310 -0.2063 -0.1227
  278POPC   GL1 3327  13.801  13.385   8.213 -0.1645  0.0226 -0.1682
  278POPC   GL2 3328  14.073  13.320   8.127 -0.2530  0.0276 -0.1391
  278POPC   C1A 3329  13.579  13.057   7.981 -0.0888 -0.1135  0.3285
  278POPC   D2A 3330  13.138  13.001   7.750 -0.1354 -0.2171 -0.1670
  278POPC   C3A 3331  13.026  13.015   7.323  0.1313 -0.0616  0.1488
  278POPC   C4A 3332  12.821  12.827   6.925 -0.0757 -0.2743  0.2973
  278POPC   C1B 3333  13.974  13.618   7.860  0.1948  0.2843  0.1361
  278POPC   C2B 3334  13.819  13.758   7.440  0.1827  0.2562 -0.1705
  278POPC   C3B 3335  13.698  13.716   7.005 -0.0949 -0.1031  0.0001
  278POPC   C4B 3336  13.815  13.810   6.590  0.1038 -0.1198  0.1265
  279POPC   NC3 3337   0.896  14.501   7.683  0.1809 -0.1888  0.2720
  279POPC   PO4 3338   1.205  14.433   7.904  0.0758 -0.2393 -0.0426
  279POPC   GL1 3339   1.358  14.261   7.572  0.0667 -0.0994 -0.1944
  279POPC   GL2 3340   1.141  14.148   7.357 -0.2409  0.0495 -0.0865
  279POPC   C1A 3341   1.513  14.351   7.099  0.0712 -0.2126 -0.2387
  279POPC   D2A 3342   1.505  14.721   6.834 -0.1060 -0.0870  0.2147
  279POPC   C3A 3343   1.569  14.628   6.398 -0.1551  0.1796 -0.0846
  279POPC   C4A 3344   1.772  14.583   5.990 -0.1037 -0.1174  0.0020
  279POPC   C1B 3345   1.200  13.920   6.947 -0.0129 -0.2239 -0.4004
  279POPC   C2B 3346   1.207  13.748   6.528  0.0182  0.3550 -0.1000
  279POPC   C3B 3347   0.938  13.497   6.255  0.0258 -0.0170  0.1516
  279POPC   C4B 3348   0.657  13.141   6.077  0.1519 -0.0214  0.0340
  280POPC   NC3 3349   4.410   2.081   9.829  0.0985  0.0774 -0.2206
  280POPC   PO4 3350   4.581   2.319  10.050  0.0624 -0.2052 -0.3653
  280POPC   GL1 3351   4.858   2.503   9.868  0.0060 -0.0099 -0.0797
  280POPC   GL2 3352   4.664   2.543   9.632  0.1753 -0.1006  0.2511
  280POPC   C1A 3353   5.117   2.383   9.454  0.0022  0.1985 -0.0927
  280POPC   D2A 3354   5.367   2.455   9.059  0.1878  0.2238 -0.1825
  280POPC   C3A 3355   5.745   2.724   8.951  0.0109  0.0929 -0.2596
  280POPC   C4A 3356   5.996   3.127   8.923 -0.1852  0.1850  0.1067
  280POPC   C1B 3357   4.739   2.719   9.179 -0.1579 -0.0203  0.1255
  280POPC   C2B 3358   5.095   2.860   8.911 -0.1356 -0.3126 -0.2910
  280POPC   C3B 3359   5.414   2.789   8.590  0.0330  0.0570  0.1166
  280POPC   C4B 3360   5.856   2.840   8.473 -0.1199 -0.2787  0.0184
  281POPC   NC3 3361   7.082   9.696  12.222  0.1294  0.2525  0.2319
  281POPC   PO4 3362   6.759   9.874  12.303  0.2244 -0.0624 -0.1389
  281POPC   GL1 3363   6.705   9.515  12.386  0.0470  0.1790  0.1281
  281POPC   GL2 3364   6.751   9.297  12.129 -0.0872 -0.1278 -0.0315
  281POPC   C1A 3365   6.957   9.125  12.497 -0.0612  0.1366 -0.2602
  281POPC   D2A 3366   7.337   9.111  12.768  0.1722 -0.2073 -0.1047
  281POPC   C3A 3367   7.636   8.798  12.858  0.0873  0.2276 -0.0639
  281POPC   C4A 3368   8.020   8.616  12.595 -0.2286 -0.3170 -0.2707
  281POPC   C1B 3369   6.803   8.842  12.072  0.0158 -0.0982  0.1955
  281POPC   C2B 3370   7.079   8.519  12.168 -0.1791 -0.0430 -0.0902
  281POPC   C3B 3371   7.387   8.242  12.278 -0.1609  0.2240 -0.2541
  281POPC   C4B 3372   7.723   7.922  12.260  0.0653 -0.0667  0.1390
  282POPC   NC3 3373   1.267  10.608   8.912  0.3025 -0.0047 -0.4034
  282POPC   PO4 3374   1.577  10.588   8.773 -0.3852 -0.1505  0.2319
  282POPC   GL1 3375   1.511  10.373   8.506 -0.1123 -0.0563  0.0341
  282POPC   GL2 3376   1.226  10.398   8.459 -0.0661 -0.0923 -0.1095
  282POPC   C1A 3377   1.510  10.298   8.040  0.2085  0.0362  0.2076
  282POPC   D2A 3378   1.441  10.330   7.548  0.2028  0.0603  0.0140
  282POPC   C3A 3379   1.730  10.474   7.165 -0.1274  0.1310 -0.2427
  282POPC   C4A 3380   1.943  10.815   6.994 -0.3167  0.4540  0.0934
  282POPC   C1B 3381   0.893  10.410   8.224 -0.0034 -0.0056  0.1527
  282POPC   C2B 3382   0.896  10.423   7.766  0.0258  0.0261 -0.1417
  282POPC   C3B 3383   0.759  10.271   7.330  0.1484 -0.0884 -0.2469
  282POPC   C4B 3384   0.419  10.005   7.186 -0.0723  0.2953 -0.0479
  283POPC   NC3 3385   4.428   6.505   9.826  0.0720  0.2555 -0.1367
  283POPC   PO4 3386   4.120   6.512   9.620 -0.1890 -0.3658  0.2731
  283POPC   GL1 3387   4.318   6.221   9.436 -0.1034 -0.2344  0.0257
  283POPC   GL2 3388   4.077   6.059   9.406  0.1239  0.2056  0.3539
  283POPC   C1A 3389   4.643   6.353   9.110 -0.0954 -0.2036  0.1183
  283POPC   D2A 3390   5.072   6.448   8.905  0.1606 -0.1682  0.3429
  283POPC   C3A 3391   5.192   6.831   8.706  0.0523 -0.0430 -0.0748
  283POPC   C4A 3392   5.615   6.948   8.530  0.0918 -0.1829 -0.0794
  283POPC   C1B 3393   4.290   5.961   9.033  0.1207  0.1487 -0.1371
  283POPC   C2B 3394   4.478   6.128   8.678  0.1633 -0.1633  0.1523
  283POPC   C3B 3395   4.696   5.979   8.349 -0.0611  0.0720  0.0935
  283POPC   C4B 3396   4.816   5.602   8.151  0.0769 -0.2971 -0.1508
  284POPC   NC3 3397  13.893   2.798  10.071  0.0748 -0.5995  0.0690
  284POPC   PO4 3398  13.983   2.402  10.119  0.0472  0.3274 -0.0211
  284POPC   GL1 3399  13.796   2.410   9.814  0.0420  0.3855  0.2237
  284POPC   GL2 3400  13.913   2.610   9.581  0.1925  0.3304 -0.1161
  284POPC   C1A 3401  13.458   2.336   9.532  0.2917  0.1825  0.3928
  284POPC   D2A 3402  13.272   2.378   9.092 -0.0383  0.2071 -0.1673
  284POPC   C3A 3403  13.066   2.587   8.760  0.0686 -0.2504  0.0422
  284POPC   C4A 3404  13.044   2.940   8.422 -0.0194 -0.1860 -0.0342
  284POPC   C1B 3405  13.499   2.822   9.456 -0.2194  0.3347 -0.2944
  284POPC   C2B 3406  13.162   2.832   9.143  0.0046 -0.0779  0.0179
  284POPC   C3B 3407  12.882   3.115   8.927 -0.2703 -0.1175 -0.1934
  284POPC   C4B 3408  12.477   3.059   8.627  0.0490 -0.2615 -0.2940
  285POPC   NC3 3409  13.414   9.841  10.208  0.2724  0.1143 -0.0079
  285POPC   PO4 3410  13.743   9.646  10.406  0.1605 -0.0362  0.1411
  285POPC   GL1 3411  13.446   9.407  10.134 -0.2772 -0.3127  0.0923
  285POPC   GL2 3412  13.744   9.259  10.108 -0.0615  0.0007 -0.3235
  285POPC   C1A 3413  13.161   9.398   9.783 -0.1227  0.2345 -0.2414
  285POPC   D2A 3414  12.735   9.382   9.607 -0.2696  0.4335  0.2455
  285POPC   C3A 3415  12.783   8.892   9.531 -0.1943  0.2420 -0.0713
  285POPC   C4A 3416  12.500   8.513   9.669  0.0870 -0.2036 -0.1486
  285POPC   C1B 3417  13.716   8.834   9.959 -0.0763  0.1794 -0.0633
  285POPC   C2B 3418  13.564   8.494   9.698 -0.3519 -0.1469 -0.1976
  285POPC   C3B 3419  13.343   8.471   9.315  0.3983 -0.1112  0.0853
  285POPC   C4B 3420  12.963   8.664   9.089 -0.4369  0.4158  0.1806
  286POPC   NC3 3421   1.599   1.680   8.790  0.2124  0.0388  0.1844
  286POPC   PO4 3422   1.225   1.613   8.621 -0.0150 -0.5194 -0.0327
  286POPC   GL1 3423   0.973   1.737   8.329 -0.1436  0.3118  0.0097
  286POPC   GL2 3424   0.748   1.835   8.497  0.0981 -0.1973 -0.0501
  286POPC   C1A 3425   0.967   1.530   7.913 -0.1412 -0.1062 -0.1601
  286POPC   D2A 3426   1.070   1.504   7.444 -0.0140 -0.1044  0.0562
  286POPC   C3A 3427   1.210   1.802   7.159 -0.0776 -0.2135 -0.1197
  286POPC   C4A 3428   1.563   2.065   7.123 -0.3581  0.0956  0.0578
  286POPC   C1B 3429   0.504   2.163   8.253  0.1244  0.0446 -0.0983
  286POPC   C2B 3430   0.497   2.181   7.811 -0.0346  0.2429 -0.1777
  286POPC   C3B 3431   0.349   2.177   7.375 -0.5094 -0.4309 -0.3971
  286POPC   C4B 3432   0.095   1.796   7.183  0.2644 -0.2665 -0.0793
  287POPC   NC3 3433  10.737  15.742   8.960 -0.1811 -0.1700  0.2786
  287POPC   PO4 3434  10.698  16.078   9.216 -0.1981  0.0856 -0.1382
  287POPC   GL1 3435  10.452  16.262   8.888  0.2676  0.0301 -0.0651
  287POPC   GL2 3436  10.567  16.148   8.638  0.1277  0.3382  0.2074
  287POPC   C1A 3437  10.490  16.657   8.689 -0.2164 -0.0888 -0.0042
  287POPC   D2A 3438  10.415  16.896   8.264  0.2830 -0.0096  0.2037
  287POPC   C3A 3439  10.369  17.336   8.195  0.4112  0.2348  0.2027
  287POPC   C4A 3440  10.373  17.689   7.914 -0.1782 -0.0890  0.2542
  287POPC   C1B 3441  10.517  15.952   8.282  0.0399 -0.0283  0.0963
  287POPC   C2B 3442  10.379  15.973   7.883 -0.3931 -0.1598 -0.1979
  287POPC   C3B 3443  10.146  16.007   7.544 -0.1318 -0.4535 -0.0571
  287POPC   C4B 3444   9.723  16.180   7.487 -0.0766 -0.3050 -0.2069
  288POPC   NC3 3445   4.809   6.058  13.411 -0.1478  0.1951 -0.2418
  288POPC   PO4 3446   5.109   6.008  13.619  0.1012  0.0062 -0.1378
  288POPC   GL1 3447   5.369   5.871  13.849 -0.1903  0.3914  0.4925
  288POPC   GL2 3448   5.222   5.851  14.065 -0.2364  0.0460 -0.2220
  288POPC   C1A 3449   5.678   6.138  14.074 -0.1016  0.0200  0.0337
  288POPC   D2A 3450   6.075   6.348  14.196  0.1290  0.0630  0.1161
  288POPC   C3A 3451   6.448   6.183  14.348 -0.1265 -0.0672  0.0305
  288POPC   C4A 3452   6.905   6.078  14.484  0.1503 -0.1209  0.0271
  288POPC   C1B 3453   5.486   5.877  14.469 -0.5220  0.1444 -0.3429
  288POPC   C2B 3454   5.708   5.683  14.869  0.0108 -0.2160  0.0495
  288POPC   C3B 3455   5.866   5.467  15.219 -0.3232 -0.0935  0.0131
  288POPC   C4B 3456   6.309   5.381  15.445  0.1111  0.0596 -0.1351
  289POPC   NC3 3457  13.299   3.642  13.545  0.1723 -0.1394 -0.1836
  289POPC   PO4 3458  13.580   3.699  13.823  0.0881 -0.0289 -0.2372
  289POPC   GL1 3459  13.318   3.862  14.061 -0.1373 -0.1308  0.1742
  289POPC   GL2 3460  13.379   4.137  13.831 -0.2759 -0.0086  0.1867
  289POPC   C1A 3461  13.110   3.821  14.460  0.0868 -0.1066 -0.0036
  289POPC   D2A 3462  12.859   4.127  14.685  0.2357 -0.1350 -0.0889
  289POPC   C3A 3463  12.605   4.213  15.038 -0.1219 -0.1860 -0.1186
  289POPC   C4A 3464  12.616   4.411  15.438  0.0750 -0.0975 -0.0524
  289POPC   C1B 3465  12.942   4.267  14.052  0.0357  0.4614 -0.0863
  289POPC   C2B 3466  12.511   4.207  14.224 -0.1257 -0.0112 -0.1517
  289POPC   C3B 3467  12.070   4.429  14.271  0.0183 -0.0966  0.2898
  289POPC   C4B 3468  11.969   4.892  14.401  0.0520  0.0685  0.4041
  290POPC   NC3 3469   4.100   9.262  15.545 -0.1343 -0.2284  0.3212
  290POPC   PO4 3470   4.414   9.100  15.567  0.1109  0.5474  0.0749
  290POPC   GL1 3471   4.572   9.088  15.962 -0.1086 -0.1799  0.0380
  290POPC   GL2 3472   4.762   8.857  15.888 -0.2046 -0.1517 -0.0203
  290POPC   C1A 3473   4.647   9.034  16.412  0.1215  0.2187  0.0605
  290POPC   D2A 3474   4.647   9.191  16.833 -0.0615  0.0855 -0.1484
  290POPC   C3A 3475   4.577   8.838  17.151  0.0897 -0.1152  0.2162
  290POPC   C4A 3476   4.376   8.509  17.216 -0.2848 -0.3623  0.0985
  290POPC   C1B 3477   5.017   8.809  16.202  0.0028 -0.1298 -0.1400
  290POPC   C2B 3478   5.236   8.735  16.660  0.1922  0.0842  0.2822
  290POPC   C3B 3479   5.541   8.752  16.953  0.0206  0.2849  0.2445
  290POPC   C4B 3480   5.942   8.858  17.011 -0.2698  0.1955 -0.2563
  291POPC   NC3 3481  13.960  11.372   9.270 -0.0777  0.1079 -0.0459
  291POPC   PO4 3482  14.272  11.247   9.016  0.2099 -0.0949  0.2761
  291POPC   GL1 3483  14.372  11.007   8.739 -0.0820  0.0275  0.0416
  291POPC   GL2 3484  14.588  11.084   8.533  0.3751 -0.1502 -0.0364
  291POPC   C1A 3485  14.322  10.674   8.373  0.1000 -0.0748  0.1020
  291POPC   D2A 3486  14.250  10.715   7.911 -0.0996 -0.1078  0.0518
  291POPC   C3A 3487  13.913  10.554   7.669 -0.2150  0.0390 -0.1533
  291POPC   C4A 3488  13.840  10.322   7.240 -0.0447  0.0521  0.3286
  291POPC   C1B 3489  14.512  11.109   8.114  0.0261 -0.3315 -0.0435
  291POPC   C2B 3490  14.190  11.220   7.854 -0.0675  0.1418 -0.0689
  291POPC   C3B 3491  14.041  11.059   7.387 -0.0335 -0.1789  0.0206
  291POPC   C4B 3492  13.968  11.028   6.964 -0.1486 -0.2690  0.1163
  292POPC   NC3 3493   8.829  15.243   9.887  0.1099  0.2935  0.0247
  292POPC   PO4 3494   8.801  15.199   9.464  0.2468  0.0960  0.4446
  292POPC   GL1 3495   8.868  15.478   9.194  0.1513 -0.1852  0.2081
  292POPC   GL2 3496   9.189  15.447   9.138 -0.1152  0.2284  0.2781
  292POPC   C1A 3497   8.931  15.456   8.717  0.0868 -0.1695  0.3837
  292POPC   D2A 3498   8.696  15.403   8.284 -0.0872 -0.0930 -0.0978
  292POPC   C3A 3499   8.683  15.812   8.069 -0.0181 -0.3506 -0.0552
  292POPC   C4A 3500   8.696  15.992   7.619  0.5227 -0.3220  0.1028
  292POPC   C1B 3501   9.363  15.738   8.839  0.1457  0.3463 -0.0557
  292POPC   C2B 3502   9.358  15.849   8.400 -0.1326  0.2092  0.0531
  292POPC   C3B 3503   9.586  16.070   8.071 -0.0121  0.0646 -0.0281
  292POPC   C4B 3504   9.944  16.276   7.943 -0.0156  0.2606 -0.1571
  293POPC   NC3 3505   7.593  14.174   8.723  0.0738  0.1466 -0.0956
  293POPC   PO4 3506   7.918  13.983   8.578  0.1546  0.1418  0.0657
  293POPC   GL1 3507   7.589  14.021   8.265  0.2548  0.0556  0.2736
  293POPC   GL2 3508   7.551  13.744   8.162 -0.2101 -0.0463  0.2397
  293POPC   C1A 3509   7.757  14.168   7.874  0.1467  0.0557 -0.0011
  293POPC   D2A 3510   7.982  14.003   7.519  0.0591 -0.2281 -0.1054
  293POPC   C3A 3511   8.347  14.089   7.262 -0.3941  0.2182  0.0606
  293POPC   C4A 3512   8.486  14.522   7.147  0.3034  0.1455  0.0332
  293POPC   C1B 3513   7.899  13.573   7.838 -0.0991 -0.0723  0.0188
  293POPC   C2B 3514   8.081  13.245   7.574 -0.0550 -0.1336 -0.1179
  293POPC   C3B 3515   8.075  13.138   7.092  0.3493 -0.0877 -0.3914
  293POPC   C4B 3516   7.977  13.175   6.623 -0.0919 -0.0535 -0.1006
  294POPC   NC3 3517  15.665   1.700   9.245  0.5814 -0.4370 -0.1824
  294POPC   PO4 3518  16.025   1.667   9.201 -0.1793  0.1170 -0.1553
  294POPC   GL1 3519  15.952   1.685   8.798 -0.0893  0.2139 -0.0218
  294POPC   GL2 3520  15.686   1.764   8.737 -0.0638 -0.1706 -0.2063
  294POPC   C1A 3521  16.028   1.886   8.356  0.1480  0.2748 -0.4116
  294POPC   D2A 3522  15.658   1.907   8.069 -0.4779  0.1557 -0.3721
  294POPC   C3A 3523  15.544   2.191   7.739  0.0945 -0.2908  0.2237
  294POPC   C4A 3524  15.230   2.275   7.376  0.0224 -0.0491  0.0683
  294POPC   C1B 3525  15.652   2.157   8.472 -0.2367 -0.0272  0.2857
  294POPC   C2B 3526  15.420   2.508   8.206  0.0118 -0.4826 -0.0193
  294POPC   C3B 3527  15.158   2.538   7.833  0.0488 -0.1758 -0.2022
  294POPC   C4B 3528  15.016   2.710   7.421 -0.0798 -0.1308 -0.1781
  295POPC   NC3 3529  15.049   7.509  10.031 -0.0335 -0.2979 -0.3299
  295POPC   PO4 3530  15.358   7.433   9.810  0.1075  0.0331  0.3503
  295POPC   GL1 3531  15.395   7.532   9.519 -0.0695 -0.3419 -0.3341
  295POPC   GL2 3532  15.710   7.493   9.425  0.2943 -0.2845 -0.1299
  295POPC   C1A 3533  15.125   7.610   9.157  0.1974 -0.1035 -0.0709
  295POPC   D2A 3534  14.737   7.766   8.984 -0.1187  0.1253 -0.1074
  295POPC   C3A 3535  14.414   7.738   8.604 -0.1503 -0.1111 -0.1462
  295POPC   C4A 3536  14.337   7.652   8.176  0.3291 -0.0061 -0.0352
  295POPC   C1B 3537  15.479   7.241   9.086  0.2264  0.0031  0.1042
  295POPC   C2B 3538  15.148   7.182   8.756  0.1089 -0.4103  0.2287
  295POPC   C3B 3539  14.776   7.277   8.542  0.2827  0.0328 -0.1033
  295POPC   C4B 3540  14.436   7.209   8.251 -0.2329  0.5387 -0.1533
  296POPC   NC3 3541  11.690  14.842   9.380 -0.0807 -0.3331  0.0429
  296POPC   PO4 3542  11.686  14.618   9.131  0.0833 -0.1013  0.1326
  296POPC   GL1 3543  11.375  14.744   8.848 -0.0403  0.0099 -0.1157
  296POPC   GL2 3544  11.104  14.669   8.673  0.1940 -0.4631  0.2255
  296POPC   C1A 3545  11.471  14.736   8.394  0.0653  0.2185  0.1005
  296POPC   D2A 3546  11.789  14.643   8.017  0.1114 -0.1653 -0.0964
  296POPC   C3A 3547  11.598  14.580   7.599 -0.0436  0.2010 -0.0770
  296POPC   C4A 3548  11.772  14.301   7.298 -0.0698 -0.2395  0.5473
  296POPC   C1B 3549  11.036  14.477   8.235 -0.2434 -0.2439 -0.0669
  296POPC   C2B 3550  10.980  14.581   7.837  0.0740  0.0432 -0.1593
  296POPC   C3B 3551  11.045  14.683   7.408 -0.3126 -0.2583  0.0213
  296POPC   C4B 3552  11.388  14.611   7.079  0.0307 -0.1669 -0.1217
  297POPC   NC3 3553   2.327   0.580   8.739 -0.1520 -0.1596 -0.0256
  297POPC   PO4 3554   2.701   0.421   8.803 -0.0095 -0.3117  0.2238
  297POPC   GL1 3555   2.708   0.554   8.409 -0.2336  0.0977 -0.1795
  297POPC   GL2 3556   2.998   0.522   8.342 -0.3285 -0.1708  0.1424
  297POPC   C1A 3557   2.602   0.351   8.036  0.1544  0.1019  0.0577
  297POPC   D2A 3558   2.568   0.220   7.609  0.2333  0.1378 -0.0593
  297POPC   C3A 3559   2.678   0.555   7.342 -0.1391 -0.0805 -0.0410
  297POPC   C4A 3560   2.345   0.810   7.288  0.3421 -0.0221 -0.0306
  297POPC   C1B 3561   3.257   0.643   7.965  0.0931 -0.1780 -0.0160
  297POPC   C2B 3562   3.559   0.564   7.610  0.3002 -0.0339  0.0402
  297POPC   C3B 3563   3.641   0.468   7.180  0.1816  0.0104  0.1670
  297POPC   C4B 3564   3.760   0.715   6.789  0.3615 -0.0231 -0.2048
  298POPC   NC3 3565   7.418   1.086  10.004  0.2803 -0.0170 -0.0314
  298POPC   PO4 3566   7.294   1.198  10.341  0.0793 -0.1196 -0.0710
  298POPC   GL1 3567   7.534   1.508  10.151  0.1148 -0.0958  0.2683
  298POPC   GL2 3568   7.722   1.485  10.423 -0.1648  0.0874  0.2018
  298POPC   C1A 3569   7.401   1.920  10.005  0.0500 -0.1388  0.1627
  298POPC   D2A 3570   7.499   2.385  10.008  0.1275 -0.0925 -0.1876
  298POPC   C3A 3571   7.962   2.518  10.007  0.0314  0.1732 -0.2570
  298POPC   C4A 3572   8.314   2.838  10.083  0.0862  0.0896  0.0667
  298POPC   C1B 3573   7.829   1.834  10.123  0.0009 -0.2254 -0.1818
  298POPC   C2B 3574   7.823   2.055   9.718  0.0784 -0.0389  0.0972
  298POPC   C3B 3575   8.007   2.380   9.498 -0.0237 -0.4090 -0.1427
  298POPC   C4B 3576   8.092   2.627   9.115  0.0886 -0.0316  0.1065
  299POPC   NC3 3577   1.907   5.434   9.437 -0.1736 -0.4398 -0.2012
  299POPC   PO4 3578   1.549   5.406   9.223 -0.1078 -0.0277  0.1107
  299POPC   GL1 3579   1.622   5.602   8.896  0.0237  0.1395  0.2548
  299POPC   GL2 3580   1.767   5.418   8.713  0.1634  0.0194  0.1550
  299POPC   C1A 3581   1.636   5.931   8.600 -0.3819 -0.0114  0.4040
  299POPC   D2A 3582   1.984   6.215   8.457  0.2402  0.1513 -0.1377
  299POPC   C3A 3583   1.986   6.333   8.000 -0.1599 -0.1215  0.0789
  299POPC   C4A 3584   1.907   6.570   7.632 -0.2325  0.0314  0.1427
  299POPC   C1B 3585   1.688   5.596   8.264  0.0102 -0.0893  0.3137
  299POPC   C2B 3586   1.557   5.939   7.982 -0.2536  0.0608  0.3240
  299POPC   C3B 3587   1.474   6.288   7.711  0.0303 -0.0403  0.0877
  299POPC   C4B 3588   1.501   6.557   7.335 -0.0013  0.1607 -0.1170
  300POPC   NC3 3589  11.718   0.711   9.717  0.0402 -0.1150  0.0215
  300POPC   PO4 3590  12.119   0.762   9.755  0.1508 -0.1021  0.3698
  300POPC   GL1 3591  12.140   0.954   9.420  0.0911  0.1815 -0.0411
  300POPC   GL2 3592  11.862   1.037   9.345 -0.1806  0.1017 -0.1291
  300POPC   C1A 3593  12.230   1.394   9.217  0.1730  0.0587 -0.0802
  300POPC   D2A 3594  12.186   1.817   9.101 -0.2615 -0.0305 -0.1397
  300POPC   C3A 3595  12.071   2.238   8.950 -0.1024 -0.0189  0.0741
  300POPC   C4A 3596  11.794   2.543   8.988  0.1599 -0.3759  0.3718
  300POPC   C1B 3597  11.848   1.309   8.924 -0.0167 -0.4694 -0.3927
  300POPC   C2B 3598  12.021   1.593   8.571  0.1812 -0.2413 -0.0548
  300POPC   C3B 3599  11.787   1.999   8.656  0.2279 -0.0170 -0.2467
  300POPC   C4B 3600  11.455   2.299   8.669  0.2233  0.0394 -0.1590
  301POPC   NC3 3601   4.417   5.535  12.925 -0.1608 -0.1056  0.3223
  301POPC   PO4 3602   4.649   5.619  13.193  0.1307  0.0818 -0.0973
  301POPC   GL1 3603   5.073   5.591  13.315  0.1415  0.1096 -0.0065
  301POPC   GL2 3604   5.253   5.755  13.253  0.0277 -0.1354  0.1139
  301POPC   C1A 3605   5.373   5.312  13.546  0.2661  0.1678  0.1529
  301POPC   D2A 3606   5.667   5.076  13.764  0.3404  0.2366 -0.0774
  301POPC   C3A 3607   5.559   4.693  13.925  0.1144 -0.0705  0.3719
  301POPC   C4A 3608   5.720   4.300  13.832 -0.1882 -0.0019  0.1854
  301POPC   C1B 3609   5.667   5.685  13.368 -0.2098 -0.1429  0.1749
  301POPC   C2B 3610   6.083   5.508  13.157 -0.2465  0.0955 -0.0221
  301POPC   C3B 3611   6.265   5.851  12.905  0.0351 -0.0484  0.2003
  301POPC   C4B 3612   6.437   5.813  12.521  0.1519 -0.0960 -0.0945
  302POPC   NC3 3613   4.472  16.011   8.815 -0.0055 -0.0848 -0.1004
  302POPC   PO4 3614   4.838  15.950   8.921 -0.1226 -0.1695  0.1282
  302POPC   GL1 3615   4.744  15.743   8.572  0.0716  0.0725  0.0599
  302POPC   GL2 3616   4.873  15.529   8.641 -0.0754 -0.0935  0.1489
  302POPC   C1A 3617   4.680  15.974   8.159 -0.2791  0.2824  0.0816
  302POPC   D2A 3618   4.703  16.210   7.747  0.1746 -0.2867  0.0184
  302POPC   C3A 3619   4.897  16.216   7.378  0.0721 -0.0315  0.2043
  302POPC   C4A 3620   5.341  16.138   7.309  0.0427 -0.1631 -0.0386
  302POPC   C1B 3621   5.105  15.703   8.261  0.3270 -0.0492 -0.0641
  302POPC   C2B 3622   5.279  15.931   7.939  0.0271 -0.1704 -0.2069
  302POPC   C3B 3623   5.607  16.116   7.737  0.1436  0.0192 -0.0182
  302POPC   C4B 3624   6.047  16.273   7.687  0.1490 -0.0645 -0.0185
  303POPC   NC3 3625   9.033   0.497  10.823  0.0362  0.1612 -0.1751
  303POPC   PO4 3626   9.389   0.575  10.709 -0.0933  0.3367  0.0887
  303POPC   GL1 3627   9.362   0.941  10.481 -0.2601 -0.0326  0.2686
  303POPC   GL2 3628   9.642   0.970  10.364 -0.0164  0.1823  0.0449
  303POPC   C1A 3629   9.193   1.373  10.289 -0.1938 -0.0620 -0.0575
  303POPC   D2A 3630   9.328   1.685   9.970 -0.0178  0.1087  0.1627
  303POPC   C3A 3631   9.192   2.056   9.696 -0.0073 -0.4182  0.0429
  303POPC   C4A 3632   9.069   2.323   9.404  0.0915  0.0690 -0.2472
  303POPC   C1B 3633   9.829   1.310  10.183  0.0022 -0.0993  0.2413
  303POPC   C2B 3634   9.949   1.676   9.957  0.4402  0.2487 -0.0714
  303POPC   C3B 3635   9.873   2.111   9.897 -0.2908 -0.2474 -0.1176
  303POPC   C4B 3636  10.130   2.495   9.650 -0.0459  0.4069 -0.3778
  304POPC   NC3 3637  15.850   3.446  15.468 -0.0413  0.0429  0.0460
  304POPC   PO4 3638  15.845   3.805  15.296 -0.1628  0.2003 -0.1643
  304POPC   GL1 3639  15.789   3.860  15.693 -0.0446 -0.5930  0.1431
  304POPC   GL2 3640  15.510   3.771  15.646  0.2653 -0.1947 -0.0565
  304POPC   C1A 3641  15.544   4.119  15.971  0.0709 -0.3328  0.0740
  304POPC   D2A 3642  15.419   4.170  16.375  0.2658 -0.1220  0.0106
  304POPC   C3A 3643  14.992   4.204  16.479  0.1239 -0.0784 -0.2441
  304POPC   C4A 3644  14.619   4.179  16.756 -0.2011  0.0758 -0.2617
  304POPC   C1B 3645  15.460   3.574  16.072  0.0773  0.0300 -0.0151
  304POPC   C2B 3646  15.427   3.669  16.493 -0.0958 -0.1484 -0.1266
  304POPC   C3B 3647  15.535   3.934  16.911  0.0115 -0.3468  0.0055
  304POPC   C4B 3648  15.637   4.387  17.119  0.0604 -0.1698  0.0483
  305POPC   NC3 3649   5.617   9.033  12.379  0.1373 -0.1640 -0.0086
  305POPC   PO4 3650   5.887   9.215  12.480 -0.0852  0.1758  0.1994
  305POPC   GL1 3651   6.197   8.858  12.609 -0.1964  0.0885 -0.2098
  305POPC   GL2 3652   6.363   8.730  12.353  0.2191 -0.0410 -0.0411
  305POPC   C1A 3653   6.522   8.913  12.941 -0.0856 -0.0505 -0.4664
  305POPC   D2A 3654   6.893   8.972  13.242 -0.1619  0.1033  0.1880
  305POPC   C3A 3655   7.272   8.734  13.244  0.1077  0.0388 -0.0147
  305POPC   C4A 3656   7.640   8.547  13.330 -0.0287 -0.2809  0.0800
  305POPC   C1B 3657   6.770   8.611  12.533 -0.1303 -0.2351  0.1866
  305POPC   C2B 3658   7.214   8.594  12.757  0.3392 -0.1445  0.2195
  305POPC   C3B 3659   7.582   8.305  12.797 -0.0019 -0.0230 -0.1611
  305POPC   C4B 3660   7.984   8.143  12.722 -0.1185  0.1998  0.0762
  306POPC   NC3 3661   1.517   3.265  15.305  0.2198  0.1862 -0.0937
  306POPC   PO4 3662   1.412   3.645  15.232 -0.0582  0.0007  0.2920
  306POPC   GL1 3663   1.135   3.853  15.615 -0.0505 -0.1092  0.0616
  306POPC   GL2 3664   0.838   3.776  15.748 -0.3913 -0.1869 -0.0426
  306POPC   C1A 3665   1.219   4.041  16.017  0.1374  0.1208  0.0340
  306POPC   D2A 3666   1.384   4.071  16.390  0.4069 -0.1086 -0.2352
  306POPC   C3A 3667   1.505   3.750  16.736  0.0070  0.2473  0.0544
  306POPC   C4A 3668   1.230   3.423  16.953 -0.0350 -0.0815  0.1811
  306POPC   C1B 3669   0.529   3.837  16.068 -0.0245 -0.0238  0.0728
  306POPC   C2B 3670   0.426   3.830  16.537  0.2891  0.0606  0.0591
  306POPC   C3B 3671   0.285   3.844  16.928  0.3003 -0.0299 -0.0373
  306POPC   C4B 3672   0.124   3.909  17.366 -0.1823 -0.0562 -0.2071
  307POPC   NC3 3673  15.056   5.979  15.085 -0.0121  0.0665 -0.4336
  307POPC   PO4 3674  15.332   6.136  15.296 -0.0033 -0.1392  0.2706
  307POPC   GL1 3675  15.419   6.026  15.626  0.1539 -0.1678 -0.1781
  307POPC   GL2 3676  15.406   6.275  15.776  0.2168 -0.0064 -0.1494
  307POPC   C1A 3677  15.157   5.744  15.917 -0.0433  0.1277 -0.2136
  307POPC   D2A 3678  15.053   5.399  16.251 -0.1250  0.2817  0.0479
  307POPC   C3A 3679  14.731   5.510  16.549  0.0315 -0.0565  0.0417
  307POPC   C4A 3680  14.596   5.672  17.046  0.2280  0.0175  0.2913
  307POPC   C1B 3681  15.319   6.111  16.155  0.0598 -0.1736 -0.1233
  307POPC   C2B 3682  15.176   5.799  16.499  0.0788  0.1293 -0.0226
  307POPC   C3B 3683  15.072   5.619  16.938 -0.0018  0.0367 -0.0734
  307POPC   C4B 3684  14.912   5.309  17.319  0.1699  0.0293 -0.0587
  308POPC   NC3 3685   8.674  10.912  12.869  0.0720  0.0030  0.4338
  308POPC   PO4 3686   8.582  10.730  13.188 -0.0381  0.3926 -0.0751
  308POPC   GL1 3687   8.651  10.291  13.180  0.0191 -0.2352  0.0616
  308POPC   GL2 3688   8.788  10.404  12.892 -0.0242  0.0216 -0.0442
  308POPC   C1A 3689   8.962   9.903  13.093  0.3473  0.2679  0.3236
  308POPC   D2A 3690   8.851   9.486  12.934  0.0772 -0.0290  0.0019
  308POPC   C3A 3691   9.104   9.122  13.125 -0.0601 -0.1297  0.0748
  308POPC   C4A 3692   9.429   8.868  13.378 -0.0237 -0.2915 -0.2594
  308POPC   C1B 3693   8.746  10.124  12.590  0.1122 -0.1130  0.0855
  308POPC   C2B 3694   8.648   9.720  12.387 -0.0303  0.0079  0.0325
  308POPC   C3B 3695   8.745   9.286  12.461  0.1437 -0.1751 -0.0472
  308POPC   C4B 3696   8.957   8.977  12.625  0.1227 -0.1112 -0.1135
  309POPC   NC3 3697   4.553   1.156  14.745  0.2793 -0.1768 -0.2021
  309POPC   PO4 3698   4.920   1.244  14.794  0.2040 -0.3085 -0.0080
  309POPC   GL1 3699   5.159   1.477  15.024 -0.2288  0.1737 -0.2891
  309POPC   GL2 3700   5.377   1.401  15.186  0.0740 -0.0426  0.0857
  309POPC   C1A 3701   5.099   1.786  15.372 -0.2795  0.2300  0.1827
  309POPC   D2A 3702   4.993   2.068  15.702 -0.1142 -0.0500 -0.0469
  309POPC   C3A 3703   4.774   2.084  16.117  0.1988  0.3371 -0.2606
  309POPC   C4A 3704   4.876   2.074  16.562 -0.0569 -0.1304 -0.0510
  309POPC   C1B 3705   5.602   1.673  15.465  0.1092 -0.1873 -0.0761
  309POPC   C2B 3706   5.554   1.785  15.905  0.0128 -0.0220  0.2090
  309POPC   C3B 3707   5.262   2.056  16.162 -0.1690  0.0457  0.1771
  309POPC   C4B 3708   5.055   2.455  16.172 -0.0620  0.1736  0.0324
  310POPC   NC3 3709  16.037  10.845   8.714  0.0888 -0.1926  0.3882
  310POPC   PO4 3710  15.750  11.088   8.853 -0.0028  0.2315 -0.0516
  310POPC   GL1 3711  15.544  10.901   8.582  0.1375 -0.0329 -0.2788
  310POPC   GL2 3712  15.723  10.826   8.305  0.0166  0.1949  0.0926
  310POPC   C1A 3713  15.324  10.561   8.330 -0.1217 -0.1404  0.1947
  310POPC   D2A 3714  15.171  10.293   7.990  0.0449 -0.0699  0.0729
  310POPC   C3A 3715  14.848   9.977   7.861 -0.1929  0.0530 -0.0032
  310POPC   C4A 3716  14.415   9.864   7.703 -0.1554 -0.1293 -0.1916
  310POPC   C1B 3717  16.015  10.412   8.282 -0.0055  0.0714  0.0113
  310POPC   C2B 3718  16.039  10.038   7.964 -0.1826 -0.1468 -0.0635
  310POPC   C3B 3719  15.922   9.821   7.551  0.0510 -0.2862 -0.0692
  310POPC   C4B 3720  15.874   9.725   7.083  0.1078  0.0133  0.0602
  311POPC   NC3 3721  15.114  10.004   9.229  0.1717  0.0789  0.0762
  311POPC   PO4 3722  15.007   9.606   9.350 -0.2534 -0.2917 -0.1417
  311POPC   GL1 3723  14.744   9.707   9.075 -0.0072 -0.0766  0.2401
  311POPC   GL2 3724  14.875   9.761   8.824 -0.0869  0.1655 -0.3137
  311POPC   C1A 3725  14.391   9.624   8.776 -0.0889 -0.2748  0.1082
  311POPC   D2A 3726  14.133   9.627   8.329 -0.5080 -0.1730  0.0361
  311POPC   C3A 3727  14.455   9.491   8.043  0.1082 -0.0200 -0.0518
  311POPC   C4A 3728  14.787   9.438   7.653  0.2602 -0.0200  0.5633
  311POPC   C1B 3729  15.073   9.590   8.428 -0.0774 -0.0499  0.0886
  311POPC   C2B 3730  15.290   9.805   8.151  0.0033  0.0107  0.4190
  311POPC   C3B 3731  15.497   9.952   7.818  0.3584  0.1334 -0.2353
  311POPC   C4B 3732  15.475   9.973   7.349  0.3911 -0.1484 -0.0578
  312POPC   NC3 3733   1.015   1.541  15.978 -0.0111  0.2174 -0.1530
  312POPC   PO4 3734   1.280   1.498  15.704  0.0162 -0.0195  0.1911
  312POPC   GL1 3735   1.279   1.914  15.893 -0.0608  0.4589  0.0766
  312POPC   GL2 3736   1.603   1.892  15.912  0.0077  0.0425 -0.1285
  312POPC   C1A 3737   1.121   1.834  16.382  0.2818  0.0069  0.0274
  312POPC   D2A 3738   1.097   1.858  16.794  0.0887  0.4311 -0.0080
  312POPC   C3A 3739   0.772   1.786  17.140 -0.2428 -0.1370 -0.2071
  312POPC   C4A 3740   0.949   1.655  17.574  0.0919 -0.0590 -0.0481
  312POPC   C1B 3741   1.605   1.931  16.397 -0.0495 -0.0579  0.0475
  312POPC   C2B 3742   1.507   2.169  16.787  0.1478 -0.1851 -0.0927
  312POPC   C3B 3743   1.348   1.989  17.181 -0.0113  0.0173 -0.0083
  312POPC   C4B 3744   1.507   2.043  17.622 -0.0769 -0.2427  0.2274
  313POPC   NC3 3745  14.557  12.841   8.082 -0.1881 -0.1982 -0.0581
  313POPC   PO4 3746  14.217  12.824   8.281 -0.2049 -0.1419  0.0348
  313POPC   GL1 3747  13.988  12.875   8.017  0.2192 -0.0565  0.1973
  313POPC   GL2 3748  14.191  12.679   7.790  0.0689  0.1028  0.1065
  313POPC   C1A 3749  13.931  13.130   7.652 -0.1166 -0.0916 -0.0945
  313POPC   D2A 3750  13.819  13.319   7.236  0.2334 -0.0129  0.2324
  313POPC   C3A 3751  13.873  13.257   6.731  0.1082 -0.1210  0.2034
  313POPC   C4A 3752  13.906  13.352   6.299 -0.2505  0.1204  0.3448
  313POPC   C1B 3753  14.168  12.358   7.435  0.1691  0.1304  0.2678
  313POPC   C2B 3754  14.351  11.964   7.322 -0.0667  0.0105  0.0091
  313POPC   C3B 3755  14.449  11.500   7.313 -0.1033 -0.1632  0.3648
  313POPC   C4B 3756  14.741  11.210   7.035  0.1078  0.0260 -0.2155
  314POPC   NC3 3757   9.281  12.487   9.533 -0.2144 -0.0454  0.0321
  314POPC   PO4 3758   9.557  12.274   9.346  0.0317  0.0524  0.1727
  314POPC   GL1 3759   9.766  12.154   9.031  0.1112 -0.0100  0.0089
  314POPC   GL2 3760   9.723  11.877   9.087  0.1422 -0.2239 -0.0256
  314POPC   C1A 3761   9.831  12.222   8.593 -0.1867  0.1533 -0.4787
  314POPC   D2A 3762   9.790  12.272   8.132 -0.1061  0.2905  0.2245
  314POPC   C3A 3763   9.692  12.011   7.829  0.1604  0.2288  0.0626
  314POPC   C4A 3764   9.537  11.717   7.487  0.3053 -0.0865 -0.0359
  314POPC   C1B 3765   9.905  11.659   8.734 -0.1560 -0.0564  0.0961
  314POPC   C2B 3766  10.051  11.442   8.371  0.1744  0.0514  0.1459
  314POPC   C3B 3767  10.007  11.110   8.058  0.1787 -0.3107  0.2012
  314POPC   C4B 3768  10.142  10.702   7.991 -0.0369 -0.0987  0.3724
  315POPC   NC3 3769   5.076   4.844  12.128  0.0359 -0.0332  0.0087
  315POPC   PO4 3770   4.770   4.680  12.308  0.2572 -0.1280 -0.1297
  315POPC   GL1 3771   5.128   4.511  12.401  0.0217  0.2086 -0.1402
  315POPC   GL2 3772   5.163   4.271  12.186  0.0865 -0.1286  0.2791
  315POPC   C1A 3773   5.610   4.630  12.413  0.0633  0.2641  0.1450
  315POPC   D2A 3774   6.009   4.811  12.625 -0.0844 -0.1937 -0.1119
  315POPC   C3A 3775   6.124   5.051  12.998 -0.0545 -0.0094  0.1127
  315POPC   C4A 3776   6.387   5.176  13.394 -0.0799 -0.1162  0.0747
  315POPC   C1B 3777   5.515   4.450  11.918 -0.2838 -0.4491 -0.1892
  315POPC   C2B 3778   5.815   4.760  11.645 -0.0069 -0.3446 -0.4695
  315POPC   C3B 3779   6.100   4.931  11.273 -0.0287 -0.0543 -0.0552
  315POPC   C4B 3780   6.274   5.362  11.239  0.0312 -0.1490  0.2561
  316POPC   NC3 3781   5.047   4.279  10.892 -0.2444  0.0531  0.0917
  316POPC   PO4 3782   4.844   4.357  10.504 -0.0043  0.2203  0.1977
  316POPC   GL1 3783   4.789   4.500  10.138 -0.0331  0.0095 -0.5200
  316POPC   GL2 3784   4.941   4.754  10.088 -0.0295  0.0850 -0.3016
  316POPC   C1A 3785   5.072   4.287   9.875 -0.0739  0.1082 -0.0710
  316POPC   D2A 3786   5.252   3.907   9.688 -0.1097 -0.3029  0.3731
  316POPC   C3A 3787   5.393   3.856   9.224  0.3549  0.1032 -0.3519
  316POPC   C4A 3788   5.447   3.836   8.768  0.2428  0.1951  0.0990
  316POPC   C1B 3789   5.341   4.732   9.856  0.1145 -0.0934 -0.0976
  316POPC   C2B 3790   5.659   4.773   9.511 -0.0157  0.1571 -0.1148
  316POPC   C3B 3791   6.029   4.622   9.251  0.3242  0.1317  0.0335
  316POPC   C4B 3792   6.236   4.627   8.865 -0.0708 -0.1255  0.3415
  317POPC   NC3 3793  12.338   1.964  12.552  0.4339 -0.2549  0.0024
  317POPC   PO4 3794  12.082   1.662  12.382 -0.2303  0.1544 -0.0743
  317POPC   GL1 3795  11.817   1.873  12.568 -0.0398  0.3929 -0.3562
  317POPC   GL2 3796  11.603   1.752  12.307  0.0415  0.1151  0.0735
  317POPC   C1A 3797  11.680   2.131  12.925 -0.0751  0.0306  0.0794
  317POPC   D2A 3798  11.296   2.359  13.040 -0.1157 -0.0464 -0.4062
  317POPC   C3A 3799  11.032   2.734  13.090  0.0292  0.1739  0.0196
  317POPC   C4A 3800  10.549   2.729  13.120  0.3831  0.0286 -0.0025
  317POPC   C1B 3801  11.424   2.229  12.431 -0.1137  0.0512  0.3062
  317POPC   C2B 3802  11.313   2.635  12.211  0.1564 -0.1771  0.0807
  317POPC   C3B 3803  10.906   2.884  12.143  0.2114  0.2030  0.3793
  317POPC   C4B 3804  10.489   3.014  12.068 -0.0414  0.0916  0.0438
  318POPC   NC3 3805  14.926   1.653   9.206  0.0077 -0.1307  0.3354
  318POPC   PO4 3806  15.211   1.591   8.915 -0.0720 -0.1812  0.1130
  318POPC   GL1 3807  15.014   1.617   8.653 -0.3957  0.0331  0.1361
  318POPC   GL2 3808  14.717   1.647   8.681 -0.2375 -0.0977 -0.0264
  318POPC   C1A 3809  14.837   1.303   8.339 -0.1191  0.1481  0.0894
  318POPC   D2A 3810  14.726   0.935   8.104  0.1149  0.1159 -0.1653
  318POPC   C3A 3811  14.453   0.974   7.758  0.3868 -0.0049 -0.0347
  318POPC   C4A 3812  14.158   0.939   7.406  0.2227 -0.1745 -0.4002
  318POPC   C1B 3813  14.800   1.756   8.236 -0.1826 -0.1810  0.1554
  318POPC   C2B 3814  14.596   1.769   7.842  0.1190 -0.2712  0.1176
  318POPC   C3B 3815  14.288   1.751   7.454 -0.0795 -0.0146  0.0206
  318POPC   C4B 3816  14.138   1.413   7.177 -0.0900 -0.3091  0.0364
  319POPC   NC3 3817  12.929   2.229  11.476  0.2112  0.0611 -0.0125
  319POPC   PO4 3818  12.845   1.927  11.275 -0.2398  0.1474  0.0845
  319POPC   GL1 3819  12.800   2.257  10.998 -0.2669 -0.1552 -0.2189
  319POPC   GL2 3820  12.568   2.434  11.241 -0.0746 -0.0506  0.3401
  319POPC   C1A 3821  12.653   2.627  10.744  0.0173  0.0839  0.4863
  319POPC   D2A 3822  12.584   3.001  10.453  0.0418  0.1588  0.1968
  319POPC   C3A 3823  12.576   3.342  10.155 -0.3432  0.0732  0.1615
  319POPC   C4A 3824  12.674   3.409   9.740 -0.2009 -0.2575  0.3889
  319POPC   C1B 3825  12.284   2.753  11.088  0.1314 -0.0627 -0.0150
  319POPC   C2B 3826  11.903   2.963  10.971  0.2347  0.0912 -0.1677
  319POPC   C3B 3827  11.740   3.360  10.884 -0.0865 -0.0416  0.1245
  319POPC   C4B 3828  11.431   3.609  10.689  0.3597 -0.0534  0.1121
  320POPC   NC3 3829  12.265   9.739  10.920  0.0031  0.2925 -0.0327
  320POPC   PO4 3830  12.367   9.716  11.310 -0.1412 -0.0922  0.0174
  320POPC   GL1 3831  12.221   9.364  11.271  0.2036 -0.0119 -0.2699
  320POPC   GL2 3832  11.915   9.488  11.236  0.1202  0.1316  0.2336
  320POPC   C1A 3833  12.056   8.930  11.366  0.0929 -0.0248  0.1188
  320POPC   D2A 3834  11.875   8.504  11.329 -0.1970  0.1156  0.1709
  320POPC   C3A 3835  11.691   8.229  11.673 -0.0805 -0.2633 -0.2713
  320POPC   C4A 3836  11.408   7.998  11.871  0.1071  0.1481 -0.1103
  320POPC   C1B 3837  11.929   9.143  10.929  0.1304 -0.2419 -0.0103
  320POPC   C2B 3838  11.869   8.650  10.855 -0.0005 -0.1389  0.1596
  320POPC   C3B 3839  11.552   8.346  10.869 -0.1027  0.0585 -0.0076
  320POPC   C4B 3840  11.110   8.148  10.864  0.2311 -0.1360 -0.1693
  321POPC   NC3 3841   5.189   4.158  11.704  0.2461  0.0940  0.0404
  321POPC   PO4 3842   5.055   4.275  11.351 -0.2137 -0.0314 -0.3615
  321POPC   GL1 3843   5.439   4.408  11.227 -0.2667 -0.1022 -0.3224
  321POPC   GL2 3844   5.615   4.245  11.389 -0.2943  0.2778  0.1855
  321POPC   C1A 3845   5.595   4.420  10.808  0.0441 -0.0673 -0.0561
  321POPC   D2A 3846   5.684   4.684  10.434 -0.1126  0.0128  0.1120
  321POPC   C3A 3847   5.856   4.789  10.018 -0.4013  0.1716  0.0643
  321POPC   C4A 3848   6.156   4.951   9.656 -0.3531  0.1852 -0.2482
  321POPC   C1B 3849   5.912   4.511  11.134  0.2269 -0.0084 -0.3140
  321POPC   C2B 3850   6.306   4.602  10.925  0.0924 -0.0850  0.0371
  321POPC   C3B 3851   6.705   4.443  10.995 -0.0516  0.1916  0.4202
  321POPC   C4B 3852   7.144   4.293  10.928  0.0039  0.1082  0.0211
  322POPC   NC3 3853  11.404   0.349  14.871  0.2302  0.4991  0.1415
  322POPC   PO4 3854  11.387  -0.007  15.007 -0.3112  0.0641  0.0578
  322POPC   GL1 3855  11.393   0.163  15.348 -0.1150 -0.3077 -0.0371
  322POPC   GL2 3856  11.446   0.091  15.634 -0.2089  0.0387 -0.2858
  322POPC   C1A 3857  11.111   0.437  15.533  0.0417 -0.0447 -0.2213
  322POPC   D2A 3858  10.742   0.675  15.658 -0.1664  0.0786  0.0031
  322POPC   C3A 3859  10.894   1.057  15.876 -0.0228  0.1974  0.0833
  322POPC   C4A 3860  10.967   1.477  16.009 -0.0317  0.0467  0.2158
  322POPC   C1B 3861  11.422   0.425  15.956  0.1690  0.0739  0.0752
  322POPC   C2B 3862  11.312   0.818  16.173  0.1252 -0.1967  0.1465
  322POPC   C3B 3863  11.026   1.047  16.390  0.0751 -0.1147  0.2038
  322POPC   C4B 3864  10.684   1.400  16.414 -0.1362 -0.0697 -0.0838
  323POPC   NC3 3865  11.680  15.693   9.416  0.2500  0.3335 -0.3105
  323POPC   PO4 3866  11.651  15.554   9.051  0.4353  0.0304 -0.0586
  323POPC   GL1 3867  11.745  15.844   8.706  0.0410  0.0305  0.2360
  323POPC   GL2 3868  11.737  15.585   8.476 -0.0713 -0.3361  0.0080
  323POPC   C1A 3869  11.776  16.105   8.351 -0.3220 -0.0011  0.0425
  323POPC   D2A 3870  11.487  16.261   7.984  0.1253 -0.1222  0.0373
  323POPC   C3A 3871  11.564  16.430   7.567 -0.3299 -0.0565 -0.0050
  323POPC   C4A 3872  11.625  16.249   7.147 -0.2838  0.1389 -0.3407
  323POPC   C1B 3873  11.391  15.745   8.217 -0.0524  0.1437  0.3899
  323POPC   C2B 3874  11.309  15.860   7.759  0.2725  0.0631  0.2269
  323POPC   C3B 3875  11.173  16.061   7.376 -0.1437 -0.2215 -0.2360
  323POPC   C4B 3876  10.868  16.215   7.087  0.0889 -0.1058 -0.1165
  324POPC   NC3 3877   5.084   5.236  12.481  0.1096  0.0261 -0.1795
  324POPC   PO4 3878   4.884   5.269  12.128  0.1469 -0.1547 -0.3282
  324POPC   GL1 3879   5.243   5.241  11.899 -0.1810  0.1836  0.1064
  324POPC   GL2 3880   5.323   5.439  11.639  0.0080  0.1955  0.1964
  324POPC   C1A 3881   5.661   5.120  12.030 -0.2180 -0.2013 -0.0799
  324POPC   D2A 3882   6.050   5.074  12.229 -0.2116 -0.2684 -0.2664
  324POPC   C3A 3883   6.299   5.263  12.564  0.0230 -0.3304  0.2610
  324POPC   C4A 3884   6.573   5.377  12.909 -0.0869  0.1881 -0.1433
  324POPC   C1B 3885   5.730   5.261  11.526  0.2563 -0.3848  0.0864
  324POPC   C2B 3886   6.143   5.259  11.664  0.0547 -0.2194 -0.1717
  324POPC   C3B 3887   6.583   5.062  11.781  0.0541  0.2852  0.1368
  324POPC   C4B 3888   6.970   5.037  11.539 -0.0306 -0.0951 -0.2898
  325POPC   NC3 3889   1.777  14.467   7.939  0.1090  0.0116 -0.0674
  325POPC   PO4 3890   2.171  14.398   7.996  0.1291 -0.0508 -0.6532
  325POPC   GL1 3891   2.306  14.505   7.641 -0.0074  0.0372  0.0215
  325POPC   GL2 3892   2.485  14.218   7.599 -0.2327 -0.1095 -0.1198
  325POPC   C1A 3893   2.719  14.729   7.627  0.4311  0.0623 -0.2218
  325POPC   D2A 3894   3.136  14.918   7.453  0.0279 -0.4815  0.1228
  325POPC   C3A 3895   3.236  15.033   6.984  0.0126  0.1284 -0.2530
  325POPC   C4A 3896   3.354  14.899   6.546 -0.0417  0.1600 -0.0423
  325POPC   C1B 3897   2.498  14.439   7.202 -0.0601 -0.0115 -0.0543
  325POPC   C2B 3898   2.366  14.652   6.817  0.0606  0.1315  0.2119
  325POPC   C3B 3899   2.149  14.560   6.425  0.0457 -0.0972 -0.0719
  325POPC   C4B 3900   2.284  14.369   5.967 -0.0928 -0.0460 -0.0529
  326POPC   NC3 3901   3.199   4.497   9.686 -0.0183  0.0150  0.1255
  326POPC   PO4 3902   2.946   4.540   9.396  0.1390 -0.0017  0.1393
  326POPC   GL1 3903   2.922   4.720   9.039  0.1467  0.0712  0.2350
  326POPC   GL2 3904   3.137   4.472   8.918 -0.1007 -0.0855 -0.0022
  326POPC   C1A 3905   2.819   4.676   8.604  0.1049 -0.0619 -0.0069
  326POPC   D2A 3906   2.527   4.865   8.272  0.2787 -0.0018  0.0493
  326POPC   C3A 3907   2.555   4.863   7.782  0.0476  0.0244  0.3740
  326POPC   C4A 3908   2.582   4.950   7.286 -0.0410  0.1289  0.0305
  326POPC   C1B 3909   2.929   4.171   8.617 -0.1628 -0.0308  0.0692
  326POPC   C2B 3910   2.736   3.969   8.226 -0.0006  0.0113  0.1833
  326POPC   C3B 3911   2.856   4.087   7.770 -0.1247  0.1785 -0.2359
  326POPC   C4B 3912   3.134   4.110   7.417  0.0771 -0.1477 -0.1813
  327POPC   NC3 3913  15.767   4.711  15.064  0.2546 -0.1480  0.1014
  327POPC   PO4 3914  15.444   4.447  15.005 -0.1422  0.0572  0.2159
  327POPC   GL1 3915  15.214   4.505  15.256  0.0242  0.3086  0.1196
  327POPC   GL2 3916  15.311   4.666  15.494 -0.2146 -0.1793 -0.1062
  327POPC   C1A 3917  15.060   4.172  15.590 -0.1483 -0.1671 -0.2613
  327POPC   D2A 3918  15.061   3.938  16.036  0.3220 -0.1218  0.0301
  327POPC   C3A 3919  14.698   3.852  16.343 -0.1717  0.1137 -0.3023
  327POPC   C4A 3920  14.378   3.669  16.631 -0.2040 -0.1069 -0.0548
  327POPC   C1B 3921  15.164   4.606  15.903 -0.0828  0.1763  0.1333
  327POPC   C2B 3922  15.072   4.676  16.332 -0.0418  0.2048 -0.1728
  327POPC   C3B 3923  14.795   4.653  16.708 -0.0014 -0.2267 -0.0376
  327POPC   C4B 3924  14.597   4.516  17.096 -0.5466  0.0597 -0.1164
  328POPC   NC3 3925   9.186  14.245   9.736 -0.1904 -0.0968 -0.1205
  328POPC   PO4 3926   9.161  14.285   9.292 -0.1218 -0.1405 -0.2272
  328POPC   GL1 3927   9.078  14.364   8.880 -0.1072  0.2480  0.1511
  328POPC   GL2 3928   9.216  14.421   8.627  0.3090  0.0277  0.2146
  328POPC   C1A 3929   8.691  14.566   8.672  0.3981  0.1971  0.4766
  328POPC   D2A 3930   8.654  14.984   8.493  0.0414  0.0511  0.1243
  328POPC   C3A 3931   8.468  15.305   8.769 -0.3331  0.0490 -0.2463
  328POPC   C4A 3932   8.431  15.703   8.622 -0.0652 -0.4077 -0.1559
  328POPC   C1B 3933   9.102  14.836   8.343  0.0556  0.0643  0.0654
  328POPC   C2B 3934   8.991  15.091   7.950 -0.1828  0.1381 -0.0466
  328POPC   C3B 3935   9.079  15.097   7.515 -0.0334 -0.0477 -0.0044
  328POPC   C4B 3936   8.923  14.816   7.187 -0.0131  0.1906 -0.0285
  329POPC   NC3 3937  11.093  14.074  16.259  0.0323 -0.0391 -0.0138
  329POPC   PO4 3938  11.117  14.431  16.036  0.0257 -0.1651 -0.1287
  329POPC   GL1 3939  11.160  14.587  16.425  0.0502  0.1457  0.4052
  329POPC   GL2 3940  10.906  14.607  16.458 -0.0900  0.0156  0.1326
  329POPC   C1A 3941  11.208  14.806  16.789  0.1323 -0.3032 -0.2520
  329POPC   D2A 3942  11.119  14.907  17.247 -0.0415  0.0042  0.1041
  329POPC   C3A 3943  11.546  15.026  17.457  0.0494  0.3007  0.1419
  329POPC   C4A 3944  11.953  15.156  17.486  0.3201 -0.0473 -0.4678
  329POPC   C1B 3945  10.698  14.687  16.883  0.0760 -0.2555 -0.1457
  329POPC   C2B 3946  10.620  14.816  17.360 -0.1291 -0.0275 -0.1022
  329POPC   C3B 3947  10.743  14.888  17.790  0.0652 -0.0729  0.2568
  329POPC   C4B 3948  10.719  15.215  18.162  0.2750  0.2610 -0.3094
  330POPC   NC3 3949  14.500   8.725  10.967 -0.4210 -0.0451  0.2956
  330POPC   PO4 3950  14.157   8.834  10.992 -0.0607  0.3369  0.2746
  330POPC   GL1 3951  14.129   8.568  10.727  0.0764  0.1797 -0.1387
  330POPC   GL2 3952  13.910   8.621  10.540  0.1763 -0.0277  0.0172
  330POPC   C1A 3953  14.093   8.151  10.542 -0.2474 -0.3302  0.1336
  330POPC   D2A 3954  13.963   7.696  10.417 -0.0768  0.1977  0.1507
  330POPC   C3A 3955  13.557   7.741  10.209  0.3465 -0.1608  0.0282
  330POPC   C4A 3956  13.163   7.887  10.021 -0.1359 -0.0071  0.0256
  330POPC   C1B 3957  13.707   8.354  10.174  0.0258  0.1502 -0.1771
  330POPC   C2B 3958  13.620   8.060   9.848  0.0080  0.1669 -0.0884
  330POPC   C3B 3959  13.319   8.035   9.572  0.5114 -0.2925  0.0370
  330POPC   C4B 3960  12.947   7.759   9.495  0.3199  0.1778  0.0741
  331POPC   NC3 3961  10.179  13.402   8.738  0.1205 -0.2770  0.3565
  331POPC   PO4 3962  10.014  13.788   8.723  0.2530  0.0227 -0.1776
  331POPC   GL1 3963  10.208  13.857   8.428 -0.2115 -0.0720  0.1392
  331POPC   GL2 3964  10.335  13.570   8.295  0.0930  0.0080 -0.1132
  331POPC   C1A 3965  10.159  13.885   7.951  0.0411 -0.1975  0.1890
  331POPC   D2A 3966  10.412  13.929   7.551 -0.3603  0.1082  0.1742
  331POPC   C3A 3967  10.519  13.588   7.204  0.2499 -0.2705 -0.2332
  331POPC   C4A 3968  10.371  13.510   6.797 -0.1733  0.0085  0.0977
  331POPC   C1B 3969  10.298  13.401   7.887 -0.0246 -0.0244 -0.0039
  331POPC   C2B 3970  10.070  13.476   7.517 -0.0499  0.0893 -0.1027
  331POPC   C3B 3971  10.015  13.250   7.148  0.1461 -0.4095 -0.0101
  331POPC   C4B 3972  10.275  12.986   6.806 -0.2592  0.0938  0.1897
  332POPC   NC3 3973   4.062   4.192   9.568 -0.0351 -0.0986  0.1705
  332POPC   PO4 3974   3.973   3.820   9.464 -0.0373 -0.2641  0.3888
  332POPC   GL1 3975   4.317   3.681   9.276 -0.3018 -0.0311  0.0132
  332POPC   GL2 3976   4.368   3.932   9.175 -0.0723  0.0205  0.0033
  332POPC   C1A 3977   4.466   3.302   9.042 -0.0351  0.1922 -0.0810
  332POPC   D2A 3978   4.732   3.115   8.692  0.0431  0.0636 -0.0524
  332POPC   C3A 3979   5.026   3.142   8.374  0.3058 -0.2241  0.2891
  332POPC   C4A 3980   5.449   3.277   8.230  0.1341  0.0735  0.1137
  332POPC   C1B 3981   4.520   3.817   8.727  0.1828 -0.0446 -0.2447
  332POPC   C2B 3982   4.686   3.609   8.312  0.0646 -0.1205  0.2072
  332POPC   C3B 3983   4.736   3.339   7.970  0.1746  0.4651 -0.0506
  332POPC   C4B 3984   4.395   3.143   7.689  0.0173 -0.2324 -0.0047
  333POPC   NC3 3985   4.812  13.743   8.491 -0.1900  0.1693 -0.3107
  333POPC   PO4 3986   4.677  14.118   8.499 -0.2615  0.1489  0.0348
  333POPC   GL1 3987   4.781  14.334   8.222  0.2924 -0.1191 -0.0883
  333POPC   GL2 3988   5.027  14.463   8.297 -0.0487  0.0695  0.0690
  333POPC   C1A 3989   4.649  14.297   7.775  0.4522 -0.1386  0.0028
  333POPC   D2A 3990   4.403  14.390   7.379  0.1633  0.3046 -0.0001
  333POPC   C3A 3991   4.110  14.730   7.211 -0.0475  0.1488 -0.0103
  333POPC   C4A 3992   3.742  14.702   6.880  0.4336  0.1229 -0.2181
  333POPC   C1B 3993   5.090  14.485   7.852  0.1245  0.3212 -0.2571
  333POPC   C2B 3994   5.193  14.426   7.420 -0.0417 -0.0587 -0.3346
  333POPC   C3B 3995   5.269  14.584   7.007  0.1482 -0.4584 -0.3829
  333POPC   C4B 3996   5.211  14.502   6.595 -0.1928  0.0367 -0.0344
  334POPC   NC3 3997  15.658   2.675   9.789  0.1546 -0.0108 -0.0987
  334POPC   PO4 3998  15.614   2.522   9.389  0.3701 -0.0952 -0.2120
  334POPC   GL1 3999  15.741   2.700   9.042  0.2445 -0.1647  0.0465
  334POPC   GL2 4000  15.838   3.023   8.963 -0.2163 -0.3794 -0.1061
  334POPC   C1A 4001  15.659   2.715   8.567 -0.0827 -0.0747  0.4138
  334POPC   D2A 4002  15.586   3.044   8.200 -0.0028 -0.0557  0.2405
  334POPC   C3A 4003  15.581   2.813   7.776 -0.0857 -0.0015 -0.1982
  334POPC   C4A 4004  15.559   2.670   7.342 -0.0303 -0.0724 -0.0834
  334POPC   C1B 4005  15.560   3.280   8.685 -0.1410  0.2034 -0.1289
  334POPC   C2B 4006  15.454   3.495   8.288 -0.1542  0.0282  0.1855
  334POPC   C3B 4007  15.260   3.644   7.877  0.2220 -0.0868 -0.2824
  334POPC   C4B 4008  15.253   3.797   7.429  0.0577 -0.2977  0.2156
  335POPC   NC3 4009   5.814   1.879  10.272 -0.0415  0.3039  0.2587
  335POPC   PO4 4010   6.148   1.959  10.113  0.1556 -0.0727 -0.0169
  335POPC   GL1 4011   6.395   1.893   9.837  0.0817 -0.4363 -0.1143
  335POPC   GL2 4012   6.324   2.137   9.656  0.2075 -0.0526  0.1393
  335POPC   C1A 4013   6.750   1.816   9.578 -0.2253  0.0914 -0.2692
  335POPC   D2A 4014   6.918   1.693   9.196  0.0907 -0.0161  0.2717
  335POPC   C3A 4015   6.624   1.956   8.996 -0.3693 -0.0462  0.4850
  335POPC   C4A 4016   6.616   2.242   8.591 -0.4457  0.1082  0.0264
  335POPC   C1B 4017   6.571   2.334   9.306 -0.0925 -0.1363 -0.3056
  335POPC   C2B 4018   6.670   2.781   9.375 -0.0532 -0.1866 -0.0891
  335POPC   C3B 4019   6.884   3.207   9.316  0.1875 -0.0462 -0.1368
  335POPC   C4B 4020   7.080   3.568   9.224 -0.0021 -0.0933 -0.0253
  336POPC   NC3 4021   1.633  12.565   8.604  0.3170  0.1416 -0.1590
  336POPC   PO4 4022   1.565  12.349   8.240 -0.0095  0.1479 -0.0027
  336POPC   GL1 4023   1.417  12.162   7.955 -0.4184 -0.0887  0.0003
  336POPC   GL2 4024   1.502  11.831   7.898  0.0206 -0.2414  0.0461
  336POPC   C1A 4025   1.147  12.065   7.560  0.2963  0.1681 -0.0080
  336POPC   D2A 4026   0.976  11.713   7.328 -0.1079 -0.0339 -0.0717
  336POPC   C3A 4027   0.996  11.687   6.903 -0.2210 -0.3060  0.0602
  336POPC   C4A 4028   1.261  11.569   6.496 -0.1428  0.1510 -0.1197
  336POPC   C1B 4029   1.559  11.571   7.514  0.0221  0.0297 -0.1738
  336POPC   C2B 4030   1.537  11.547   7.040 -0.4111  0.3091  0.0578
  336POPC   C3B 4031   1.657  11.235   6.690  0.0465 -0.0317  0.2175
  336POPC   C4B 4032   1.739  10.812   6.535 -0.0174  0.0910 -0.1879
  337POPC   NC3 4033   5.267   3.851  12.467 -0.2270 -0.0805 -0.0986
  337POPC   PO4 4034   5.156   3.794  12.084 -0.2214 -0.1814  0.3738
  337POPC   GL1 4035   5.573   3.925  12.118 -0.3291  0.2113 -0.0785
  337POPC   GL2 4036   5.635   3.927  11.807  0.3265 -0.0058  0.2458
  337POPC   C1A 4037   5.874   4.170  12.423 -0.0170 -0.0565  0.0083
  337POPC   D2A 4038   6.001   4.119  12.863 -0.0499 -0.1407 -0.2997
  337POPC   C3A 4039   6.373   4.337  13.045  0.1192  0.1222 -0.2279
  337POPC   C4A 4040   6.817   4.472  13.062 -0.4105  0.2705 -0.2935
  337POPC   C1B 4041   5.962   4.248  11.868 -0.2362 -0.0646 -0.0613
  337POPC   C2B 4042   6.096   4.568  12.157 -0.1214 -0.0232 -0.1169
  337POPC   C3B 4043   6.477   4.810  12.303 -0.1483 -0.3083 -0.1882
  337POPC   C4B 4044   6.798   5.101  12.524  0.0976 -0.1872  0.0269
  338POPC   NC3 4045  14.822   4.813  13.795 -0.0763  0.3047 -0.0024
  338POPC   PO4 4046  14.581   4.863  14.104 -0.1129  0.0594  0.1049
  338POPC   GL1 4047  14.317   4.845  14.335 -0.0086  0.0182 -0.4710
  338POPC   GL2 4048  14.403   4.920  14.566 -0.0452  0.2978  0.0798
  338POPC   C1A 4049  13.820   4.760  14.280 -0.1665 -0.1766 -0.1260
  338POPC   D2A 4050  13.724   4.429  14.570  0.0093 -0.0744  0.1466
  338POPC   C3A 4051  13.283   4.284  14.415  0.2172  0.2623  0.0305
  338POPC   C4A 4052  12.924   4.567  14.394 -0.1597 -0.3237 -0.2864
  338POPC   C1B 4053  13.999   4.839  14.784 -0.2860 -0.1707 -0.0471
  338POPC   C2B 4054  13.618   5.018  14.990  0.0258 -0.1673  0.0922
  338POPC   C3B 4055  13.221   5.192  15.147  0.0081 -0.2088 -0.3424
  338POPC   C4B 4056  13.103   5.549  15.441  0.0707  0.0746  0.1490
  339POPC   NC3 4057   8.482   1.151  11.403  0.0611  0.1453  0.0105
  339POPC   PO4 4058   8.830   1.169  11.599 -0.1039 -0.1496  0.3192
  339POPC   GL1 4059   8.616   1.507  11.701  0.4149 -0.4625 -0.0270
  339POPC   GL2 4060   8.597   1.652  11.405  0.1273 -0.0968 -0.3682
  339POPC   C1A 4061   8.652   1.938  11.817 -0.0300 -0.3349  0.1943
  339POPC   D2A 4062   8.853   2.299  11.983  0.1827  0.1802  0.0019
  339POPC   C3A 4063   9.174   2.472  12.135 -0.1240  0.0140  0.0258
  339POPC   C4A 4064   9.495   2.834  12.101  0.0003 -0.3986  0.0261
  339POPC   C1B 4065   8.747   2.028  11.276 -0.1164  0.3736 -0.1417
  339POPC   C2B 4066   8.900   2.458  11.339  0.1644  0.1429 -0.0117
  339POPC   C3B 4067   8.997   2.929  11.314 -0.2451 -0.0514  0.0407
  339POPC   C4B 4068   9.100   3.260  11.068  0.1303 -0.1522  0.3493
  340POPC   NC3 4069   0.825   8.628   9.176 -0.1563  0.1319  0.0616
  340POPC   PO4 4070   1.219   8.574   9.361 -0.0443  0.1952 -0.2797
  340POPC   GL1 4071   1.388   8.373   9.062 -0.1619  0.2581  0.0375
  340POPC   GL2 4072   1.116   8.313   8.918 -0.0495 -0.1584  0.3588
  340POPC   C1A 4073   1.528   8.294   8.627 -0.0072  0.3009 -0.0775
  340POPC   D2A 4074   1.619   8.406   8.216  0.2535  0.1951  0.1083
  340POPC   C3A 4075   1.764   8.171   7.827 -0.0503 -0.0628 -0.0438
  340POPC   C4A 4076   1.807   8.101   7.434 -0.0093  0.0061  0.2613
  340POPC   C1B 4077   0.993   8.181   8.462  0.1975  0.0224 -0.0197
  340POPC   C2B 4078   1.136   7.915   8.104 -0.0325 -0.1130 -0.0350
  340POPC   C3B 4079   0.966   7.767   7.711 -0.1044 -0.1978 -0.2179
  340POPC   C4B 4080   0.606   7.959   7.421  0.2952 -0.2582  0.3562
  341POPC   NC3 4081   0.205   0.668   9.101  0.1364 -0.2497  0.0516
  341POPC   PO4 4082   0.230   0.618   8.709  0.1887  0.1839 -0.0400
  341POPC   GL1 4083   0.088   0.759   8.409 -0.0617 -0.4516 -0.1845
  341POPC   GL2 4084  -0.052   0.939   8.442  0.1790 -0.3310  0.0976
  341POPC   C1A 4085   0.070   0.600   7.967 -0.2656 -0.1951 -0.0328
  341POPC   D2A 4086   0.101   0.430   7.548 -0.0365  0.0576  0.1820
  341POPC   C3A 4087   0.277   0.743   7.243  0.0659 -0.0189 -0.0319
  341POPC   C4A 4088   0.513   0.656   6.883 -0.0786  0.0586 -0.3956
  341POPC   C1B 4089  -0.246   1.099   8.034 -0.0241 -0.0882 -0.0493
  341POPC   C2B 4090  -0.445   1.165   7.601  0.0587 -0.1450  0.0509
  341POPC   C3B 4091  -0.548   1.182   7.095 -0.0940 -0.0278  0.0667
  341POPC   C4B 4092  -0.306   0.975   6.660  0.1293 -0.2539  0.0235
  342POPC   NC3 4093   1.313   1.205   8.283  0.1858 -0.0895 -0.2326
  342POPC   PO4 4094   1.588   1.245   8.547  0.1078  0.2226  0.2906
  342POPC   GL1 4095   1.646   1.504   8.285 -0.1787  0.0837 -0.2849
  342POPC   GL2 4096   1.851   1.723   8.299  0.1209 -0.0495  0.0702
  342POPC   C1A 4097   1.457   1.565   7.878  0.3251  0.1565 -0.1027
  342POPC   D2A 4098   1.581   1.771   7.507 -0.0098 -0.2361  0.0925
  342POPC   C3A 4099   1.801   1.572   7.142  0.4958 -0.1927  0.2197
  342POPC   C4A 4100   2.044   1.392   6.788 -0.0281 -0.0912 -0.0197
  342POPC   C1B 4101   1.949   1.840   7.880  0.1073 -0.2227 -0.0017
  342POPC   C2B 4102   2.074   1.932   7.387  0.0466 -0.1118  0.0896
  342POPC   C3B 4103   2.371   2.223   7.241  0.1195 -0.1700 -0.0616
  342POPC   C4B 4104   2.651   2.187   6.883  0.0510 -0.2771 -0.3844
  343POPC   NC3 4105   7.677  15.836   9.414 -0.1105  0.3636  0.0793
  343POPC   PO4 4106   7.399  15.992   9.174 -0.0297  0.0714  0.0680
  343POPC   GL1 4107   7.356  15.994   8.767  0.2504  0.0005  0.1525
  343POPC   GL2 4108   7.054  16.136   8.773  0.1415 -0.1556  0.3844
  343POPC   C1A 4109   7.454  16.338   8.421  0.0520  0.0007 -0.3555
  343POPC   D2A 4110   7.492  16.458   7.961  0.0676  0.0660 -0.0558
  343POPC   C3A 4111   7.555  16.014   7.817 -0.3518  0.3515 -0.3653
  343POPC   C4A 4112   7.729  15.601   7.750 -0.2590 -0.1562  0.1054
  343POPC   C1B 4113   6.932  16.278   8.364  0.2993  0.0981 -0.0596
  343POPC   C2B 4114   6.800  16.544   7.962 -0.2447 -0.1155 -0.0834
  343POPC   C3B 4115   6.669  16.753   7.539  0.4685 -0.3663 -0.0935
  343POPC   C4B 4116   6.524  16.714   7.091 -0.0390  0.2412 -0.1702
  344POPC   NC3 4117   5.601  14.514   8.618 -0.1697 -0.1495  0.2471
  344POPC   PO4 4118   5.958  14.369   8.607 -0.4249  0.2277  0.3207
  344POPC   GL1 4119   6.000  14.308   8.240 -0.1024 -0.1350  0.0876
  344POPC   GL2 4120   5.866  14.578   8.142 -0.0584 -0.0611 -0.1200
  344POPC   C1A 4121   6.160  14.269   7.837 -0.4108 -0.0275 -0.1035
  344POPC   D2A 4122   6.393  14.355   7.439 -0.0163  0.0605 -0.2052
  344POPC   C3A 4123   6.076  14.444   7.076  0.3515  0.2531  0.0954
  344POPC   C4A 4124   5.756  14.686   6.817 -0.2024 -0.0808 -0.1562
  344POPC   C1B 4125   5.525  14.827   7.881 -0.2506 -0.1315 -0.0014
  344POPC   C2B 4126   5.184  14.907   7.622 -0.3406  0.1105  0.0229
  344POPC   C3B 4127   4.823  14.778   7.336  0.0652 -0.0476  0.0446
  344POPC   C4B 4128   4.673  14.626   6.965 -0.0377 -0.1164  0.0308
  345POPC   NC3 4129  11.182   0.391   9.954 -0.2816 -0.3812  0.0238
  345POPC   PO4 4130  11.352   0.759  10.014  0.1063 -0.4348 -0.0354
  345POPC   GL1 4131  11.313   0.998   9.675 -0.2354 -0.1228  0.1247
  345POPC   GL2 4132  11.149   0.774   9.547 -0.0904  0.1814  0.2958
  345POPC   C1A 4133  11.409   1.323   9.341 -0.0128 -0.0959  0.0123
  345POPC   D2A 4134  11.627   1.698   9.167  0.0168  0.4060  0.3097
  345POPC   C3A 4135  11.496   2.136   9.225  0.1321  0.1762 -0.2483
  345POPC   C4A 4136  11.100   2.291   9.375 -0.0604 -0.2067 -0.1465
  345POPC   C1B 4137  10.952   1.138   9.279 -0.1259 -0.3458  0.2452
  345POPC   C2B 4138  10.998   1.549   9.048 -0.2975 -0.1002 -0.1177
  345POPC   C3B 4139  11.276   1.784   8.794 -0.1679 -0.1445 -0.1622
  345POPC   C4B 4140  11.456   1.848   8.323 -0.2796 -0.0371 -0.2408
  346POPC   NC3 4141  15.667   0.667   9.076 -0.1324  0.2091 -0.0269
  346POPC   PO4 4142  15.328   0.872   8.944 -0.1654 -0.3128 -0.2847
  346POPC   GL1 4143  15.221   0.838   8.555  0.1871  0.0218 -0.1770
  346POPC   GL2 4144  15.385   1.117   8.471 -0.1102 -0.3687 -0.2076
  346POPC   C1A 4145  14.933   0.574   8.300  0.0039  0.1736  0.0332
  346POPC   D2A 4146  15.118   0.319   7.953 -0.0813  0.1076 -0.0151
  346POPC   C3A 4147  14.951   0.193   7.558  0.1208  0.2659 -0.0553
  346POPC   C4A 4148  15.005   0.191   7.112  0.1223  0.1214 -0.1167
  346POPC   C1B 4149  15.188   0.971   8.153 -0.1846 -0.1643  0.4942
  346POPC   C2B 4150  14.986   0.768   7.775  0.1117  0.2136  0.3235
  346POPC   C3B 4151  14.666   0.649   7.483 -0.3382 -0.0347  0.0376
  346POPC   C4B 4152  14.662   0.646   7.057 -0.2448  0.1701 -0.0290
  347POPC   NC3 4153  11.657   0.986  13.735 -0.1031  0.4482 -0.0074
  347POPC   PO4 4154  11.702   0.702  13.990 -0.3526 -0.3030  0.0406
  347POPC   GL1 4155  11.867   0.914  14.340 -0.0645 -0.3308 -0.0405
  347POPC   GL2 4156  11.628   1.116  14.292  0.1108 -0.1660  0.0893
  347POPC   C1A 4157  11.963   1.328  14.584  0.3411  0.2693  0.2376
  347POPC   D2A 4158  11.957   1.496  15.031 -0.0567  0.1966  0.4002
  347POPC   C3A 4159  11.662   1.784  15.339 -0.2362  0.2734 -0.5284
  347POPC   C4A 4160  11.629   1.757  15.822  0.0242  0.1118  0.2987
  347POPC   C1B 4161  11.471   1.445  14.618  0.1974  0.1182  0.0842
  347POPC   C2B 4162  11.543   1.883  14.799  0.0895 -0.1930  0.0702
  347POPC   C3B 4163  11.370   2.166  15.119 -0.0122  0.1006  0.2045
  347POPC   C4B 4164  11.025   2.412  15.280  0.0542 -0.2934  0.3558
  348POPC   NC3 4165   1.619  32.715   8.570 -0.0010 -0.0344 -0.3860
  348POPC   PO4 4166   1.463  33.014   8.335  0.1280  0.2876 -0.3659
  348POPC   GL1 4167   1.507  33.047   7.934  0.1396  0.2768 -0.0189
  348POPC   GL2 4168   1.581  33.262   7.810  0.2666  0.0811 -0.0527
  348POPC   C1A 4169   1.696  32.863   7.547  0.1721 -0.0823  0.1254
  348POPC   D2A 4170   2.094  32.684   7.480  0.1344  0.1136 -0.0509
  348POPC   C3A 4171   2.418  32.828   7.183  0.1935 -0.5861 -0.0411
  348POPC   C4A 4172   2.347  33.227   6.926 -0.2055 -0.3386  0.2947
  348POPC   C1B 4173   1.539  33.374   7.336 -0.0177  0.0163  0.4016
  348POPC   C2B 4174   1.413  33.616   6.932  0.0054  0.3826  0.2231
  348POPC   C3B 4175   1.478  33.434   6.484  0.1103 -0.3337 -0.1467
  348POPC   C4B 4176   1.283  33.128   6.207 -0.0977 -0.2773  0.0252
  349POPC   NC3 4177   7.886  15.100   8.943 -0.0733 -0.2648 -0.0146
  349POPC   PO4 4178   7.596  14.933   8.763 -0.0854  0.2067 -0.1511
  349POPC   GL1 4179   7.821  14.952   8.394 -0.3819  0.0981  0.1811
  349POPC   GL2 4180   7.614  15.219   8.293 -0.0603  0.1612  0.0761
  349POPC   C1A 4181   8.137  14.768   8.101 -0.1110 -0.1791  0.0267
  349POPC   D2A 4182   8.555  14.649   8.009 -0.4439 -0.3762 -0.3676
  349POPC   C3A 4183   8.741  14.257   8.197  0.1031  0.1984  0.1346
  349POPC   C4A 4184   8.813  13.761   8.165 -0.3027  0.2017 -0.2319
  349POPC   C1B 4185   7.814  15.144   7.900  0.2811 -0.0207  0.0019
  349POPC   C2B 4186   8.124  15.087   7.546  0.2228 -0.1748 -0.1506
  349POPC   C3B 4187   8.353  15.038   7.145  0.0968 -0.1026 -0.1286
  349POPC   C4B 4188   8.408  15.298   6.790  0.0382  0.0784  0.0894
  350POPC   NC3 4189   0.023   1.574   8.745  0.0419 -0.3144 -0.1029
  350POPC   PO4 4190   0.401   1.525   8.727  0.1310 -0.1579  0.3653
  350POPC   GL1 4191   0.312   1.525   8.358  0.0024  0.0028 -0.0435
  350POPC   GL2 4192   0.215   1.342   8.206  0.0175 -0.0394 -0.0887
  350POPC   C1A 4193   0.503   1.737   7.982  0.2500 -0.1572  0.0174
  350POPC   D2A 4194   0.462   1.751   7.517 -0.1201  0.0774 -0.3244
  350POPC   C3A 4195   0.731   1.862   7.190  0.3625  0.1529  0.1813
  350POPC   C4A 4196   0.994   2.045   6.824  0.1266 -0.2384 -0.1127
  350POPC   C1B 4197   0.152   1.412   7.768  0.1037 -0.0003 -0.3305
  350POPC   C2B 4198  -0.079   1.418   7.399  0.1416 -0.0680 -0.1245
  350POPC   C3B 4199  -0.387   1.684   7.069 -0.0513 -0.3433 -0.0363
  350POPC   C4B 4200  -0.632   1.872   6.699  0.0139  0.2419  0.1148
  351POPC   NC3 4201   8.314  12.779   8.974 -0.0218 -0.3050  0.1951
  351POPC   PO4 4202   8.080  13.068   9.031 -0.1046  0.1930 -0.0792
  351POPC   GL1 4203   8.194  13.011   8.600  0.0184 -0.1076  0.0878
  351POPC   GL2 4204   8.340  12.787   8.473 -0.2841 -0.0327 -0.2818
  351POPC   C1A 4205   8.552  13.239   8.335  0.2339  0.0202  0.1569
  351POPC   D2A 4206   8.747  13.385   7.861 -0.1189  0.2108 -0.1887
  351POPC   C3A 4207   8.978  13.200   7.522 -0.1586  0.2196  0.1811
  351POPC   C4A 4208   8.985  12.927   7.158  0.1131 -0.5157  0.2055
  351POPC   C1B 4209   8.281  12.639   8.090 -0.4540 -0.1855 -0.0023
  351POPC   C2B 4210   8.053  12.732   7.716  0.0843 -0.2625 -0.0698
  351POPC   C3B 4211   7.732  12.876   7.372 -0.1702 -0.1507  0.0539
  351POPC   C4B 4212   7.619  12.858   6.918  0.1147 -0.1121 -0.1311
  352POPC   NC3 4213  16.377  13.055   8.553 -0.0023  0.2042 -0.0973
  352POPC   PO4 4214  16.752  13.154   8.519 -0.2376  0.1477 -0.2340
  352POPC   GL1 4215  17.036  12.986   8.304  0.1590  0.0209 -0.1559
  352POPC   GL2 4216  16.977  13.052   8.003 -0.0714  0.0913  0.0620
  352POPC   C1A 4217  17.323  12.725   8.002  0.2825 -0.2592 -0.0381
  352POPC   D2A 4218  17.208  12.401   7.628 -0.1158 -0.0883  0.0702
  352POPC   C3A 4219  17.331  12.253   7.177 -0.2093  0.2248  0.4339
  352POPC   C4A 4220  17.288  12.125   6.738 -0.0863 -0.0746  0.2035
  352POPC   C1B 4221  16.852  12.724   7.721  0.0837 -0.5984  0.0584
  352POPC   C2B 4222  16.878  12.497   7.288 -0.2008  0.1972 -0.1695
  352POPC   C3B 4223  16.795  12.335   6.966 -0.2243  0.3721 -0.1115
  352POPC   C4B 4224  16.751  12.071   6.595  0.2312  0.1587 -0.2442
  353POPC   NC3 4225  14.781  15.056   8.095 -0.1764  0.2855  0.2425
  353POPC   PO4 4226  14.854  14.679   8.193 -0.1461 -0.1113 -0.1336
  353POPC   GL1 4227  14.651  14.597   7.893 -0.1587 -0.0087 -0.3925
  353POPC   GL2 4228  14.789  14.328   7.859 -0.0248 -0.0059 -0.2049
  353POPC   C1A 4229  14.741  14.710   7.448  0.1201 -0.2800 -0.0037
  353POPC   D2A 4230  14.676  15.043   7.094  0.1841  0.0438 -0.1063
  353POPC   C3A 4231  14.547  14.927   6.668  0.0074  0.2542 -0.2238
  353POPC   C4A 4232  14.368  15.010   6.240  0.2014 -0.1488  0.2287
  353POPC   C1B 4233  14.730  14.219   7.440  0.2616  0.1794 -0.0576
  353POPC   C2B 4234  14.618  14.355   7.010 -0.1743  0.1989 -0.5595
  353POPC   C3B 4235  14.515  14.436   6.600  0.0407 -0.2733 -0.1773
  353POPC   C4B 4236  14.718  14.702   6.252 -0.1724 -0.1078 -0.2521
  354POPC   NC3 4237  10.181  14.915   8.786 -0.0651  0.0207 -0.0172
  354POPC   PO4 4238   9.826  14.782   8.719  0.0132 -0.0089  0.0979
  354POPC   GL1 4239   9.727  14.732   8.356  0.3381  0.2106  0.0898
  354POPC   GL2 4240   9.576  14.547   8.319 -0.2675  0.1671  0.0016
  354POPC   C1A 4241   9.503  14.952   8.025  0.2323  0.0307 -0.1482
  354POPC   D2A 4242   9.554  15.252   7.657  0.1300 -0.0024 -0.0434
  354POPC   C3A 4243   9.589  15.141   7.216  0.1806 -0.2546 -0.1092
  354POPC   C4A 4244   9.713  14.770   6.961 -0.2748  0.2939 -0.0389
  354POPC   C1B 4245   9.607  14.498   7.834  0.4733 -0.1133  0.2115
  354POPC   C2B 4246   9.440  14.244   7.470 -0.2637 -0.2158 -0.0823
  354POPC   C3B 4247   9.781  14.251   7.166 -0.3686 -0.3113 -0.0780
  354POPC   C4B 4248  10.273  14.290   7.185 -0.4183  0.1971  0.3944
  355POPC   NC3 4249   4.391   2.861   9.992 -0.1793 -0.1099 -0.1101
  355POPC   PO4 4250   4.340   3.161  10.238 -0.1778 -0.0241  0.2358
  355POPC   GL1 4251   4.799   3.066  10.128  0.3427  0.0063 -0.0401
  355POPC   GL2 4252   4.919   2.826  10.196 -0.2181  0.1151  0.0860
  355POPC   C1A 4253   5.170   3.304   9.990 -0.2810  0.2656 -0.2732
  355POPC   D2A 4254   5.531   3.355   9.660 -0.0682  0.1101  0.1215
  355POPC   C3A 4255   5.430   3.308   9.197  0.0907 -0.3702 -0.1885
  355POPC   C4A 4256   5.467   3.251   8.755  0.0603 -0.1771  0.2050
  355POPC   C1B 4257   5.004   2.889   9.710  0.1121  0.1301 -0.1501
  355POPC   C2B 4258   5.353   2.855   9.396 -0.0320 -0.1278 -0.0209
  355POPC   C3B 4259   5.809   2.896   9.420  0.1507 -0.2904 -0.1690
  355POPC   C4B 4260   6.264   3.056   9.450  0.0339 -0.0782  0.0778
  356POPC   NC3 4261   3.109   6.302   9.252 -0.0112 -0.0889 -0.2390
  356POPC   PO4 4262   3.447   6.266   9.355 -0.1241  0.0005 -0.0845
  356POPC   GL1 4263   3.730   6.207   9.092 -0.2881 -0.3278  0.1380
  356POPC   GL2 4264   3.945   6.401   9.127  0.0786 -0.0365  0.2252
  356POPC   C1A 4265   3.881   6.266   8.642 -0.0560 -0.0188  0.0774
  356POPC   D2A 4266   4.174   6.348   8.285  0.1739 -0.1024  0.0371
  356POPC   C3A 4267   4.572   6.408   8.263 -0.3388 -0.0308  0.2117
  356POPC   C4A 4268   4.997   6.397   8.389  0.1610 -0.3416 -0.0353
  356POPC   C1B 4269   4.283   6.629   8.930 -0.0879 -0.1111 -0.1243
  356POPC   C2B 4270   4.670   6.669   8.685 -0.3617 -0.1661 -0.1501
  356POPC   C3B 4271   4.680   6.893   8.261  0.1506 -0.0858 -0.1416
  356POPC   C4B 4272   4.887   7.124   7.897  0.0750 -0.0136 -0.2595
  357POPC   NC3 4273   2.615  15.461   8.343 -0.2299 -0.1667  0.0418
  357POPC   PO4 4274   2.309  15.313   8.201  0.1019 -0.1822 -0.0082
  357POPC   GL1 4275   2.347  15.145   7.890  0.1570 -0.0990 -0.4075
  357POPC   GL2 4276   2.402  14.878   7.951  0.2695  0.0720  0.1396
  357POPC   C1A 4277   2.380  15.447   7.536 -0.1377 -0.0974 -0.0192
  357POPC   D2A 4278   2.452  15.621   7.080  0.1592  0.1195  0.0977
  357POPC   C3A 4279   2.646  16.034   7.061 -0.0521  0.0853  0.0669
  357POPC   C4A 4280   2.645  16.319   6.733  0.1742 -0.0542 -0.1810
  357POPC   C1B 4281   2.309  14.934   7.469  0.0323  0.2299 -0.0654
  357POPC   C2B 4282   2.342  15.151   7.041 -0.4447 -0.0765 -0.4337
  357POPC   C3B 4283   2.247  15.353   6.662 -0.2188 -0.2062  0.1279
  357POPC   C4B 4284   2.461  15.638   6.314 -0.1032 -0.3509 -0.1671
  358POPC   NC3 4285  15.703  11.568   8.976  0.0404 -0.0732 -0.3137
  358POPC   PO4 4286  16.089  11.709   8.966  0.1866 -0.3629  0.2518
  358POPC   GL1 4287  15.919  11.579   8.589  0.3418  0.1201  0.0029
  358POPC   GL2 4288  15.930  11.320   8.440 -0.2334 -0.2926  0.1498
  358POPC   C1A 4289  15.815  11.748   8.192 -0.0875  0.1854  0.2982
  358POPC   D2A 4290  15.637  12.048   7.909 -0.3239  0.0481  0.2078
  358POPC   C3A 4291  15.557  12.370   7.561  0.3141 -0.1915 -0.1028
  358POPC   C4A 4292  15.666  12.502   7.124 -0.2977  0.1852  0.4328
  358POPC   C1B 4293  15.689  11.282   8.079 -0.0639 -0.1214  0.0402
  358POPC   C2B 4294  15.657  11.607   7.732  0.0703  0.5244  0.1457
  358POPC   C3B 4295  15.621  11.657   7.240 -0.0984 -0.1055 -0.0041
  358POPC   C4B 4296  15.963  11.644   6.957  0.3050 -0.3238 -0.0298
  359POPC   NC3 4297   3.724   0.771   8.901  0.0971  0.0059 -0.0166
  359POPC   PO4 4298   3.956   0.909   9.131 -0.1925  0.0297 -0.1464
  359POPC   GL1 4299   4.133   0.977   8.709 -0.4216  0.0108 -0.0092
  359POPC   GL2 4300   4.139   0.702   8.654  0.0928  0.3182  0.0241
  359POPC   C1A 4301   4.077   1.102   8.283 -0.0824  0.1075  0.0607
  359POPC   D2A 4302   4.058   0.969   7.862 -0.1321 -0.0443  0.1576
  359POPC   C3A 4303   4.163   1.267   7.497 -0.0708  0.2207  0.4085
  359POPC   C4A 4304   4.236   1.625   7.160 -0.0894 -0.1443 -0.2626
  359POPC   C1B 4305   4.156   0.545   8.201  0.1800  0.0974  0.0568
  359POPC   C2B 4306   4.470   0.301   8.027  0.0264 -0.1916 -0.0219
  359POPC   C3B 4307   4.624   0.246   7.619  0.2372  0.1512  0.1943
  359POPC   C4B 4308   4.365   0.384   7.232  0.1285 -0.0962  0.0808
  360POPC   NC3 4309   4.861   2.494  11.516 -0.0445  0.1230  0.1409
  360POPC   PO4 4310   5.067   2.800  11.478 -0.2159 -0.4406 -0.1548
  360POPC   GL1 4311   5.414   3.139  11.452  0.0761 -0.3122  0.1069
  360POPC   GL2 4312   5.435   3.320  11.299 -0.0111 -0.1605  0.1994
  360POPC   C1A 4313   5.876   3.135  11.323 -0.0292  0.3308 -0.0208
  360POPC   D2A 4314   6.298   2.985  11.169 -0.0510  0.0579 -0.4366
  360POPC   C3A 4315   6.567   3.024  10.771  0.0357 -0.0029  0.2253
  360POPC   C4A 4316   6.521   2.730  10.434  0.1895  0.2239 -0.0440
  360POPC   C1B 4317   5.718   3.597  11.452  0.1298  0.1147  0.2115
  360POPC   C2B 4318   6.027   3.967  11.444 -0.0296 -0.2247 -0.1764
  360POPC   C3B 4319   6.268   4.307  11.414  0.3077  0.2565 -0.1044
  360POPC   C4B 4320   6.604   4.738  11.410  0.1624  0.2744  0.2564
  361POPC   NC3 4321   0.513  10.393   9.274  0.0583 -0.3122 -0.0866
  361POPC   PO4 4322   0.121  10.485   9.127  0.2393 -0.0361 -0.0330
  361POPC   GL1 4323  -0.040  10.437   8.800  0.0147  0.2711  0.2080
  361POPC   GL2 4324  -0.121  10.119   8.717  0.0483 -0.1209  0.0981
  361POPC   C1A 4325   0.094  10.357   8.339 -0.2490 -0.4537 -0.2816
  361POPC   D2A 4326   0.076  10.152   7.916 -0.0102 -0.1914  0.2957
  361POPC   C3A 4327   0.022  10.060   7.480  0.2690 -0.1360  0.2203
  361POPC   C4A 4328  -0.063   9.895   7.024 -0.0623  0.2181 -0.0712
  361POPC   C1B 4329  -0.057   9.885   8.296 -0.0473 -0.1015 -0.3000
  361POPC   C2B 4330  -0.096   9.581   7.926  0.0585  0.2406  0.1580
  361POPC   C3B 4331  -0.250   9.268   7.712  0.0330 -0.0540 -0.0798
  361POPC   C4B 4332  -0.048   8.948   7.543 -0.1140  0.2158 -0.0107
  362POPC   NC3 4333   8.973  10.585  10.938  0.1697 -0.1416 -0.3569
  362POPC   PO4 4334   8.650  10.612  10.703 -0.1016  0.3070 -0.0139
  362POPC   GL1 4335   8.594  10.327  10.412 -0.1616 -0.0895  0.1908
  362POPC   GL2 4336   8.800  10.421  10.207  0.1368 -0.2160 -0.1431
  362POPC   C1A 4337   8.754   9.910  10.150  0.0819  0.3026  0.0062
  362POPC   D2A 4338   9.042   9.658   9.873  0.0417  0.0035 -0.1296
  362POPC   C3A 4339   9.071   9.213   9.880 -0.1326 -0.1647  0.2288
  362POPC   C4A 4340   9.210   8.793   9.772  0.1409 -0.0160  0.0327
  362POPC   C1B 4341   9.052  10.291   9.820  0.1541 -0.1593  0.0379
  362POPC   C2B 4342   9.159   9.993   9.481 -0.0195 -0.0027  0.2186
  362POPC   C3B 4343   9.149   9.741   9.115 -0.3288  0.1017  0.0740
  362POPC   C4B 4344   9.159   9.854   8.626 -0.5141  0.0658  0.2203
  363POPC   NC3 4345   0.302   8.353   9.447  0.1932  0.2048 -0.3193
  363POPC   PO4 4346   0.071   8.237   9.701  0.0917  0.2849 -0.3347
  363POPC   GL1 4347  -0.117   8.093   9.408 -0.0259  0.1211  0.3586
  363POPC   GL2 4348  -0.376   8.130   9.470 -0.0506  0.2173 -0.0911
  363POPC   C1A 4349  -0.005   8.302   9.022  0.0908 -0.0979  0.1521
  363POPC   D2A 4350   0.239   8.295   8.591 -0.0399 -0.0178 -0.1429
  363POPC   C3A 4351   0.135   8.311   8.173  0.0990 -0.0202 -0.2518
  363POPC   C4A 4352  -0.161   8.060   7.985 -0.0565 -0.0900 -0.3186
  363POPC   C1B 4353  -0.374   7.786   9.122 -0.1440 -0.1637 -0.2965
  363POPC   C2B 4354  -0.397   7.742   8.679 -0.1061  0.2002  0.2055
  363POPC   C3B 4355  -0.546   7.882   8.213  0.0450 -0.0590 -0.3080
  363POPC   C4B 4356  -0.733   8.032   7.793  0.0399 -0.1547  0.0981
  364POPC   NC3 4357  12.329   1.970  11.293 -0.0807  0.2933  0.0581
  364POPC   PO4 4358  12.437   2.068  11.677  0.0554 -0.1088 -0.0081
  364POPC   GL1 4359  12.271   2.428  11.668  0.1296 -0.2787  0.0284
  364POPC   GL2 4360  12.537   2.554  11.712 -0.2262  0.2137  0.1398
  364POPC   C1A 4361  11.991   2.774  11.507 -0.0584  0.0237  0.1751
  364POPC   D2A 4362  11.573   2.766  11.397  0.0214  0.1327 -0.3020
  364POPC   C3A 4363  11.369   3.055  11.136  0.0953  0.0115 -0.0360
  364POPC   C4A 4364  11.052   3.166  10.760 -0.3191  0.1740  0.3114
  364POPC   C1B 4365  12.563   2.966  11.511  0.0066 -0.0708  0.0231
  364POPC   C2B 4366  12.210   3.232  11.315  0.0367  0.3004 -0.2910
  364POPC   C3B 4367  11.913   3.583  11.310  0.0737  0.0784  0.0681
  364POPC   C4B 4368  11.801   4.018  11.460 -0.1977 -0.1041 -0.2006
  365POPC   NC3 4369  16.129   4.037   9.769  0.1970  0.1019 -0.3929
  365POPC   PO4 4370  15.893   3.872   9.518  0.2312  0.0660  0.1842
  365POPC   GL1 4371  15.649   4.015   9.244  0.1363  0.1570  0.5085
  365POPC   GL2 4372  15.544   3.753   9.173 -0.1372 -0.1436  0.1119
  365POPC   C1A 4373  15.706   4.252   8.840  0.0820 -0.0502  0.1345
  365POPC   D2A 4374  15.378   4.367   8.491 -0.2786  0.2960  0.2281
  365POPC   C3A 4375  15.404   4.764   8.288 -0.3000 -0.3238  0.4463
  365POPC   C4A 4376  15.299   5.208   8.180  0.1115  0.2864  0.0319
  365POPC   C1B 4377  15.440   3.841   8.694  0.1104 -0.0083  0.0658
  365POPC   C2B 4378  15.276   3.936   8.272 -0.2946 -0.0358 -0.2473
  365POPC   C3B 4379  15.208   4.301   7.989 -0.1353  0.0021 -0.1280
  365POPC   C4B 4380  14.890   4.575   7.799  0.3437  0.1310 -0.2720
  366POPC   NC3 4381   5.089  13.323   8.555 -0.0948  0.2171 -0.2333
  366POPC   PO4 4382   5.341  13.642   8.541  0.0382  0.0048  0.1057
  366POPC   GL1 4383   5.441  13.668   8.177  0.3247 -0.0409  0.1370
  366POPC   GL2 4384   5.488  13.434   8.053 -0.1322  0.0638  0.0090
  366POPC   C1A 4385   5.352  13.757   7.731 -0.2124  0.2024  0.0769
  366POPC   D2A 4386   5.401  13.640   7.254 -0.0560 -0.1637 -0.2036
  366POPC   C3A 4387   5.142  13.917   6.899  0.1990 -0.0703 -0.0107
  366POPC   C4A 4388   5.208  13.944   6.453 -0.0496 -0.1358  0.0876
  366POPC   C1B 4389   5.706  13.390   7.700  0.3378 -0.0257 -0.2673
  366POPC   C2B 4390   5.802  13.275   7.332  0.0641  0.1130 -0.0185
  366POPC   C3B 4391   5.793  13.351   6.904 -0.0474  0.1307 -0.1215
  366POPC   C4B 4392   6.152  13.566   6.674  0.1647 -0.0452  0.1137
  367POPC   NC3 4393   0.591  13.478   7.814  0.1132  0.0491 -0.3017
  367POPC   PO4 4394   0.335  13.472   8.117 -0.1539  0.3495 -0.1399
  367POPC   GL1 4395   0.051  13.282   7.991  0.3748 -0.0135 -0.1804
  367POPC   GL2 4396   0.174  13.158   7.755 -0.0357 -0.0400 -0.3650
  367POPC   C1A 4397  -0.211  13.340   7.543 -0.1728  0.1077  0.3304
  367POPC   D2A 4398  -0.099  13.509   7.103 -0.3910 -0.0653 -0.0350
  367POPC   C3A 4399  -0.377  13.794   6.779 -0.0158  0.0010  0.3676
  367POPC   C4A 4400  -0.682  14.036   6.530 -0.0775 -0.1178 -0.1906
  367POPC   C1B 4401   0.229  13.053   7.311 -0.0468  0.0371 -0.0190
  367POPC   C2B 4402   0.129  12.850   6.922  0.0141  0.1210  0.1473
  367POPC   C3B 4403   0.078  12.548   6.496  0.0139  0.2510  0.0534
  367POPC   C4B 4404   0.144  12.244   6.161 -0.2038  0.0976  0.1500
  368POPC   NC3 4405  15.619  12.221   8.400 -0.0443  0.0675 -0.0720
  368POPC   PO4 4406  15.299  12.059   8.308 -0.1235  0.0528 -0.0715
  368POPC   GL1 4407  15.167  11.884   8.053  0.2509  0.2096 -0.0542
  368POPC   GL2 4408  15.310  11.560   8.069  0.1645  0.2342  0.1357
  368POPC   C1A 4409  15.249  11.975   7.623 -0.0495 -0.0192  0.0311
  368POPC   D2A 4410  15.342  12.147   7.181 -0.1554 -0.1227 -0.0823
  368POPC   C3A 4411  15.223  11.825   6.866  0.0179 -0.2961  0.3821
  368POPC   C4A 4412  15.326  11.773   6.385 -0.2118  0.2107  0.0146
  368POPC   C1B 4413  15.363  11.236   7.686  0.2158  0.2708 -0.0067
  368POPC   C2B 4414  15.090  10.938   7.460  0.1603 -0.2589  0.1536
  368POPC   C3B 4415  14.959  10.629   7.047  0.0559  0.2278 -0.4021
  368POPC   C4B 4416  15.123  10.241   6.945  0.1702  0.1896 -0.1752
  369POPC   NC3 4417  14.517   8.213  11.709 -0.1019  0.2005  0.4872
  369POPC   PO4 4418  14.621   8.512  11.394 -0.2414  0.2028 -0.0065
  369POPC   GL1 4419  14.227   8.387  11.362 -0.2976  0.1341 -0.1008
  369POPC   GL2 4420  14.236   8.291  11.040 -0.0086 -0.1238  0.0010
  369POPC   C1A 4421  14.004   8.377  11.754 -0.0672  0.3692 -0.0877
  369POPC   D2A 4422  13.668   8.135  11.817 -0.0140  0.2206 -0.3314
  369POPC   C3A 4423  13.647   7.726  11.674  0.0465 -0.1380  0.0449
  369POPC   C4A 4424  13.254   7.484  11.656 -0.1754  0.1643  0.0793
  369POPC   C1B 4425  13.780   8.277  10.897 -0.3119  0.2805  0.0987
  369POPC   C2B 4426  13.581   8.057  10.658 -0.0211  0.5773  0.2407
  369POPC   C3B 4427  13.136   7.894  10.491 -0.0385 -0.0285  0.2457
  369POPC   C4B 4428  12.842   7.588  10.301 -0.0594  0.0094  0.1487
  370POPC   NC3 4429   0.423   5.141   9.220  0.0040  0.0602 -0.1862
  370POPC   PO4 4430   0.768   5.188   9.035  0.2859 -0.0063  0.4240
  370POPC   GL1 4431   0.792   5.093   8.665 -0.0335 -0.2531  0.1951
  370POPC   GL2 4432   0.832   5.369   8.561 -0.0206  0.0515  0.0499
  370POPC   C1A 4433   0.977   4.894   8.253  0.1572 -0.2728  0.0586
  370POPC   D2A 4434   1.171   4.949   7.833  0.1461 -0.1852  0.2960
  370POPC   C3A 4435   0.795   5.021   7.498 -0.1153 -0.2114 -0.0321
  370POPC   C4A 4436   0.626   5.396   7.243 -0.2893 -0.1126 -0.1101
  370POPC   C1B 4437   0.829   5.448   8.070  0.0182  0.0853 -0.2421
  370POPC   C2B 4438   0.676   5.665   7.650 -0.1091  0.2473 -0.1630
  370POPC   C3B 4439   0.554   5.902   7.270 -0.1485  0.1363  0.0960
  370POPC   C4B 4440   0.245   5.984   6.946 -0.0984 -0.0988  0.1029
  371POPC   NC3 4441   5.342   2.699  14.081 -0.1566  0.3076  0.0773
  371POPC   PO4 4442   5.408   2.394  13.848  0.1065  0.1565  0.2161
  371POPC   GL1 4443   5.716   2.628  13.835 -0.0981 -0.2987  0.0554
  371POPC   GL2 4444   5.794   2.558  14.117 -0.1216  0.2918  0.0300
  371POPC   C1A 4445   6.074   2.935  13.722  0.3802 -0.0864 -0.1737
  371POPC   D2A 4446   6.335   3.248  13.885 -0.2699  0.0112 -0.2610
  371POPC   C3A 4447   6.772   3.147  14.078 -0.0059  0.0592 -0.1691
  371POPC   C4A 4448   6.924   2.798  14.301 -0.1847  0.3931  0.0906
  371POPC   C1B 4449   5.841   2.788  14.552  0.2006 -0.0718 -0.1583
  371POPC   C2B 4450   6.088   2.710  14.926 -0.0635  0.0523  0.2974
  371POPC   C3B 4451   6.353   2.340  14.947  0.0870 -0.0780 -0.0608
  371POPC   C4B 4452   6.464   2.074  15.342  0.1862  0.1012  0.0617
  372POPC   NC3 4453   1.119   9.148   9.319 -0.2971 -0.0836 -0.0886
  372POPC   PO4 4454   0.841   9.127   9.033  0.2646 -0.1211 -0.2321
  372POPC   GL1 4455   0.792   8.967   8.701 -0.3080 -0.0746 -0.2469
  372POPC   GL2 4456   0.951   9.155   8.489 -0.1511 -0.0343 -0.2263
  372POPC   C1A 4457   0.709   8.528   8.564  0.1777  0.0345 -0.0962
  372POPC   D2A 4458   0.601   8.382   8.167 -0.2703  0.0907 -0.3439
  372POPC   C3A 4459   0.751   8.399   7.732 -0.0853  0.1039  0.0849
  372POPC   C4A 4460   0.652   8.531   7.271 -0.0113 -0.2994 -0.2705
  372POPC   C1B 4461   0.768   8.884   8.223 -0.1312 -0.0515  0.0516
  372POPC   C2B 4462   0.870   8.849   7.759  0.0690 -0.1325 -0.0618
  372POPC   C3B 4463   1.148   8.661   7.405 -0.2022  0.0723  0.2259
  372POPC   C4B 4464   1.110   8.602   6.901 -0.0424 -0.0431 -0.1367
  373POPC   NC3 4465   1.836  15.923   8.005  0.0304 -0.0759  0.1592
  373POPC   PO4 4466   1.512  15.680   8.139  0.2884 -0.0062  0.0213
  373POPC   GL1 4467   1.510  15.484   7.844  0.0545 -0.1125 -0.1968
  373POPC   GL2 4468   1.499  15.276   7.735  0.0517  0.2589 -0.2402
  373POPC   C1A 4469   1.539  15.707   7.412  0.0385 -0.1284 -0.1747
  373POPC   D2A 4470   1.579  15.847   6.960 -0.2892  0.0588  0.0628
  373POPC   C3A 4471   1.421  15.902   6.537 -0.1888  0.2277  0.1671
  373POPC   C4A 4472   1.340  15.810   6.081  0.2474  0.1781 -0.0606
  373POPC   C1B 4473   1.412  15.170   7.363 -0.0759 -0.0588 -0.1608
  373POPC   C2B 4474   1.501  15.181   6.921  0.3856  0.0701 -0.3408
  373POPC   C3B 4475   1.484  15.105   6.469  0.2125  0.2204  0.0036
  373POPC   C4B 4476   1.585  15.277   6.064 -0.1974  0.3746  0.0258
  374POPC   NC3 4477  14.966   7.744  10.794  0.2285  0.1877  0.1113
  374POPC   PO4 4478  14.749   7.565  10.536  0.0450 -0.1421  0.3019
  374POPC   GL1 4479  14.383   7.566  10.707 -0.0575  0.2037 -0.4366
  374POPC   GL2 4480  14.385   7.792  10.893 -0.0319 -0.2615 -0.0896
  374POPC   C1A 4481  14.001   7.323  10.757  0.0200 -0.2542 -0.1253
  374POPC   D2A 4482  13.653   7.040  10.917  0.1479  0.0086 -0.1067
  374POPC   C3A 4483  13.284   6.854  10.736  0.2864 -0.0780  0.1809
  374POPC   C4A 4484  13.196   6.517  10.419  0.0926 -0.1434  0.0353
  374POPC   C1B 4485  13.954   7.853  10.929  0.1610 -0.1652 -0.0172
  374POPC   C2B 4486  13.558   7.526  10.726  0.1333 -0.1829 -0.1219
  374POPC   C3B 4487  13.384   7.237  10.407 -0.4684 -0.1155 -0.3197
  374POPC   C4B 4488  12.953   7.126  10.383  0.0169  0.0610  0.0198
  375POPC   NC3 4489   3.425  12.993   8.010  0.0435 -0.0321  0.0988
  375POPC   PO4 4490   3.110  13.213   8.147 -0.3228 -0.0439  0.0742
  375POPC   GL1 4491   3.070  13.283   7.779  0.2434  0.2797  0.0472
  375POPC   GL2 4492   2.993  13.051   7.638  0.0864 -0.1902  0.0658
  375POPC   C1A 4493   3.064  13.498   7.366  0.0349  0.0270  0.0404
  375POPC   D2A 4494   3.355  13.323   7.021  0.0208  0.1571 -0.0185
  375POPC   C3A 4495   3.774  13.228   7.125  0.1080  0.2129 -0.1726
  375POPC   C4A 4496   4.223  13.205   7.208  0.2295  0.4910  0.0864
  375POPC   C1B 4497   2.917  12.970   7.219  0.0210  0.1275  0.1050
  375POPC   C2B 4498   2.907  13.193   6.836  0.1326  0.0923 -0.0880
  375POPC   C3B 4499   2.847  13.222   6.373  0.3947  0.0649  0.5696
  375POPC   C4B 4500   2.766  13.381   5.933 -0.1394  0.0300  0.1895
  376POPC   NC3 4501  14.824  12.072   8.275  0.1581 -0.2985 -0.2479
  376POPC   PO4 4502  14.802  12.475   8.278  0.1588  0.0153 -0.0070
  376POPC   GL1 4503  15.023  12.611   7.983  0.0598 -0.2678  0.3924
  376POPC   GL2 4504  15.122  12.334   7.954 -0.0520  0.1202  0.1558
  376POPC   C1A 4505  14.895  12.861   7.607  0.1183 -0.0687  0.1269
  376POPC   D2A 4506  14.816  13.193   7.291  0.2332  0.2001 -0.2735
  376POPC   C3A 4507  14.901  13.010   6.940 -0.1354  0.1686 -0.4360
  376POPC   C4A 4508  14.756  12.659   6.622 -0.1113 -0.2441 -0.1299
  376POPC   C1B 4509  14.967  12.372   7.510  0.2678 -0.0639 -0.1927
  376POPC   C2B 4510  14.624  12.637   7.268 -0.0109 -0.0455  0.2008
  376POPC   C3B 4511  14.337  12.562   6.910  0.3695  0.1025 -0.3236
  376POPC   C4B 4512  14.104  12.168   6.915  0.1133 -0.0002 -0.1121
  377POPC   NC3 4513   0.217   6.578   9.506  0.2009 -0.1161 -0.0092
  377POPC   PO4 4514   0.003   6.244   9.343 -0.1411  0.0184  0.0760
  377POPC   GL1 4515   0.025   6.620   9.086  0.0218 -0.1897 -0.0070
  377POPC   GL2 4516  -0.163   6.844   9.005 -0.0016 -0.0667 -0.3296
  377POPC   C1A 4517   0.044   6.504   8.656  0.0516 -0.0744 -0.0461
  377POPC   D2A 4518  -0.164   6.466   8.275  0.0805 -0.0376 -0.2266
  377POPC   C3A 4519  -0.025   6.511   7.873  0.1536 -0.1301 -0.2487
  377POPC   C4A 4520  -0.077   6.631   7.477 -0.0841  0.0804 -0.0493
  377POPC   C1B 4521  -0.223   6.984   8.542  0.0058 -0.0161 -0.2182
  377POPC   C2B 4522  -0.433   7.319   8.299 -0.0485 -0.0389 -0.2325
  377POPC   C3B 4523  -0.790   7.347   7.949  0.1925 -0.2266  0.0693
  377POPC   C4B 4524  -0.943   6.970   7.835 -0.0332  0.4126 -0.3044
  378POPC   NC3 4525  14.406   4.352  11.472 -0.0236 -0.0171 -0.2037
  378POPC   PO4 4526  14.218   4.330  11.124  0.0515 -0.0534  0.0280
  378POPC   GL1 4527  13.883   4.473  11.067  0.0318  0.1631 -0.1716
  378POPC   GL2 4528  13.773   4.546  10.755 -0.1685  0.3381  0.0376
  378POPC   C1A 4529  13.459   4.419  11.188  0.0799  0.1339  0.0772
  378POPC   D2A 4530  12.986   4.445  11.027  0.1456 -0.1163  0.1042
  378POPC   C3A 4531  12.514   4.552  11.215  0.2361  0.0011  0.2504
  378POPC   C4A 4532  12.032   4.513  11.155  0.1023 -0.0579  0.0531
  378POPC   C1B 4533  13.407   4.575  10.576 -0.0506 -0.2402  0.1339
  378POPC   C2B 4534  12.961   4.640  10.490  0.3611 -0.2547  0.3535
  378POPC   C3B 4535  12.650   4.954  10.383  0.4102  0.0217  0.0250
  378POPC   C4B 4536  12.483   5.383  10.510 -0.0294  0.0593 -0.1749
  379POPC   NC3 4537  14.588   3.362  15.091 -0.1210 -0.0766  0.0896
  379POPC   PO4 4538  14.348   3.066  15.216 -0.3001  0.1234  0.1625
  379POPC   GL1 4539  14.129   3.278  15.475 -0.3164 -0.0041 -0.0351
  379POPC   GL2 4540  13.873   3.109  15.418 -0.0920 -0.0762  0.2339
  379POPC   C1A 4541  14.077   3.104  15.867  0.3294 -0.2247  0.1333
  379POPC   D2A 4542  13.719   3.014  16.143 -0.4999  0.1015 -0.0802
  379POPC   C3A 4543  13.268   3.057  16.016  0.0968 -0.1079  0.0233
  379POPC   C4A 4544  12.869   3.302  15.934  0.1675  0.0935 -0.1705
  379POPC   C1B 4545  13.653   3.288  15.737  0.0063  0.0877 -0.1818
  379POPC   C2B 4546  13.583   3.484  16.124 -0.2832 -0.2424  0.0000
  379POPC   C3B 4547  13.353   3.528  16.521  0.1894 -0.0898 -0.3878
  379POPC   C4B 4548  13.039   3.622  16.852 -0.0083 -0.1181  0.0141
  380POPC   NC3 4549   4.179   9.341   9.316  0.1458  0.1963  0.2169
  380POPC   PO4 4550   4.268   9.713   9.373  0.0025  0.3202 -0.3764
  380POPC   GL1 4551   4.475   9.531   9.053 -0.2057 -0.3274  0.1570
  380POPC   GL2 4552   4.528   9.715   8.827 -0.1989  0.1083 -0.2117
  380POPC   C1A 4553   4.822   9.293   8.876 -0.1480  0.3185 -0.1166
  380POPC   D2A 4554   5.091   9.282   8.482  0.0548 -0.0046  0.0262
  380POPC   C3A 4555   5.147   9.101   8.036 -0.1016  0.0908  0.0818
  380POPC   C4A 4556   4.844   9.124   7.640  0.2623 -0.0559  0.1625
  380POPC   C1B 4557   4.597   9.480   8.451  0.1522 -0.0822  0.0592
  380POPC   C2B 4558   4.756   9.437   8.043  0.0092 -0.1527  0.2284
  380POPC   C3B 4559   4.773   9.639   7.631  0.0610  0.0987  0.1545
  380POPC   C4B 4560   4.622   9.746   7.168  0.0656  0.0089 -0.0489
  381POPC   NC3 4561   0.093  11.878   9.216 -0.1184 -0.2196  0.0428
  381POPC   PO4 4562   0.120  11.798   8.820 -0.2703 -0.0595  0.2365
  381POPC   GL1 4563  -0.078  11.691   8.484  0.0174 -0.0701 -0.3369
  381POPC   GL2 4564   0.040  11.504   8.357  0.0915 -0.0797  0.1337
  381POPC   C1A 4565  -0.129  11.858   8.069  0.0764 -0.3199 -0.2024
  381POPC   D2A 4566  -0.317  11.808   7.664 -0.1398 -0.1207 -0.0776
  381POPC   C3A 4567  -0.326  11.408   7.466 -0.0800  0.1652 -0.3336
  381POPC   C4A 4568  -0.621  11.194   7.163 -0.3820 -0.1234  0.0866
  381POPC   C1B 4569  -0.220  11.375   8.040  0.1389  0.2827  0.0073
  381POPC   C2B 4570  -0.409  11.027   7.802 -0.2364  0.1099  0.1099
  381POPC   C3B 4571  -0.668  10.814   7.476 -0.0707 -0.1111 -0.0495
  381POPC   C4B 4572  -0.973  10.789   7.139  0.0666 -0.1610 -0.0728
  382POPC   NC3 4573  15.690   8.979   9.149  0.0608  0.2211 -0.4154
  382POPC   PO4 4574  15.844   8.826   9.502 -0.0846 -0.0418  0.0763
  382POPC   GL1 4575  15.960   8.562   9.281 -0.1119 -0.2578 -0.0225
  382POPC   GL2 4576  16.116   8.691   9.057 -0.1540 -0.1086 -0.0126
  382POPC   C1A 4577  15.804   8.257   8.998  0.0056  0.2629 -0.4448
  382POPC   D2A 4578  15.775   8.193   8.568  0.1905 -0.1968  0.0493
  382POPC   C3A 4579  15.468   8.190   8.228  0.2164  0.0897 -0.2302
  382POPC   C4A 4580  15.116   8.289   7.909 -0.0795  0.2062 -0.0378
  382POPC   C1B 4581  15.709   8.700   8.762  0.0422 -0.0270  0.0697
  382POPC   C2B 4582  15.519   8.662   8.330  0.2823  0.0827  0.0921
  382POPC   C3B 4583  15.235   8.801   7.929 -0.2485 -0.1871  0.0419
  382POPC   C4B 4584  14.979   8.848   7.612 -0.1632 -0.0738 -0.0025
  383POPC   NC3 4585  11.414   1.088  12.942 -0.3737 -0.1374 -0.1614
  383POPC   PO4 4586  11.019   1.014  13.038  0.0277  0.1285  0.3746
  383POPC   GL1 4587  10.937   1.411  12.942 -0.0166 -0.2993  0.2710
  383POPC   GL2 4588  10.697   1.520  13.168 -0.0472 -0.1736 -0.0078
  383POPC   C1A 4589  10.765   1.653  12.623  0.0185  0.1367 -0.1149
  383POPC   D2A 4590  10.802   2.075  12.447  0.1199  0.1460 -0.1106
  383POPC   C3A 4591  10.949   2.490  12.578 -0.0205  0.0485  0.0927
  383POPC   C4A 4592  11.141   2.905  12.589 -0.3461  0.0978 -0.2613
  383POPC   C1B 4593  10.521   1.911  13.273  0.1298  0.1936 -0.0131
  383POPC   C2B 4594  10.235   2.242  13.061 -0.2826 -0.1440  0.0349
  383POPC   C3B 4595  10.031   2.607  12.874  0.1133  0.0973 -0.1337
  383POPC   C4B 4596   9.598   2.749  13.025 -0.5181  0.0141  0.1665
  384POPC   NC3 4597  12.831  17.243   8.813 -0.1585  0.0137  0.1538
  384POPC   PO4 4598  12.563  16.994   9.037 -0.0247 -0.2477  0.1989
  384POPC   GL1 4599  12.356  17.245   8.759 -0.0756  0.0072  0.0010
  384POPC   GL2 4600  12.051  17.182   8.674  0.2722 -0.4128  0.1618
  384POPC   C1A 4601  12.379  17.709   8.596  0.0750  0.1612 -0.1865
  384POPC   D2A 4602  12.331  17.982   8.205 -0.1383 -0.0127  0.0658
  384POPC   C3A 4603  12.104  18.021   7.799 -0.1904 -0.1113 -0.4366
  384POPC   C4A 4604  12.039  18.181   7.351  0.2350 -0.1492  0.1610
  384POPC   C1B 4605  11.871  17.128   8.197 -0.1200  0.0825  0.0408
  384POPC   C2B 4606  11.638  17.290   7.743 -0.0918 -0.2683  0.1489
  384POPC   C3B 4607  11.172  17.354   7.710 -0.0831  0.1199  0.1100
  384POPC   C4B 4608  10.723  17.442   7.617  0.1747 -0.0293  0.1692
  385POPC   NC3 4609   1.735   8.317   9.889  0.0307  0.3806  0.0510
  385POPC   PO4 4610   2.017   8.221   9.590 -0.2874 -0.2138  0.0731
  385POPC   GL1 4611   1.785   8.291   9.253  0.0985  0.1199 -0.1940
  385POPC   GL2 4612   1.981   8.367   9.034  0.1225  0.1446  0.1081
  385POPC   C1A 4613   1.767   7.890   9.053  0.0308  0.3231 -0.0483
  385POPC   D2A 4614   1.844   7.616   8.702 -0.2717 -0.1329 -0.3887
  385POPC   C3A 4615   2.001   7.440   8.315 -0.3060  0.3069  0.1278
  385POPC   C4A 4616   2.352   7.541   8.025 -0.1891  0.2173 -0.0465
  385POPC   C1B 4617   1.984   8.095   8.669 -0.0566 -0.0138 -0.3929
  385POPC   C2B 4618   1.960   7.943   8.249 -0.2491  0.0482 -0.2282
  385POPC   C3B 4619   2.020   7.753   7.777  0.0451 -0.4068 -0.0590
  385POPC   C4B 4620   2.223   7.766   7.361  0.2875 -0.1464 -0.1782
  386POPC   NC3 4621  13.393   1.610  10.096  0.0865 -0.1609 -0.1721
  386POPC   PO4 4622  13.393   1.882  10.385  0.0137  0.0672  0.0921
  386POPC   GL1 4623  13.045   2.053  10.179 -0.2321 -0.2021 -0.3499
  386POPC   GL2 4624  12.902   1.731  10.372 -0.3029 -0.2247 -0.2184
  386POPC   C1A 4625  13.091   2.425   9.878 -0.0567 -0.2508  0.1390
  386POPC   D2A 4626  12.972   2.584   9.483 -0.3285  0.1319  0.0107
  386POPC   C3A 4627  12.645   2.710   9.227  0.2579 -0.1752 -0.1246
  386POPC   C4A 4628  12.192   2.590   9.247 -0.3860  0.1852 -0.1016
  386POPC   C1B 4629  12.711   2.205  10.480 -0.1006 -0.1178 -0.0538
  386POPC   C2B 4630  12.425   2.440  10.171 -0.0141  0.2047 -0.2886
  386POPC   C3B 4631  12.091   2.626   9.900 -0.2129  0.1547 -0.0612
  386POPC   C4B 4632  11.686   2.762   9.928 -0.1911  0.2951 -0.2546
  387POPC   NC3 4633   1.392   6.819   9.723 -0.3492  0.0905 -0.0055
  387POPC   PO4 4634   1.811   6.858   9.746 -0.2054  0.2012  0.0442
  387POPC   GL1 4635   1.786   6.823   9.341 -0.2605  0.1054  0.0324
  387POPC   GL2 4636   1.547   6.596   9.223 -0.1009 -0.3239 -0.2581
  387POPC   C1A 4637   1.852   7.060   8.940 -0.4005 -0.1575  0.1552
  387POPC   D2A 4638   1.548   7.259   8.604 -0.1132 -0.4272 -0.2630
  387POPC   C3A 4639   1.621   7.245   8.126 -0.0202 -0.0745 -0.1810
  387POPC   C4A 4640   1.945   7.214   7.805 -0.0375 -0.0031  0.1017
  387POPC   C1B 4641   1.243   6.358   8.977  0.0117  0.1821  0.0672
  387POPC   C2B 4642   1.066   6.350   8.552 -0.0116  0.0752  0.0747
  387POPC   C3B 4643   0.994   6.343   8.065 -0.2660 -0.3094  0.0851
  387POPC   C4B 4644   1.013   6.629   7.692 -0.0832  0.0858  0.2826
  388POPC   NC3 4645  14.580   9.886   9.503  0.0931 -0.0165  0.2005
  388POPC   PO4 4646  14.760  10.248   9.437 -0.4153 -0.0736  0.3919
  388POPC   GL1 4647  14.726  10.138   9.044 -0.0264  0.0156  0.0032
  388POPC   GL2 4648  14.431  10.072   9.000  0.0726  0.1362 -0.0212
  388POPC   C1A 4649  14.620  10.363   8.666  0.1687 -0.0032  0.0355
  388POPC   D2A 4650  14.534  10.275   8.207 -0.0282  0.0354  0.3859
  388POPC   C3A 4651  14.635  10.356   7.789  0.0586  0.1198 -0.1306
  388POPC   C4A 4652  14.335  10.228   7.432  0.0046 -0.0510 -0.2026
  388POPC   C1B 4653  14.236  10.058   8.587  0.1317  0.0434  0.1363
  388POPC   C2B 4654  14.059  10.084   8.129  0.0938 -0.3967 -0.1350
  388POPC   C3B 4655  13.922   9.991   7.701 -0.1403  0.0425 -0.0267
  388POPC   C4B 4656  14.045   9.859   7.268 -0.1111  0.1854 -0.1574
  389POPC   NC3 4657   7.074   0.912  14.196  0.0215 -0.1244 -0.0739
  389POPC   PO4 4658   7.446   0.876  14.308 -0.2272  0.0501  0.2417
  389POPC   GL1 4659   7.313   1.273  14.298 -0.2274 -0.1148 -0.3056
  389POPC   GL2 4660   7.442   1.538  14.262  0.2322 -0.3207 -0.0936
  389POPC   C1A 4661   7.243   1.467  14.679  0.0963 -0.1769 -0.4485
  389POPC   D2A 4662   7.240   1.683  15.073  0.0201 -0.4016  0.0538
  389POPC   C3A 4663   7.674   1.789  15.221  0.2541 -0.2184 -0.0666
  389POPC   C4A 4664   7.845   1.622  15.584  0.0825 -0.2205 -0.0467
  389POPC   C1B 4665   7.485   1.972  14.123  0.0683 -0.0175 -0.0397
  389POPC   C2B 4666   7.780   2.282  14.400  0.1697 -0.3179 -0.0116
  389POPC   C3B 4667   7.780   2.718  14.629  0.0541  0.2194  0.3263
  389POPC   C4B 4668   7.553   3.120  14.588  0.1566  0.0423 -0.0383
  390POPC   NC3 4669  12.923  15.773   8.716  0.1274  0.0918 -0.2542
  390POPC   PO4 4670  12.580  15.592   8.808 -0.2571 -0.0516  0.2736
  390POPC   GL1 4671  12.454  15.615   8.414  0.4110  0.1845  0.0390
  390POPC   GL2 4672  12.684  15.699   8.240  0.1791  0.1024  0.0617
  390POPC   C1A 4673  12.305  15.962   8.145 -0.1129  0.2095 -0.1189
  390POPC   D2A 4674  12.379  16.039   7.680 -0.0430  0.1457 -0.0903
  390POPC   C3A 4675  12.212  15.965   7.251  0.2146 -0.1309 -0.2956
  390POPC   C4A 4676  11.947  15.826   6.931  0.1406 -0.0593  0.2455
  390POPC   C1B 4677  12.648  15.603   7.816  0.3149  0.2694  0.1539
  390POPC   C2B 4678  12.545  15.554   7.384 -0.2154 -0.1498  0.1928
  390POPC   C3B 4679  12.539  15.529   6.908  0.0411 -0.1794  0.1218
  390POPC   C4B 4680  12.656  15.185   6.575  0.3548 -0.0625  0.1357
  391POPC   NC3 4681   3.344  15.789   8.670 -0.1553 -0.1932  0.0253
  391POPC   PO4 4682   3.060  15.917   8.429 -0.0245 -0.2325 -0.2911
  391POPC   GL1 4683   3.119  16.243   8.102 -0.1897 -0.1108 -0.3115
  391POPC   GL2 4684   3.371  16.111   7.951 -0.0972 -0.2710 -0.1956
  391POPC   C1A 4685   3.002  16.070   7.663  0.3212  0.4471  0.0320
  391POPC   D2A 4686   3.130  16.157   7.205 -0.2598 -0.0112 -0.0393
  391POPC   C3A 4687   3.378  15.925   6.865 -0.1102  0.1504 -0.3050
  391POPC   C4A 4688   3.570  16.092   6.499  0.2192 -0.0804 -0.0961
  391POPC   C1B 4689   3.332  16.423   7.568  0.0601 -0.2770  0.4233
  391POPC   C2B 4690   3.360  16.733   7.268 -0.1441  0.3513  0.0246
  391POPC   C3B 4691   3.385  16.901   6.839  0.0738  0.0209 -0.0247
  391POPC   C4B 4692   3.480  17.018   6.385 -0.1365  0.0164  0.2904
  392POPC   NC3 4693  14.891   3.047   9.740 -0.0425  0.1032 -0.1565
  392POPC   PO4 4694  15.174   2.801   9.564 -0.2713  0.4360 -0.3384
  392POPC   GL1 4695  14.884   2.797   9.287 -0.4745  0.0035 -0.0035
  392POPC   GL2 4696  14.904   3.087   9.188  0.1325 -0.0742 -0.1416
  392POPC   C1A 4697  14.826   2.637   8.880  0.0093  0.1393 -0.0490
  392POPC   D2A 4698  14.542   2.853   8.545 -0.2359  0.2349 -0.0845
  392POPC   C3A 4699  14.751   2.825   8.151  0.1448 -0.4482  0.0530
  392POPC   C4A 4700  15.012   3.011   7.812  0.3383  0.0653  0.2964
  392POPC   C1B 4701  14.865   3.138   8.747  0.2559  0.3767 -0.2573
  392POPC   C2B 4702  14.598   3.328   8.446  0.0984 -0.4314 -0.1906
  392POPC   C3B 4703  14.262   3.569   8.271  0.3045  0.0179 -0.0966
  392POPC   C4B 4704  13.960   3.882   8.007 -0.3952 -0.0815 -0.2668
  393POPC   NC3 4705   1.625   4.859   8.980 -0.2530  0.2892 -0.0682
  393POPC   PO4 4706   1.964   4.955   9.140  0.1956  0.1578 -0.2597
  393POPC   GL1 4707   2.103   5.054   8.740  0.1624  0.0206  0.1079
  393POPC   GL2 4708   2.300   5.237   8.785  0.0416  0.1051  0.0342
  393POPC   C1A 4709   1.767   4.998   8.468 -0.0977 -0.1233 -0.2307
  393POPC   D2A 4710   1.489   4.785   8.165  0.0346  0.1261  0.0679
  393POPC   C3A 4711   1.579   4.675   7.715  0.0409  0.1066 -0.1534
  393POPC   C4A 4712   1.889   4.743   7.419 -0.0501  0.0768 -0.1309
  393POPC   C1B 4713   2.242   5.216   8.347 -0.0555 -0.0230 -0.1477
  393POPC   C2B 4714   2.294   5.344   7.923  0.2335  0.1266 -0.0054
  393POPC   C3B 4715   2.163   5.185   7.506 -0.1625  0.2224 -0.0105
  393POPC   C4B 4716   2.097   5.264   7.055 -0.3602  0.0178 -0.0791
  394POPC   NC3 4717  14.784  15.549   8.623 -0.0025 -0.0513  0.3063
  394POPC   PO4 4718  14.590  15.455   8.302  0.4629 -0.4285 -0.1180
  394POPC   GL1 4719  14.692  15.520   7.982  0.2509  0.0340  0.0528
  394POPC   GL2 4720  14.467  15.568   7.834  0.0338  0.1411  0.0216
  394POPC   C1A 4721  14.910  15.759   7.640  0.0462  0.0643 -0.2282
  394POPC   D2A 4722  14.724  15.957   7.272 -0.0655  0.0278  0.0920
  394POPC   C3A 4723  14.930  16.380   7.214  0.2046  0.3964  0.2439
  394POPC   C4A 4724  14.823  16.839   7.115  0.1077 -0.3913  0.1346
  394POPC   C1B 4725  14.336  15.740   7.406 -0.0404  0.2061 -0.1731
  394POPC   C2B 4726  14.436  15.599   6.967 -0.0893 -0.1274 -0.1087
  394POPC   C3B 4727  14.581  15.456   6.615 -0.0973 -0.1328 -0.2064
  394POPC   C4B 4728  14.541  15.547   6.120  0.3070 -0.0431 -0.0579
  395POPC   NC3 4729  15.323   0.793  15.551 -0.1257 -0.0446 -0.0632
  395POPC   PO4 4730  15.155   0.444  15.621 -0.2431  0.0588  0.0923
  395POPC   GL1 4731  15.128   0.503  16.035  0.2063  0.3713 -0.1024
  395POPC   GL2 4732  15.070   0.299  16.251  0.2264  0.0557  0.2470
  395POPC   C1A 4733  15.012   0.835  16.336  0.0283  0.1432 -0.0660
  395POPC   D2A 4734  15.070   1.189  16.581  0.2603  0.1409  0.0534
  395POPC   C3A 4735  15.057   1.230  17.021 -0.1115 -0.0320  0.1046
  395POPC   C4A 4736  14.853   1.424  17.364 -0.0329  0.1043 -0.1434
  395POPC   C1B 4737  15.025   0.446  16.652 -0.0735 -0.4689  0.0528
  395POPC   C2B 4738  15.153   0.690  17.022  0.0926 -0.0210 -0.0206
  395POPC   C3B 4739  15.087   0.965  17.402  0.0066  0.0079  0.2001
  395POPC   C4B 4740  15.070   1.261  17.802 -0.0713 -0.0229  0.0761
  396POPC   NC3 4741   6.655  11.876   9.409  0.0781  0.1511 -0.3370
  396POPC   PO4 4742   6.854  11.886   9.063 -0.1207 -0.3408 -0.2105
  396POPC   GL1 4743   7.173  11.766   8.795 -0.1250 -0.1910  0.1369
  396POPC   GL2 4744   7.157  11.509   8.907  0.2874 -0.0641  0.3556
  396POPC   C1A 4745   7.575  11.591   8.717  0.2328 -0.0611  0.0641
  396POPC   D2A 4746   7.714  11.333   8.362  0.0150 -0.2348 -0.0396
  396POPC   C3A 4747   7.819  11.144   7.919 -0.2943  0.3820 -0.0111
  396POPC   C4A 4748   8.016  10.988   7.512 -0.0841  0.2969  0.3292
  396POPC   C1B 4749   7.151  11.472   8.428  0.0554 -0.1052  0.2515
  396POPC   C2B 4750   7.353  11.520   8.075 -0.3533  0.0348 -0.1110
  396POPC   C3B 4751   7.491  11.341   7.635 -0.0346  0.2611  0.2282
  396POPC   C4B 4752   7.495  11.577   7.226 -0.1835 -0.2326 -0.2510
  397POPC   NC3 4753   5.178  11.846   8.704  0.1667  0.1868 -0.0610
  397POPC   PO4 4754   5.129  11.832   8.364 -0.0547  0.1738 -0.0282
  397POPC   GL1 4755   5.282  12.039   8.111  0.1863 -0.2459 -0.1952
  397POPC   GL2 4756   5.370  11.833   7.924 -0.2758 -0.0118 -0.1012
  397POPC   C1A 4757   5.505  12.368   7.843 -0.0362  0.0888 -0.1682
  397POPC   D2A 4758   5.954  12.304   7.790 -0.0408 -0.0292 -0.0433
  397POPC   C3A 4759   6.141  11.978   7.514  0.2115 -0.0503 -0.1018
  397POPC   C4A 4760   6.289  11.672   7.249 -0.0519 -0.1025  0.1715
  397POPC   C1B 4761   5.652  11.935   7.573  0.2131  0.0341 -0.4425
  397POPC   C2B 4762   5.736  11.940   7.167  0.0491  0.2926  0.0156
  397POPC   C3B 4763   5.813  11.608   6.893 -0.0831 -0.3947 -0.0926
  397POPC   C4B 4764   5.653  11.360   6.521 -0.0606 -0.2779  0.1002
  398POPC   NC3 4765   7.544   1.287  10.892  0.0352  0.3315  0.1265
  398POPC   PO4 4766   7.900   1.150  10.885 -0.0072 -0.0318 -0.0858
  398POPC   GL1 4767   8.185   1.381  11.004  0.0840 -0.3169 -0.0939
  398POPC   GL2 4768   8.109   1.631  11.177 -0.0917  0.0864  0.0120
  398POPC   C1A 4769   8.560   1.701  10.908 -0.2156  0.2687 -0.0203
  398POPC   D2A 4770   8.763   1.995  10.643  0.3694 -0.1203  0.0100
  398POPC   C3A 4771   8.969   2.390  10.745  0.0752 -0.1402  0.0926
  398POPC   C4A 4772   8.925   2.868  10.750 -0.2168  0.0929  0.1045
  398POPC   C1B 4773   8.250   1.999  11.466 -0.4687 -0.0235 -0.0197
  398POPC   C2B 4774   8.468   2.391  11.556  0.1460 -0.1253 -0.0924
  398POPC   C3B 4775   8.530   2.865  11.608  0.0995 -0.0855 -0.5508
  398POPC   C4B 4776   8.679   3.302  11.570  0.0027 -0.0867  0.0088
  399POPC   NC3 4777   4.564   4.521  13.966  0.0315  0.3003 -0.1178
  399POPC   PO4 4778   4.300   4.524  14.255 -0.2492 -0.2175 -0.1101
  399POPC   GL1 4779   4.554   4.459  14.513 -0.0290 -0.0724  0.0769
  399POPC   GL2 4780   4.639   4.176  14.448  0.0670 -0.0050  0.0957
  399POPC   C1A 4781   4.990   4.525  14.436 -0.2189 -0.0229  0.4008
  399POPC   D2A 4782   5.371   4.354  14.444 -0.2552 -0.0518 -0.2861
  399POPC   C3A 4783   5.566   4.537  14.862  0.2782 -0.1388  0.1524
  399POPC   C4A 4784   5.784   4.691  15.188  0.0731 -0.1001 -0.5479
  399POPC   C1B 4785   4.882   4.096  14.784 -0.2081  0.2678 -0.3148
  399POPC   C2B 4786   5.112   3.989  15.166 -0.4408 -0.0227 -0.2876
  399POPC   C3B 4787   5.480   4.177  15.296  0.0235 -0.1578  0.0980
  399POPC   C4B 4788   5.578   4.474  15.649 -0.2154  0.0496  0.2870
  400POPC   NC3 4789   9.771  15.581   9.112  0.1164 -0.4069  0.1853
  400POPC   PO4 4790  10.062  15.312   9.131  0.1437 -0.0452  0.0975
  400POPC   GL1 4791  10.097  15.352   8.672  0.4601  0.1358 -0.2105
  400POPC   GL2 4792  10.270  15.530   8.568  0.5399  0.0604  0.1300
  400POPC   C1A 4793  10.007  15.206   8.246  0.1598  0.0063 -0.0193
  400POPC   D2A 4794   9.986  14.979   7.855  0.1228  0.0543 -0.0435
  400POPC   C3A 4795  10.024  15.108   7.414 -0.1075  0.3541 -0.1144
  400POPC   C4A 4796  10.223  15.546   7.215  0.0025  0.2874 -0.1309
  400POPC   C1B 4797  10.067  15.730   8.202 -0.1434 -0.0233  0.1457
  400POPC   C2B 4798  10.057  15.589   7.727 -0.2207 -0.2446 -0.0137
  400POPC   C3B 4799   9.733  15.605   7.336  0.0267  0.0423  0.2239
  400POPC   C4B 4800   9.279  15.517   7.240  0.1073 -0.0800  0.0965
  401POPC   NC3 4801   3.627   3.600   9.194 -0.3103  0.0394  0.1208
  401POPC   PO4 4802   3.325   3.375   9.098 -0.0623 -0.4838  0.0266
  401POPC   GL1 4803   3.458   3.270   8.754  0.4269  0.0686  0.0095
  401POPC   GL2 4804   3.607   3.532   8.669 -0.3365  0.0535  0.0790
  401POPC   C1A 4805   3.403   3.217   8.294  0.0148 -0.1419 -0.3131
  401POPC   D2A 4806   3.337   3.158   7.845  0.0982  0.4922 -0.1950
  401POPC   C3A 4807   3.227   3.470   7.517 -0.0859  0.3797 -0.6962
  401POPC   C4A 4808   3.058   3.573   7.123  0.2710 -0.0555  0.1311
  401POPC   C1B 4809   3.274   3.702   8.367  0.0843  0.0006 -0.1098
  401POPC   C2B 4810   3.056   3.547   8.004 -0.0724  0.1506  0.0849
  401POPC   C3B 4811   2.764   3.601   7.641 -0.1629  0.0897 -0.0520
  401POPC   C4B 4812   2.513   3.449   7.328  0.0278 -0.1413  0.3775
  402POPC   NC3 4813   1.562   0.652   8.432  0.1968 -0.2429 -0.0694
  402POPC   PO4 4814   1.165   0.781   8.510  0.0261  0.1293 -0.1174
  402POPC   GL1 4815   1.224   0.678   8.131  0.0433  0.2177  0.0136
  402POPC   GL2 4816   1.077   0.415   8.091  0.1528  0.4056  0.2383
  402POPC   C1A 4817   1.427   0.926   7.744 -0.1529  0.2201 -0.1220
  402POPC   D2A 4818   1.536   1.146   7.338 -0.1414 -0.2459  0.0986
  402POPC   C3A 4819   1.263   1.275   7.017  0.2955 -0.0688 -0.5033
  402POPC   C4A 4820   0.929   1.554   6.811 -0.3729  0.1099 -0.2583
  402POPC   C1B 4821   1.010   0.609   7.680 -0.1812 -0.2841  0.3140
  402POPC   C2B 4822   1.110   0.825   7.291 -0.0022 -0.0289 -0.0677
  402POPC   C3B 4823   0.811   0.989   7.002  0.1778 -0.1483 -0.0519
  402POPC   C4B 4824   0.644   1.125   6.633  0.1445 -0.0869 -0.0235
  403POPC   NC3 4825   8.012   0.908  14.160  0.2447 -0.0655 -0.0637
  403POPC   PO4 4826   8.131   0.862  13.779 -0.0239 -0.1649 -0.0944
  403POPC   GL1 4827   8.174   1.211  13.626 -0.1460 -0.3385  0.0938
  403POPC   GL2 4828   8.068   1.308  13.429 -0.0646  0.1411  0.3524
  403POPC   C1A 4829   8.453   1.482  13.812 -0.2047 -0.1926 -0.0990
  403POPC   D2A 4830   8.696   1.748  14.071  0.2642 -0.1375 -0.2114
  403POPC   C3A 4831   8.694   2.169  13.938 -0.0076 -0.0085 -0.0983
  403POPC   C4A 4832   9.000   2.503  13.896 -0.3479  0.1451 -0.1504
  403POPC   C1B 4833   8.064   1.729  13.521 -0.2014  0.1208  0.1443
  403POPC   C2B 4834   8.295   2.101  13.641  0.3769  0.0290  0.0834
  403POPC   C3B 4835   8.474   2.496  13.567 -0.1701  0.2503  0.1360
  403POPC   C4B 4836   8.638   2.888  13.703  0.1106  0.2859  0.0956
  404POPC   NC3 4837  13.959   2.675  10.792  0.1672 -0.1009 -0.1770
  404POPC   PO4 4838  13.720   2.652  10.511 -0.0725  0.1428  0.0312
  404POPC   GL1 4839  13.405   2.863  10.403 -0.2282  0.4579 -0.2842
  404POPC   GL2 4840  13.403   2.765  10.106  0.0777  0.2707 -0.0725
  404POPC   C1A 4841  13.128   3.221  10.486  0.5003 -0.0657  0.0262
  404POPC   D2A 4842  12.739   3.401  10.678  0.1420  0.1579  0.2454
  404POPC   C3A 4843  12.465   3.739  10.477 -0.2819  0.0311  0.1381
  404POPC   C4A 4844  12.232   4.106  10.446 -0.2954 -0.1241 -0.2292
  404POPC   C1B 4845  13.173   3.025   9.808 -0.2555 -0.1733  0.3177
  404POPC   C2B 4846  12.859   3.082   9.453 -0.3956  0.1987  0.2753
  404POPC   C3B 4847  12.484   3.235   9.272  0.2056 -0.4898  0.1531
  404POPC   C4B 4848  12.344   3.459   8.895  0.2300 -0.2906 -0.1047
  405POPC   NC3 4849  14.412   4.511  10.544 -0.2376 -0.1824  0.0287
  405POPC   PO4 4850  14.579   4.303  10.231 -0.2011  0.0651  0.1843
  405POPC   GL1 4851  14.301   4.449  10.025  0.2074 -0.0360 -0.0692
  405POPC   GL2 4852  14.224   4.202   9.860 -0.0341 -0.1313  0.5075
  405POPC   C1A 4853  13.862   4.585   9.822 -0.3296  0.0703  0.0852
  405POPC   D2A 4854  13.662   4.514   9.384 -0.0102 -0.1303 -0.1443
  405POPC   C3A 4855  13.420   4.073   9.323 -0.1064  0.2077  0.0057
  405POPC   C4A 4856  13.429   3.758   8.958  0.1844  0.0578 -0.1844
  405POPC   C1B 4857  14.152   4.231   9.452  0.4651 -0.2652 -0.1018
  405POPC   C2B 4858  14.090   4.480   9.122  0.1524 -0.1686 -0.1332
  405POPC   C3B 4859  13.901   4.825   8.875  0.3545  0.4299  0.0702
  405POPC   C4B 4860  13.924   5.134   8.587  0.1922  0.1601  0.0256
  406POPC   NC3 4861  14.071   4.590  13.256 -0.1345  0.1442 -0.2196
  406POPC   PO4 4862  13.989   4.795  12.921 -0.1957 -0.1751  0.1513
  406POPC   GL1 4863  13.602   4.666  12.946 -0.2014 -0.1562 -0.0870
  406POPC   GL2 4864  13.383   4.547  12.738 -0.2197 -0.0698  0.1777
  406POPC   C1A 4865  13.200   4.737  13.198 -0.2674 -0.1312  0.2180
  406POPC   D2A 4866  12.829   4.917  13.453 -0.0062 -0.0708  0.1570
  406POPC   C3A 4867  12.347   4.721  13.518  0.2936 -0.1528  0.0670
  406POPC   C4A 4868  12.022   4.608  13.830  0.0118  0.1282  0.0392
  406POPC   C1B 4869  12.948   4.671  12.682 -0.1776 -0.0073  0.1881
  406POPC   C2B 4870  12.516   4.711  12.697 -0.1478 -0.1218 -0.0932
  406POPC   C3B 4871  12.047   4.898  12.609  0.0573  0.1943 -0.1600
  406POPC   C4B 4872  11.645   5.022  12.854 -0.2051 -0.1402  0.0163
  407POPC   NC3 4873  12.683  13.910   8.490 -0.1067 -0.0687  0.0056
  407POPC   PO4 4874  12.273  13.920   8.497  0.2380 -0.1143 -0.0227
  407POPC   GL1 4875  12.062  13.852   8.110  0.2078  0.1029 -0.0627
  407POPC   GL2 4876  12.356  13.922   8.009 -0.1636 -0.0238 -0.0235
  407POPC   C1A 4877  12.210  13.533   7.780 -0.0158 -0.0739 -0.0510
  407POPC   D2A 4878  11.971  13.430   7.358  0.0726 -0.0041  0.1973
  407POPC   C3A 4879  11.605  13.156   7.114  0.0147  0.1076 -0.0988
  407POPC   C4A 4880  11.329  13.008   6.798  0.0839  0.3415  0.0660
  407POPC   C1B 4881  12.543  13.935   7.602  0.0981 -0.1052 -0.0800
  407POPC   C2B 4882  12.665  13.624   7.246 -0.3743 -0.0458 -0.2938
  407POPC   C3B 4883  12.846  13.387   6.891 -0.2732 -0.0099  0.1922
  407POPC   C4B 4884  13.052  13.147   6.579 -0.0605 -0.1435  0.0081
  408POPC   NC3 4885   6.446  11.349   9.468 -0.1039 -0.2182  0.0663
  408POPC   PO4 4886   6.411  10.953   9.515 -0.1014  0.0806  0.1145
  408POPC   GL1 4887   6.627  10.941   9.145  0.0964 -0.1584 -0.0137
  408POPC   GL2 4888   6.758  10.691   9.086  0.0127 -0.0877 -0.4054
  408POPC   C1A 4889   6.714  11.032   8.654  0.0207 -0.1583  0.1474
  408POPC   D2A 4890   6.865  10.805   8.247  0.0261 -0.0507 -0.2505
  408POPC   C3A 4891   7.040  10.473   7.980  0.1578 -0.4550  0.2237
  408POPC   C4A 4892   7.023  10.505   7.558 -0.0286  0.0867  0.0674
  408POPC   C1B 4893   7.006  10.609   8.725  0.0266 -0.2320 -0.4161
  408POPC   C2B 4894   7.304  10.521   8.396 -0.2654 -0.0599  0.0326
  408POPC   C3B 4895   7.440  10.111   8.209  0.0408 -0.1044 -0.0532
  408POPC   C4B 4896   7.132   9.960   7.894 -0.1783 -0.1818 -0.0919
  409POPC   NC3 4897   6.335   2.403  10.807  0.0420  0.2458  0.0306
  409POPC   PO4 4898   6.392   2.056  10.645 -0.0938 -0.0266  0.2851
  409POPC   GL1 4899   6.620   2.141  10.389 -0.1503 -0.0817 -0.0413
  409POPC   GL2 4900   6.468   2.277  10.144  0.0006 -0.0305 -0.0314
  409POPC   C1A 4901   6.860   2.071   9.976  0.1281  0.0162 -0.4172
  409POPC   D2A 4902   7.105   2.180   9.583 -0.1626  0.0476  0.1188
  409POPC   C3A 4903   7.027   2.271   9.164  0.2104 -0.0543 -0.0127
  409POPC   C4A 4904   7.081   2.237   8.770  0.2171  0.1029  0.1155
  409POPC   C1B 4905   6.740   2.540   9.841  0.0148  0.1669 -0.1615
  409POPC   C2B 4906   7.182   2.694   9.813  0.0464 -0.2607  0.2180
  409POPC   C3B 4907   7.544   3.043   9.555 -0.3315 -0.1286 -0.3315
  409POPC   C4B 4908   7.828   3.010   9.218  0.1900 -0.1557 -0.1739
  410POPC   NC3 4909   9.173   0.652  14.031 -0.1222 -0.1462  0.1298
  410POPC   PO4 4910   8.786   0.627  13.915  0.1483  0.1605  0.1738
  410POPC   GL1 4911   8.937   0.995  13.965 -0.0512 -0.0508  0.0608
  410POPC   GL2 4912   8.654   1.064  14.030 -0.0305  0.0122  0.1152
  410POPC   C1A 4913   8.954   1.297  13.601  0.2629  0.1152 -0.1985
  410POPC   D2A 4914   9.144   1.588  13.311 -0.0791 -0.1196 -0.0908
  410POPC   C3A 4915   9.556   1.817  13.499  0.2740 -0.1245  0.1534
  410POPC   C4A 4916   9.421   2.268  13.659  0.0027  0.2231  0.0685
  410POPC   C1B 4917   8.397   1.123  14.423  0.1010  0.4031 -0.0480
  410POPC   C2B 4918   7.983   1.340  14.480  0.1744 -0.1748 -0.0239
  410POPC   C3B 4919   7.744   1.422  14.847  0.1736 -0.0816 -0.1217
  410POPC   C4B 4920   7.562   1.297  15.256 -0.0160  0.2486  0.0917
  411POPC   NC3 4921  14.371   1.607   9.109 -0.1959 -0.0118 -0.1355
  411POPC   PO4 4922  14.465   1.771   9.463 -0.0408  0.0436  0.3497
  411POPC   GL1 4923  14.506   2.034   9.083 -0.0027 -0.1818 -0.1505
  411POPC   GL2 4924  14.269   2.155   9.122 -0.0643  0.0851 -0.0044
  411POPC   C1A 4925  14.650   2.195   8.671  0.3458 -0.0725  0.1824
  411POPC   D2A 4926  14.838   2.332   8.292 -0.0255  0.1452  0.2805
  411POPC   C3A 4927  14.697   2.228   7.908  0.1141 -0.1552  0.1878
  411POPC   C4A 4928  14.630   2.161   7.502  0.2083  0.0071 -0.1447
  411POPC   C1B 4929  13.874   2.460   9.101 -0.1961  0.2559 -0.1492
  411POPC   C2B 4930  13.643   2.852   8.905  0.0217  0.1380  0.3689
  411POPC   C3B 4931  13.351   3.181   8.816 -0.1189 -0.0727  0.1857
  411POPC   C4B 4932  13.207   3.421   8.394 -0.1194  0.0046  0.1341
  412POPC   NC3 4933   2.555  13.704   7.603  0.1974  0.0186  0.0835
  412POPC   PO4 4934   2.505  13.372   7.766  0.1297  0.0515  0.0704
  412POPC   GL1 4935   2.414  13.313   7.400  0.1973 -0.0157  0.3019
  412POPC   GL2 4936   2.627  13.373   7.230 -0.0270  0.1221 -0.1284
  412POPC   C1A 4937   2.259  13.232   6.914 -0.0835 -0.3716 -0.2634
  412POPC   D2A 4938   2.379  13.490   6.547  0.2197  0.1752  0.3010
  412POPC   C3A 4939   2.272  13.357   6.131 -0.0286 -0.0886  0.2045
  412POPC   C4A 4940   1.955  13.621   5.926 -0.1148  0.0532  0.0153
  412POPC   C1B 4941   2.718  13.636   6.850 -0.0407 -0.0227  0.1808
  412POPC   C2B 4942   2.870  13.789   6.426 -0.0414  0.0875 -0.0210
  412POPC   C3B 4943   3.018  13.994   6.061  0.0224 -0.0638 -0.1112
  412POPC   C4B 4944   3.303  14.298   5.801 -0.1122 -0.1272  0.1561
  413POPC   NC3 4945   7.423  11.854   9.166 -0.1883  0.2705  0.1273
  413POPC   PO4 4946   7.183  11.711   9.440 -0.1399 -0.0687  0.0619
  413POPC   GL1 4947   7.367  11.327   9.252 -0.2991 -0.2883 -0.0126
  413POPC   GL2 4948   7.661  11.384   9.350  0.1481  0.1458 -0.2285
  413POPC   C1A 4949   7.715  11.154   8.945  0.0553  0.0968  0.0004
  413POPC   D2A 4950   8.020  10.868   8.727 -0.0650 -0.2520 -0.1271
  413POPC   C3A 4951   7.831  10.848   8.320  0.0068 -0.0396  0.0222
  413POPC   C4A 4952   7.662  10.585   7.988 -0.0113  0.0617  0.1304
  413POPC   C1B 4953   8.053  11.459   9.137  0.0279  0.1873 -0.1022
  413POPC   C2B 4954   8.125  11.458   8.661  0.1684 -0.0149  0.1557
  413POPC   C3B 4955   8.224  11.379   8.223  0.0972 -0.1009  0.2441
  413POPC   C4B 4956   8.408  11.245   7.831 -0.0981 -0.1980  0.3731
  414POPC   NC3 4957  13.865  15.277   8.576  0.0523 -0.1873 -0.0257
  414POPC   PO4 4958  13.661  15.582   8.455  0.0956 -0.2599  0.3254
  414POPC   GL1 4959  13.499  15.870   8.265  0.0600 -0.1323 -0.2889
  414POPC   GL2 4960  13.195  15.890   8.296 -0.1243 -0.0540  0.0032
  414POPC   C1A 4961  13.347  16.039   7.847 -0.0899 -0.1044 -0.4113
  414POPC   D2A 4962  13.438  16.208   7.431 -0.1814  0.3189  0.2015
  414POPC   C3A 4963  13.087  16.233   7.162 -0.0173  0.2238 -0.1078
  414POPC   C4A 4964  12.910  16.169   6.735  0.1470 -0.2768  0.4362
  414POPC   C1B 4965  13.142  15.556   7.932 -0.3404  0.0156 -0.2183
  414POPC   C2B 4966  13.070  15.405   7.500 -0.0133  0.1000 -0.0604
  414POPC   C3B 4967  12.985  15.272   7.063 -0.0340  0.1598 -0.0622
  414POPC   C4B 4968  13.100  15.017   6.708  0.2597 -0.1756 -0.0297
  415POPC   NC3 4969  10.617  14.588   8.979  0.1173 -0.1350  0.2877
  415POPC   PO4 4970  10.805  14.902   9.086 -0.2366 -0.2303  0.0238
  415POPC   GL1 4971  10.773  15.007   8.738 -0.0760  0.0332 -0.0413
  415POPC   GL2 4972  10.696  14.832   8.487  0.3304 -0.2882 -0.1375
  415POPC   C1A 4973  10.665  15.290   8.429 -0.2361 -0.2632  0.1470
  415POPC   D2A 4974  10.452  15.479   8.090  0.0206 -0.1644  0.2280
  415POPC   C3A 4975  10.574  15.556   7.616 -0.2631  0.0189  0.1188
  415POPC   C4A 4976  10.832  15.629   7.233  0.0829  0.2210 -0.0893
  415POPC   C1B 4977  10.989  14.975   8.081 -0.0119 -0.0697 -0.0788
  415POPC   C2B 4978  11.311  14.961   7.734  0.0197  0.1195  0.0795
  415POPC   C3B 4979  11.543  15.103   7.327  0.1001  0.0511  0.2949
  415POPC   C4B 4980  11.319  15.502   7.161  0.3447 -0.2762  0.1247
  416POPC   NC3 4981   4.819  15.040   8.568  0.2069  0.1318  0.1792
  416POPC   PO4 4982   5.178  14.932   8.627 -0.0916 -0.2054  0.0792
  416POPC   GL1 4983   5.163  14.873   8.225 -0.5699 -0.5291 -0.6021
  416POPC   GL2 4984   5.127  15.175   8.230 -0.1458 -0.0747  0.0786
  416POPC   C1A 4985   4.769  14.917   8.032 -0.0944  0.0903  0.2778
  416POPC   D2A 4986   4.390  15.236   7.836  0.0116 -0.0467 -0.1421
  416POPC   C3A 4987   4.522  15.465   7.472 -0.0540 -0.1094  0.1698
  416POPC   C4A 4988   4.467  15.633   7.057  0.1802  0.2112  0.1619
  416POPC   C1B 4989   5.391  15.338   7.882  0.0079  0.4038 -0.3576
  416POPC   C2B 4990   5.592  15.204   7.492  0.0486  0.0463  0.1337
  416POPC   C3B 4991   5.936  15.296   7.261  0.1825 -0.2459 -0.0464
  416POPC   C4B 4992   6.026  15.675   7.089 -0.0787 -0.0534 -0.0956
  417POPC   NC3 4993   4.112   3.357  14.597  0.3711 -0.1392 -0.1260
  417POPC   PO4 4994   4.384   3.223  14.376 -0.0368  0.1288 -0.1344
  417POPC   GL1 4995   4.490   3.253  14.787 -0.2012 -0.0078  0.1012
  417POPC   GL2 4996   4.626   3.569  14.746 -0.0731 -0.1654 -0.0857
  417POPC   C1A 4997   4.879   3.093  14.998  0.3630 -0.3564  0.0578
  417POPC   D2A 4998   5.234   2.897  15.278  0.1148  0.1131 -0.3477
  417POPC   C3A 4999   5.471   3.213  15.483  0.3105 -0.2756 -0.1482
  417POPC   C4A 5000   5.613   3.459  15.819  0.2069  0.3423 -0.1664
  417POPC   C1B 5001   4.891   3.575  15.114 -0.1163 -0.2667 -0.0126
  417POPC   C2B 5002   4.998   3.398  15.533 -0.0796 -0.0034  0.2711
  417POPC   C3B 5003   5.133   3.358  16.036 -0.2684 -0.0743  0.1186
  417POPC   C4B 5004   5.315   3.583  16.396  0.0124  0.1853  0.0339
  418POPC   NC3 5005  11.385  12.990   8.924 -0.3269  0.0428 -0.3615
  418POPC   PO4 5006  11.753  13.087   8.869  0.5349  0.3274 -0.1060
  418POPC   GL1 5007  11.727  13.289   8.515  0.0620 -0.0364 -0.1268
  418POPC   GL2 5008  11.537  13.028   8.436  0.0523  0.0848 -0.1849
  418POPC   C1A 5009  11.768  13.222   8.024 -0.0250  0.2503 -0.0066
  418POPC   D2A 5010  12.072  13.075   7.788 -0.3654 -0.0284  0.2589
  418POPC   C3A 5011  12.059  12.923   7.310  0.1074  0.1063 -0.0597
  418POPC   C4A 5012  11.737  12.701   7.054  0.3053  0.1793 -0.0443
  418POPC   C1B 5013  11.237  12.858   8.115 -0.3649  0.0905  0.0197
  418POPC   C2B 5014  11.234  12.527   7.763  0.0681 -0.1992 -0.3640
  418POPC   C3B 5015  11.457  12.342   7.404 -0.0414 -0.2116 -0.0279
  418POPC   C4B 5016  11.388  12.220   7.005  0.0617  0.0127  0.2235
  419POPC   NC3 5017   5.961   2.626  12.629  0.0513 -0.0505 -0.2385
  419POPC   PO4 5018   6.004   2.254  12.521 -0.0385 -0.0662  0.0641
  419POPC   GL1 5019   6.263   2.487  12.324  0.1157  0.3109 -0.2013
  419POPC   GL2 5020   6.443   2.459  12.143 -0.0613  0.1361  0.1736
  419POPC   C1A 5021   6.461   2.890  12.472 -0.0850 -0.0706 -0.3353
  419POPC   D2A 5022   6.747   3.165  12.654 -0.1390  0.0984  0.0116
  419POPC   C3A 5023   6.931   3.558  12.738  0.1002 -0.4827  0.3355
  419POPC   C4A 5024   7.045   3.902  12.445 -0.3172  0.1341 -0.2059
  419POPC   C1B 5025   6.711   2.808  12.041 -0.0536  0.0457 -0.3352
  419POPC   C2B 5026   7.014   3.114  12.215  0.1746 -0.2551  0.1966
  419POPC   C3B 5027   7.320   3.470  12.337  0.2658 -0.0039  0.0152
  419POPC   C4B 5028   7.509   3.824  12.160  0.2972 -0.0504 -0.0901
  420POPC   NC3 5029   3.869   5.125   9.582 -0.3412 -0.1158  0.0583
  420POPC   PO4 5030   4.269   5.145   9.678  0.1260  0.2829  0.0844
  420POPC   GL1 5031   4.536   5.073   9.435 -0.4408  0.0397  0.0860
  420POPC   GL2 5032   4.763   5.288   9.562 -0.3459 -0.0765 -0.0783
  420POPC   C1A 5033   4.680   4.757   9.059  0.2854 -0.1388  0.0220
  420POPC   D2A 5034   4.570   4.652   8.653 -0.3265 -0.1505  0.0745
  420POPC   C3A 5035   4.361   4.790   8.260 -0.0700  0.1775  0.1104
  420POPC   C4A 5036   4.002   4.875   8.024 -0.2483  0.0505  0.0824
  420POPC   C1B 5037   4.625   5.401   9.140 -0.1169  0.1842  0.4054
  420POPC   C2B 5038   4.433   5.603   8.751 -0.1966 -0.0052  0.0957
  420POPC   C3B 5039   4.129   5.846   8.501 -0.0442  0.1905  0.2001
  420POPC   C4B 5040   3.698   5.833   8.417 -0.1448 -0.2658  0.1397
  421POPC   NC3 5041   1.181  10.070   8.895 -0.0609  0.1007 -0.1173
  421POPC   PO4 5042   0.875  10.269   8.902 -0.1415  0.1066  0.1116
  421POPC   GL1 5043   0.712  10.062   8.527 -0.2197  0.0405  0.2111
  421POPC   GL2 5044   0.488  10.098   8.287 -0.0892 -0.2817 -0.0774
  421POPC   C1A 5045   0.756   9.629   8.354  0.0829  0.1004  0.0355
  421POPC   D2A 5046   0.918   9.365   8.028 -0.4760 -0.0888  0.2035
  421POPC   C3A 5047   0.878   9.329   7.555  0.0842  0.1475  0.2803
  421POPC   C4A 5048   1.110   9.129   7.188 -0.0730  0.1009 -0.0280
  421POPC   C1B 5049   0.556  10.011   7.812 -0.1686 -0.0509  0.3560
  421POPC   C2B 5050   0.441   9.673   7.522  0.1179  0.0473  0.1061
  421POPC   C3B 5051   0.161   9.353   7.398  0.3604 -0.0868 -0.3418
  421POPC   C4B 5052  -0.214   9.230   7.137 -0.1957  0.4724  0.1849
  422POPC   NC3 5053   6.049  13.500   8.925 -0.0946 -0.0569 -0.2863
  422POPC   PO4 5054   5.864  13.595   8.621  0.0615 -0.1151  0.1013
  422POPC   GL1 5055   5.897  13.603   8.202  0.2409 -0.0338  0.1185
  422POPC   GL2 5056   5.986  13.316   8.089 -0.0607 -0.0553 -0.2783
  422POPC   C1A 5057   5.869  13.850   7.810 -0.2839  0.2213  0.0402
  422POPC   D2A 5058   6.039  14.015   7.376  0.0220  0.0437 -0.2187
  422POPC   C3A 5059   5.800  13.815   6.997 -0.0468 -0.0967 -0.0085
  422POPC   C4A 5060   5.720  13.796   6.555  0.0480 -0.0212  0.1593
  422POPC   C1B 5061   6.176  13.333   7.650  0.0169  0.3398 -0.2733
  422POPC   C2B 5062   6.273  13.518   7.213  0.3405  0.0318 -0.2388
  422POPC   C3B 5063   6.588  13.644   6.889 -0.2983 -0.0476  0.1748
  422POPC   C4B 5064   6.931  13.819   6.624 -0.2939 -0.1121  0.1022
  423POPC   NC3 5065  13.915   9.222  11.159  0.1945  0.0525  0.1024
  423POPC   PO4 5066  13.633   9.126  11.434  0.0892  0.0906 -0.0435
  423POPC   GL1 5067  13.492   8.797  11.276  0.3119 -0.1957  0.0520
  423POPC   GL2 5068  13.674   8.780  10.986  0.0481  0.1083 -0.0012
  423POPC   C1A 5069  13.067   8.578  11.112 -0.2715 -0.0939  0.1047
  423POPC   D2A 5070  12.747   8.306  10.891  0.0531  0.3742 -0.2441
  423POPC   C3A 5071  12.559   8.059  10.494  0.0541 -0.0812 -0.3286
  423POPC   C4A 5072  12.140   7.808  10.404  0.2135  0.1161  0.0012
  423POPC   C1B 5073  13.376   8.555  10.636 -0.2088  0.0601 -0.0474
  423POPC   C2B 5074  13.213   8.347  10.260  0.1130 -0.3008 -0.0845
  423POPC   C3B 5075  13.020   8.503   9.870 -0.1663 -0.2229 -0.0046
  423POPC   C4B 5076  12.857   8.283   9.436  0.1336  0.1721  0.1795
  424POPC   NC3 5077  11.976   1.707  13.000  0.0453 -0.1788 -0.0414
  424POPC   PO4 5078  11.738   1.461  12.779 -0.0611  0.4055  0.1832
  424POPC   GL1 5079  11.537   1.604  13.208  0.0625  0.1467  0.3215
  424POPC   GL2 5080  11.287   1.484  13.269  0.0246 -0.1337  0.5838
  424POPC   C1A 5081  11.379   2.027  13.370  0.0379 -0.0104  0.0039
  424POPC   D2A 5082  10.945   2.247  13.374 -0.2502 -0.3761 -0.1841
  424POPC   C3A 5083  10.903   2.607  13.659 -0.0443  0.0751  0.0388
  424POPC   C4A 5084  11.031   2.952  13.872  0.1734 -0.0699  0.2634
  424POPC   C1B 5085  11.066   1.532  13.673  0.0346 -0.2400 -0.4449
  424POPC   C2B 5086  10.996   1.699  14.051  0.0893  0.2832 -0.2853
  424POPC   C3B 5087  10.778   2.029  14.347  0.3061  0.2119 -0.0932
  424POPC   C4B 5088  10.713   2.441  14.545 -0.0638  0.4080 -0.2052
  425POPC   NC3 5089   5.761  10.320   9.651 -0.2381 -0.0075 -0.0874
  425POPC   PO4 5090   5.435  10.452   9.461 -0.0515 -0.2208  0.0133
  425POPC   GL1 5091   5.615  10.338   9.175  0.2308  0.0873  0.1300
  425POPC   GL2 5092   5.774  10.462   8.985 -0.4432  0.1221 -0.2000
  425POPC   C1A 5093   5.583  10.000   8.870  0.1168  0.3154 -0.0211
  425POPC   D2A 5094   5.505   9.612   8.608 -0.0592 -0.0932 -0.2043
  425POPC   C3A 5095   5.438   9.578   8.232  0.0126 -0.1485  0.1099
  425POPC   C4A 5096   5.263   9.570   7.835 -0.0477 -0.0629  0.3182
  425POPC   C1B 5097   5.868  10.348   8.561 -0.0963  0.3187  0.0737
  425POPC   C2B 5098   5.867   9.928   8.429 -0.0280  0.0379  0.0623
  425POPC   C3B 5099   6.083   9.536   8.319  0.0212 -0.1139  0.1274
  425POPC   C4B 5100   6.195   9.178   8.157 -0.0804  0.2800 -0.0143
  426POPC   NC3 5101   6.775   1.740  10.702 -0.1655 -0.0442  0.0340
  426POPC   PO4 5102   6.752   2.005  10.992  0.2831 -0.0057  0.0174
  426POPC   GL1 5103   6.738   2.334  11.029 -0.2511 -0.2138  0.1116
  426POPC   GL2 5104   6.961   2.360  11.288 -0.1528 -0.0691 -0.1898
  426POPC   C1A 5105   6.940   2.626  10.796  0.1305 -0.1746 -0.0963
  426POPC   D2A 5106   7.024   3.015  10.541 -0.2499 -0.1907 -0.2008
  426POPC   C3A 5107   6.928   2.980  10.086  0.0437  0.1794  0.1191
  426POPC   C4A 5108   7.132   3.213   9.750  0.3951  0.0314  0.4143
  426POPC   C1B 5109   7.320   2.611  11.188 -0.1245 -0.1162 -0.0170
  426POPC   C2B 5110   7.806   2.794  11.120 -0.2559  0.0994  0.1573
  426POPC   C3B 5111   8.197   2.927  11.096 -0.5430 -0.0586 -0.0359
  426POPC   C4B 5112   8.598   3.197  11.056  0.0390  0.0637  0.0343
  427POPC   NC3 5113   5.818   9.457  13.427  0.0464 -0.0826  0.0674
  427POPC   PO4 5114   5.684   9.083  13.342  0.1654 -0.1616 -0.0742
  427POPC   GL1 5115   5.931   8.820  13.349 -0.3047  0.2909 -0.0179
  427POPC   GL2 5116   6.048   8.620  13.499  0.0868 -0.4540  0.0875
  427POPC   C1A 5117   6.073   8.631  12.965 -0.0136 -0.2439  0.0540
  427POPC   D2A 5118   6.329   8.335  12.706  0.2517 -0.0201 -0.2084
  427POPC   C3A 5119   6.275   7.874  12.729  0.3278  0.0821  0.3333
  427POPC   C4A 5120   6.567   7.541  12.818  0.1418  0.1305 -0.1276
  427POPC   C1B 5121   6.434   8.541  13.307  0.0205 -0.0886 -0.3168
  427POPC   C2B 5122   6.845   8.495  13.122 -0.0184 -0.3391  0.0297
  427POPC   C3B 5123   7.173   8.209  13.057  0.2396  0.0619  0.1354
  427POPC   C4B 5124   7.434   7.857  13.232 -0.2268  0.0528  0.2376
  428POPC   NC3 5125  14.235  16.228   8.500 -0.4415 -0.1276  0.0896
  428POPC   PO4 5126  13.876  16.065   8.484 -0.0593 -0.1002  0.1741
  428POPC   GL1 5127  13.825  16.139   8.092 -0.0954  0.1225  0.3525
  428POPC   GL2 5128  13.860  15.897   7.984  0.0679 -0.0848  0.2350
  428POPC   C1A 5129  13.637  16.481   7.848  0.0757 -0.1879 -0.1026
  428POPC   D2A 5130  13.187  16.528   7.838 -0.2572 -0.0622  0.0624
  428POPC   C3A 5131  12.841  16.404   7.565  0.5626  0.1163  0.1917
  428POPC   C4A 5132  12.617  16.205   7.190  0.1323  0.0214 -0.0126
  428POPC   C1B 5133  13.939  16.074   7.534 -0.0418 -0.0266 -0.0119
  428POPC   C2B 5134  13.782  16.084   7.087 -0.1170 -0.3315  0.2273
  428POPC   C3B 5135  13.545  16.442   6.856  0.1308  0.0509  0.0494
  428POPC   C4B 5136  13.569  16.829   6.624  0.0770  0.0951  0.1179
  429POPC   NC3 5137  14.348   9.879  10.569  0.0727  0.0115  0.1195
  429POPC   PO4 5138  14.553   9.824  10.229  0.0343 -0.1953  0.3839
  429POPC   GL1 5139  14.302   9.901   9.839  0.0888 -0.1025 -0.3107
  429POPC   GL2 5140  14.066   9.796   9.994 -0.0033 -0.0409 -0.0248
  429POPC   C1A 5141  14.169   9.588   9.503 -0.3048 -0.1396 -0.2325
  429POPC   D2A 5142  14.110   9.348   9.126 -0.2263 -0.0040  0.1756
  429POPC   C3A 5143  13.842   9.507   8.783 -0.0652  0.1424  0.0259
  429POPC   C4A 5144  13.622   9.327   8.446  0.2047 -0.4732  0.0775
  429POPC   C1B 5145  13.731   9.635   9.725  0.2974 -0.2409 -0.2511
  429POPC   C2B 5146  13.647   9.407   9.414  0.3530 -0.2442  0.1122
  429POPC   C3B 5147  13.165   9.336   9.275  0.2711 -0.0802 -0.1770
  429POPC   C4B 5148  12.744   9.197   9.073 -0.1840 -0.0426  0.2608
  430POPC   NC3 5149   0.539  12.660   8.638 -0.0385 -0.1908  0.1982
  430POPC   PO4 5150   0.606  12.324   8.438  0.0108  0.2648  0.0743
  430POPC   GL1 5151   0.556  12.088   8.196  0.0246  0.0287 -0.0260
  430POPC   GL2 5152   0.474  12.230   7.960 -0.3384  0.4630  0.1671
  430POPC   C1A 5153   0.728  11.863   7.789 -0.1285  0.0120  0.1038
  430POPC   D2A 5154   0.537  11.989   7.384  0.0472  0.1744 -0.1777
  430POPC   C3A 5155   0.495  11.801   6.969  0.3544 -0.0185  0.1620
  430POPC   C4A 5156   0.345  11.566   6.604  0.0500 -0.0913 -0.0039
  430POPC   C1B 5157   0.154  12.319   7.605  0.0956  0.1669  0.1459
  430POPC   C2B 5158  -0.007  12.062   7.268 -0.3014 -0.1166  0.1096
  430POPC   C3B 5159  -0.138  12.038   6.802  0.2553 -0.1190 -0.0121
  430POPC   C4B 5160  -0.246  12.132   6.384  0.0346  0.4553 -0.3276
  431POPC   NC3 5161  13.132   1.962  10.814  0.1412 -0.3641  0.1462
  431POPC   PO4 5162  13.280   2.189  11.125  0.0644 -0.0783  0.0626
  431POPC   GL1 5163  13.174   2.436  10.844  0.3572 -0.3177  0.3689
  431POPC   GL2 5164  13.290   2.381  10.526  0.1016  0.0481  0.1472
  431POPC   C1A 5165  13.100   2.879  10.822  0.1775 -0.2784  0.3695
  431POPC   D2A 5166  12.685   3.048  11.003 -0.1455  0.4963  0.1437
  431POPC   C3A 5167  12.296   3.232  10.784 -0.4002 -0.3401 -0.1486
  431POPC   C4A 5168  11.976   3.442  10.392 -0.0699  0.0285 -0.0120
  431POPC   C1B 5169  12.938   2.580  10.277 -0.0653 -0.1025  0.4724
  431POPC   C2B 5170  12.746   2.847   9.965  0.1210 -0.0991  0.1804
  431POPC   C3B 5171  12.396   3.003   9.718  0.0908 -0.1700  0.0244
  431POPC   C4B 5172  12.094   3.394   9.555  0.1599  0.3425 -0.0793
  432POPC   NC3 5173  10.181  16.119   9.248  0.2928  0.0042  0.0044
  432POPC   PO4 5174  10.209  15.796   8.998 -0.1682 -0.1996 -0.2446
  432POPC   GL1 5175  10.105  15.932   8.652 -0.3102 -0.0363 -0.0713
  432POPC   GL2 5176   9.775  15.987   8.611 -0.0170 -0.1086  0.2686
  432POPC   C1A 5177  10.203  16.354   8.399  0.1871 -0.0054  0.1774
  432POPC   D2A 5178  10.637  16.490   8.203  0.3140 -0.1583  0.1153
  432POPC   C3A 5179  10.520  16.486   7.710 -0.0496  0.0512  0.0578
  432POPC   C4A 5180  10.133  16.668   7.513  0.1038  0.1419  0.1314
  432POPC   C1B 5181   9.686  16.458   8.481 -0.0577 -0.1129 -0.2474
  432POPC   C2B 5182   9.957  16.725   8.162 -0.1328  0.1769  0.0791
  432POPC   C3B 5183  10.051  17.081   7.858  0.0677 -0.1591  0.0037
  432POPC   C4B 5184   9.711  17.291   7.559 -0.2981 -0.0035 -0.0675
  433POPC   NC3 5185   2.054   1.388   8.543 -0.0534  0.0286 -0.0503
  433POPC   PO4 5186   2.002   0.963   8.587  0.2360  0.2570  0.3846
  433POPC   GL1 5187   2.044   1.158   8.145  0.0794  0.0527  0.0197
  433POPC   GL2 5188   1.775   1.154   8.063 -0.1344 -0.0527 -0.0662
  433POPC   C1A 5189   2.307   1.029   7.794  0.0687  0.2110 -0.1346
  433POPC   D2A 5190   2.601   1.160   7.464  0.3334  0.3449 -0.0015
  433POPC   C3A 5191   2.969   1.137   7.151  0.0466 -0.3059  0.0190
  433POPC   C4A 5192   3.297   1.462   7.057 -0.1087 -0.0266  0.3604
  433POPC   C1B 5193   1.954   1.352   7.667 -0.0298 -0.0196  0.1281
  433POPC   C2B 5194   2.184   1.316   7.257  0.2923  0.0499 -0.3684
  433POPC   C3B 5195   2.455   1.174   6.956  0.1312 -0.0536 -0.2494
  433POPC   C4B 5196   2.785   1.183   6.665 -0.1323  0.3120 -0.0183
  434POPC   NC3 5197   4.815   4.674  11.379  0.2411  0.1227 -0.0931
  434POPC   PO4 5198   5.087   4.710  11.134  0.0908  0.0787  0.0183
  434POPC   GL1 5199   5.259   4.770  10.812  0.1553  0.1523  0.1530
  434POPC   GL2 5200   5.188   4.713  10.557 -0.3557  0.0840 -0.1641
  434POPC   C1A 5201   5.340   5.193  10.776 -0.0904 -0.0722  0.0873
  434POPC   D2A 5202   5.765   5.388  10.555 -0.0508  0.0665  0.2650
  434POPC   C3A 5203   6.245   5.249  10.696  0.1646 -0.2806  0.1554
  434POPC   C4A 5204   6.578   5.067  10.953 -0.0051  0.0814  0.2068
  434POPC   C1B 5205   5.398   5.054  10.284 -0.1357 -0.0832  0.2619
  434POPC   C2B 5206   5.628   5.209   9.925  0.0887 -0.3477  0.0003
  434POPC   C3B 5207   5.770   5.249   9.481  0.0775  0.5137  0.1303
  434POPC   C4B 5208   5.975   5.162   9.083  0.0812 -0.0573 -0.1081
  435POPC   NC3 5209   8.240  14.305   8.742  0.1319  0.1808 -0.0895
  435POPC   PO4 5210   8.365  13.946   8.767  0.0879 -0.0682 -0.1219
  435POPC   GL1 5211   8.329  13.946   8.402 -0.1385 -0.3077 -0.0862
  435POPC   GL2 5212   8.287  13.647   8.258  0.3015  0.0445 -0.0600
  435POPC   C1A 5213   8.220  14.226   8.050  0.0913  0.0577 -0.1580
  435POPC   D2A 5214   8.076  14.579   7.700  0.1912  0.2439  0.1978
  435POPC   C3A 5215   7.996  14.524   7.309 -0.1277 -0.0316 -0.0053
  435POPC   C4A 5216   7.830  14.578   6.905 -0.1205  0.1608  0.1202
  435POPC   C1B 5217   8.413  13.711   7.816 -0.2038  0.1541 -0.1159
  435POPC   C2B 5218   8.589  13.679   7.350 -0.0513  0.1252 -0.1416
  435POPC   C3B 5219   8.304  13.655   6.973  0.2961  0.2477 -0.0736
  435POPC   C4B 5220   8.395  13.580   6.527  0.2881  0.1718  0.2307
  436POPC   NC3 5221  12.981  11.320   9.262  0.0085 -0.1809  0.0442
  436POPC   PO4 5222  13.236  11.068   9.059  0.1721 -0.2255 -0.2157
  436POPC   GL1 5223  13.239  10.862   8.723 -0.2740 -0.3722 -0.2027
  436POPC   GL2 5224  13.526  11.066   8.656  0.6307  0.2217  0.1335
  436POPC   C1A 5225  13.156  10.593   8.393  0.0049  0.4197 -0.4563
  436POPC   D2A 5226  13.152  10.509   7.897  0.0827 -0.2034 -0.2104
  436POPC   C3A 5227  13.457  10.644   7.564  0.1564 -0.2175  0.2432
  436POPC   C4A 5228  13.514  10.914   7.240 -0.0417  0.1604  0.0346
  436POPC   C1B 5229  13.274  11.046   8.282  0.0674  0.2143 -0.2521
  436POPC   C2B 5230  12.924  11.018   7.988 -0.2530  0.1837 -0.1042
  436POPC   C3B 5231  12.838  10.758   7.604 -0.0506 -0.3126  0.0722
  436POPC   C4B 5232  12.866  10.290   7.542  0.3352 -0.0954 -0.0259
  437POPC   NC3 5233  15.038   4.703  14.908  0.0175 -0.3180  0.1827
  437POPC   PO4 5234  14.718   4.610  14.835 -0.1335  0.2359  0.0722
  437POPC   GL1 5235  14.652   4.704  15.189  0.2825  0.2402 -0.4670
  437POPC   GL2 5236  14.378   4.816  15.132  0.1369 -0.2431 -0.0615
  437POPC   C1A 5237  14.748   4.519  15.602 -0.1790  0.1913 -0.3405
  437POPC   D2A 5238  14.723   4.320  16.054 -0.2028  0.0813  0.2518
  437POPC   C3A 5239  14.441   4.619  16.203 -0.0570 -0.2566 -0.3943
  437POPC   C4A 5240  13.974   4.725  16.303 -0.2878 -0.2067  0.0247
  437POPC   C1B 5241  14.013   4.717  15.351 -0.1199  0.1595  0.3832
  437POPC   C2B 5242  13.760   4.631  15.725  0.1685  0.0356  0.1192
  437POPC   C3B 5243  13.467   4.535  16.064 -0.0263 -0.2523  0.3038
  437POPC   C4B 5244  13.667   4.387  16.423 -0.1979 -0.1844  0.0476
  438POPC   NC3 5245   9.197  11.914   9.206 -0.3643 -0.1527 -0.0912
  438POPC   PO4 5246   8.957  12.191   9.305  0.1149  0.2530  0.0205
  438POPC   GL1 5247   8.854  12.171   8.940 -0.0851 -0.0860  0.3051
  438POPC   GL2 5248   8.546  12.362   8.834 -0.0453  0.3442 -0.2052
  438POPC   C1A 5249   8.864  11.941   8.523  0.1998 -0.1601 -0.1258
  438POPC   D2A 5250   9.149  11.919   8.170 -0.0149  0.1059  0.1406
  438POPC   C3A 5251   9.628  11.767   8.256 -0.3368 -0.0391  0.2435
  438POPC   C4A 5252   9.955  11.607   7.888  0.1111  0.2515 -0.0649
  438POPC   C1B 5253   8.519  12.283   8.421 -0.2260 -0.3185  0.0951
  438POPC   C2B 5254   8.718  12.189   8.055 -0.0941 -0.1489 -0.1808
  438POPC   C3B 5255   8.850  11.989   7.671  0.2640  0.1440  0.0431
  438POPC   C4B 5256   9.157  12.020   7.282 -0.0444 -0.0304  0.0737
  439POPC   NC3 5257   3.889   7.960  10.053 -0.1553 -0.0930  0.1954
  439POPC   PO4 5258   3.877   8.232   9.778 -0.2835 -0.0612  0.0767
  439POPC   GL1 5259   4.062   8.295   9.461  0.1602 -0.1192  0.0296
  439POPC   GL2 5260   3.993   8.109   9.247 -0.2127  0.2821 -0.2253
  439POPC   C1A 5261   4.452   8.329   9.273 -0.2329  0.2826  0.0315
  439POPC   D2A 5262   4.882   8.514   9.301 -0.0584 -0.0531 -0.2692
  439POPC   C3A 5263   4.999   8.343   8.904  0.3611  0.0274  0.3010
  439POPC   C4A 5264   4.884   8.159   8.498 -0.1052  0.1482 -0.0343
  439POPC   C1B 5265   3.958   8.026   8.813 -0.3639  0.4073  0.1953
  439POPC   C2B 5266   3.996   8.043   8.355 -0.0115 -0.0344  0.3614
  439POPC   C3B 5267   3.955   7.691   8.071  0.3649 -0.0380 -0.0410
  439POPC   C4B 5268   3.805   7.535   7.638  0.0817  0.1926  0.1220
  440POPC   NC3 5269   0.309   4.361   9.462  0.3329  0.0473 -0.3432
  440POPC   PO4 5270   0.231   4.629   9.179  0.0511 -0.1298 -0.1568
  440POPC   GL1 5271   0.279   4.878   8.854  0.0397  0.3795  0.1228
  440POPC   GL2 5272   0.045   5.020   8.863  0.1552  0.1388  0.4241
  440POPC   C1A 5273   0.408   5.029   8.408 -0.1694 -0.1970  0.0341
  440POPC   D2A 5274   0.508   5.040   7.968 -0.3442 -0.1361 -0.1681
  440POPC   C3A 5275   0.255   5.063   7.612 -0.0031 -0.3055 -0.0369
  440POPC   C4A 5276   0.391   4.962   7.147  0.1675  0.4035  0.2717
  440POPC   C1B 5277  -0.157   5.129   8.445  0.0254 -0.0823 -0.1133
  440POPC   C2B 5278  -0.169   5.159   7.987  0.5325  0.1182  0.0927
  440POPC   C3B 5279  -0.295   5.350   7.574  0.1226  0.1366 -0.0482
  440POPC   C4B 5280  -0.327   5.648   7.264  0.1486 -0.3322  0.4213
  441POPC   NC3 5281  15.515  13.270   8.312  0.1247  0.0911 -0.1627
  441POPC   PO4 5282  15.667  13.060   8.621  0.3702  0.0270  0.2954
  441POPC   GL1 5283  16.007  13.072   8.338 -0.1946  0.1667 -0.0847
  441POPC   GL2 5284  16.010  13.315   8.158 -0.2688  0.0577 -0.5391
  441POPC   C1A 5285  16.202  12.802   8.030  0.2060  0.0630 -0.0370
  441POPC   D2A 5286  16.307  12.765   7.583  0.2855  0.3236  0.0286
  441POPC   C3A 5287  16.219  12.527   7.179  0.0399 -0.0548 -0.2976
  441POPC   C4A 5288  16.061  12.522   6.803 -0.0751 -0.0447 -0.0374
  441POPC   C1B 5289  15.783  13.085   7.812 -0.1793  0.2106 -0.0753
  441POPC   C2B 5290  15.782  12.904   7.376  0.0327  0.0555  0.0582
  441POPC   C3B 5291  16.060  12.969   7.001  0.4075 -0.0217  0.0434
  441POPC   C4B 5292  16.184  12.946   6.519  0.1787  0.0770  0.5826
  442POPC   NC3 5293  13.962   1.981   9.512 -0.0304 -0.0084  0.1696
  442POPC   PO4 5294  13.928   1.616   9.387  0.2036 -0.1932 -0.1508
  442POPC   GL1 5295  13.954   1.792   9.006  0.0453  0.1207  0.1925
  442POPC   GL2 5296  13.876   1.491   8.868 -0.0768  0.0321 -0.0251
  442POPC   C1A 5297  14.268   1.880   8.636  0.1574  0.2741 -0.0436
  442POPC   D2A 5298  14.324   2.013   8.197 -0.1165  0.1610  0.1671
  442POPC   C3A 5299  14.129   2.140   7.746 -0.0205  0.0757 -0.0668
  442POPC   C4A 5300  14.020   2.546   7.630 -0.0530  0.0468  0.1058
  442POPC   C1B 5301  13.861   1.650   8.416  0.1182 -0.1787 -0.1190
  442POPC   C2B 5302  13.777   2.023   8.169 -0.0108  0.1539  0.2316
  442POPC   C3B 5303  13.690   2.438   8.000  0.1388 -0.0474  0.3984
  442POPC   C4B 5304  13.717   2.843   7.897 -0.2319 -0.0063 -0.1829
  443POPC   NC3 5305   4.776   7.034  11.292 -0.0575  0.0377 -0.1308
  443POPC   PO4 5306   4.792   7.054  10.899  0.2054 -0.4187  0.1323
  443POPC   GL1 5307   5.087   6.974  10.573 -0.2805  0.0049 -0.0361
  443POPC   GL2 5308   5.232   6.736  10.730 -0.1470  0.0840  0.1805
  443POPC   C1A 5309   5.426   6.895  10.323 -0.0351  0.0539  0.1589
  443POPC   D2A 5310   5.771   7.058  10.108 -0.1058  0.0265  0.2706
  443POPC   C3A 5311   5.900   7.245   9.660 -0.0013 -0.0096 -0.3543
  443POPC   C4A 5312   6.149   7.419   9.342  0.0313 -0.1260 -0.0862
  443POPC   C1B 5313   5.628   6.480  10.586  0.2673  0.1968  0.0305
  443POPC   C2B 5314   6.016   6.302  10.592  0.1426 -0.0134 -0.1720
  443POPC   C3B 5315   6.398   6.093  10.742  0.0211 -0.1686  0.0738
  443POPC   C4B 5316   6.513   5.640  10.879  0.0805 -0.1838 -0.2913
  444POPC   NC3 5317  15.628   7.039   9.742  0.0127  0.0619 -0.2052
  444POPC   PO4 5318  15.293   6.934   9.732  0.2337  0.2489  0.0293
  444POPC   GL1 5319  15.185   7.048   9.398  0.3650 -0.4476 -0.3876
  444POPC   GL2 5320  14.939   7.233   9.515  0.4497  0.3928  0.1272
  444POPC   C1A 5321  15.158   6.785   9.023  0.1603  0.0660 -0.1993
  444POPC   D2A 5322  14.825   6.777   8.678  0.2508  0.4563  0.0262
  444POPC   C3A 5323  14.512   6.693   8.352  0.2445 -0.1313  0.0064
  444POPC   C4A 5324  14.501   6.368   8.089 -0.4420  0.0939 -0.2991
  444POPC   C1B 5325  14.805   7.255   9.080  0.1972  0.0725  0.3055
  444POPC   C2B 5326  14.445   7.034   8.789  0.0708  0.2454  0.1754
  444POPC   C3B 5327  14.107   7.340   8.711 -0.2652 -0.1717  0.1825
  444POPC   C4B 5328  13.870   7.680   8.862 -0.0053  0.0710 -0.1187
  445POPC   NC3 5329  15.847  13.850   8.144  0.0289 -0.1725 -0.0500
  445POPC   PO4 5330  15.848  14.250   8.084 -0.0098  0.1917  0.2300
  445POPC   GL1 5331  15.894  14.303   7.699  0.0998 -0.0920  0.1678
  445POPC   GL2 5332  15.713  14.088   7.638  0.1785  0.2609  0.0527
  445POPC   C1A 5333  16.150  14.457   7.375  0.3066  0.1543  0.1737
  445POPC   D2A 5334  16.490  14.636   7.112 -0.2971 -0.2533 -0.0261
  445POPC   C3A 5335  16.415  14.748   6.664 -0.1458  0.1336  0.3170
  445POPC   C4A 5336  16.437  14.593   6.222  0.1420 -0.0268 -0.0611
  445POPC   C1B 5337  15.494  13.884   7.282  0.0119  0.1423  0.2866
  445POPC   C2B 5338  15.451  13.739   6.825  0.0414  0.0769 -0.0404
  445POPC   C3B 5339  15.252  13.876   6.443  0.1273  0.2007  0.1644
  445POPC   C4B 5340  15.452  13.914   6.026 -0.0794  0.0804 -0.0129
  446POPC   NC3 5341   6.078   2.238  13.011 -0.1711  0.2304 -0.0948
  446POPC   PO4 5342   5.825   2.449  13.136 -0.2622  0.1709 -0.2051
  446POPC   GL1 5343   5.788   2.797  13.026  0.2738  0.0851 -0.1692
  446POPC   GL2 5344   5.817   3.021  13.268 -0.1105 -0.0132 -0.0824
  446POPC   C1A 5345   6.228   2.983  12.978 -0.0095  0.2266 -0.4045
  446POPC   D2A 5346   6.693   2.830  12.977  0.2255  0.0411 -0.1139
  446POPC   C3A 5347   6.881   3.183  13.162 -0.0316 -0.1235 -0.1126
  446POPC   C4A 5348   7.014   3.564  13.230  0.1020 -0.1604  0.0905
  446POPC   C1B 5349   6.136   3.320  13.362  0.0430  0.0450 -0.2576
  446POPC   C2B 5350   6.507   3.461  13.492 -0.0622 -0.0280 -0.0331
  446POPC   C3B 5351   6.742   3.614  13.853  0.0785 -0.0840 -0.0718
  446POPC   C4B 5352   7.021   3.905  13.895 -0.0197 -0.2154 -0.3015
  447POPC   NC3 5353   1.636   3.670   9.337 -0.0020  0.0938  0.2544
  447POPC   PO4 5354   1.840   3.961   9.144  0.0544  0.0561  0.1068
  447POPC   GL1 5355   1.789   4.208   8.835  0.0634  0.2477 -0.1878
  447POPC   GL2 5356   1.474   4.356   8.856 -0.2383  0.0814  0.3443
  447POPC   C1A 5357   1.588   3.978   8.476  0.1182 -0.0728  0.1527
  447POPC   D2A 5358   1.254   3.934   8.108  0.1303  0.1294 -0.0581
  447POPC   C3A 5359   1.341   4.103   7.681 -0.0595 -0.0804 -0.0462
  447POPC   C4A 5360   1.501   4.242   7.278  0.2639  0.0511 -0.1833
  447POPC   C1B 5361   1.250   4.394   8.414  0.4214 -0.2039 -0.0593
  447POPC   C2B 5362   1.136   4.458   7.969  0.0129 -0.3395  0.1015
  447POPC   C3B 5363   1.096   4.527   7.492  0.1753  0.0693 -0.0798
  447POPC   C4B 5364   1.343   4.853   7.265 -0.0717  0.0020 -0.0430
  448POPC   NC3 5365   6.832   1.428  13.625  0.1535  0.0393  0.0885
  448POPC   PO4 5366   6.964   1.309  13.946 -0.4405  0.0766 -0.0517
  448POPC   GL1 5367   7.083   1.783  14.013  0.0946  0.1539 -0.2667
  448POPC   GL2 5368   7.125   1.862  13.739 -0.4446  0.0419 -0.0432
  448POPC   C1A 5369   7.145   1.891  14.469 -0.0367  0.1060  0.2055
  448POPC   D2A 5370   7.545   1.869  14.682  0.0187 -0.2295  0.1696
  448POPC   C3A 5371   8.000   1.819  14.549  0.1091 -0.1563 -0.2990
  448POPC   C4A 5372   8.381   1.580  14.623  0.0447  0.1515 -0.3234
  448POPC   C1B 5373   7.176   2.341  13.846 -0.3308  0.0769  0.0627
  448POPC   C2B 5374   7.087   2.789  13.842 -0.0903  0.0266 -0.2078
  448POPC   C3B 5375   7.247   3.219  14.063  0.1073  0.0744 -0.3474
  448POPC   C4B 5376   7.441   3.506  14.347 -0.0701 -0.1101  0.4381
  449POPC   NC3 5377   7.754   5.968   9.222 -0.0947 -0.0549 -0.1835
  449POPC   PO4 5378   8.081   6.198   9.308  0.4251  0.0751  0.1922
  449POPC   GL1 5379   7.839   6.468   9.333  0.2040  0.1191 -0.5240
  449POPC   GL2 5380   7.943   6.681   9.552 -0.2393  0.1686  0.3073
  449POPC   C1A 5381   7.656   6.878   9.227  0.1218  0.0953  0.1782
  449POPC   D2A 5382   7.641   7.315   9.429  0.0388 -0.2988 -0.1619
  449POPC   C3A 5383   7.359   7.625   9.545  0.3557 -0.0151 -0.0829
  449POPC   C4A 5384   7.072   7.989   9.709  0.0463 -0.0074  0.0741
  449POPC   C1B 5385   7.547   6.918   9.736 -0.3885  0.0407 -0.1195
  449POPC   C2B 5386   7.150   6.915   9.993 -0.0293  0.1946  0.0380
  449POPC   C3B 5387   6.720   7.047  10.178  0.0970  0.0322 -0.1492
  449POPC   C4B 5388   6.238   7.067  10.256  0.1391  0.0532 -0.1108
  450POPC   NC3 5389   7.111   9.022   5.462  0.1208 -0.4208 -0.2533
  450POPC   PO4 5390   6.730   9.156   5.474  0.1210 -0.1557 -0.0716
  450POPC   GL1 5391   6.551   9.325   5.702 -0.2864 -0.0193  0.0849
  450POPC   GL2 5392   6.649   9.645   5.785 -0.3454  0.3419 -0.0726
  450POPC   C1A 5393   6.150   9.560   5.768  0.2698  0.0791  0.1979
  450POPC   D2A 5394   5.983   9.976   5.682  0.2411 -0.0823 -0.2008
  450POPC   C3A 5395   6.136  10.279   5.995  0.0214  0.1327  0.3288
  450POPC   C4A 5396   5.947  10.523   6.345  0.1750  0.1830  0.1410
  450POPC   C1B 5397   6.378   9.780   6.154 -0.3933  0.3759 -0.0698
  450POPC   C2B 5398   6.203   9.966   6.532  0.2714 -0.3186  0.0454
  450POPC   C3B 5399   6.203  10.351   6.755  0.1688 -0.0362  0.4220
  450POPC   C4B 5400   6.007  10.527   7.079 -0.2090 -0.1824  0.1169
  451POPC   NC3 5401  16.168   8.832   5.393  0.1142  0.1501  0.4123
  451POPC   PO4 5402  15.787   8.832   5.230 -0.1243  0.3169 -0.1370
  451POPC   GL1 5403  15.482   8.792   5.615 -0.3153  0.4038 -0.2451
  451POPC   GL2 5404  15.713   8.931   5.718  0.3092 -0.4207 -0.0000
  451POPC   C1A 5405  15.241   8.962   5.977 -0.0603  0.0039  0.1094
  451POPC   D2A 5406  15.208   9.380   6.225  0.1108 -0.0413 -0.0024
  451POPC   C3A 5407  15.569   9.571   6.462 -0.1761 -0.1113  0.1717
  451POPC   C4A 5408  15.618   9.952   6.720 -0.1591  0.0770  0.2431
  451POPC   C1B 5409  15.674   9.170   6.133  0.1246 -0.0115  0.2780
  451POPC   C2B 5410  15.417   9.122   6.567 -0.3916  0.0156 -0.3502
  451POPC   C3B 5411  15.505   9.008   7.008  0.2826 -0.4844  0.0791
  451POPC   C4B 5412  15.368   8.747   7.337 -0.0143 -0.0872  0.1379
  452POPC   NC3 5413  16.298   1.651   4.267  0.0353 -0.0407 -0.1089
  452POPC   PO4 5414  16.560   1.416   4.124 -0.3271 -0.0831  0.2860
  452POPC   GL1 5415  16.689   1.393   4.516  0.1257 -0.0304 -0.2687
  452POPC   GL2 5416  16.839   1.119   4.557 -0.2557 -0.3909  0.0453
  452POPC   C1A 5417  16.891   1.450   4.950  0.2267  0.1420  0.2585
  452POPC   D2A 5418  16.973   1.311   5.363  0.1772 -0.3275  0.2786
  452POPC   C3A 5419  17.123   0.962   5.529  0.0240  0.0672  0.0456
  452POPC   C4A 5420  17.001   0.612   5.794 -0.0936  0.0230  0.2208
  452POPC   C1B 5421  17.090   0.997   4.962 -0.0519  0.3209 -0.1344
  452POPC   C2B 5422  17.373   0.709   5.073 -0.0213  0.1073 -0.0426
  452POPC   C3B 5423  17.775   0.557   5.161  0.1374  0.0330 -0.2447
  452POPC   C4B 5424  18.077   0.539   5.500 -0.1079  0.1632 -0.0173
  453POPC   NC3 5425   4.238   6.192   5.293  0.2807  0.1386  0.2727
  453POPC   PO4 5426   4.271   6.521   5.500  0.3170  0.1228  0.0721
  453POPC   GL1 5427   4.008   6.305   5.706 -0.0698  0.2729 -0.1386
  453POPC   GL2 5428   4.057   6.277   6.024 -0.0747  0.1996  0.5905
  453POPC   C1A 5429   3.770   6.637   5.959 -0.1177  0.1444 -0.1413
  453POPC   D2A 5430   3.545   6.875   6.325  0.0958  0.2247 -0.0125
  453POPC   C3A 5431   3.482   6.963   6.734  0.0706  0.0771  0.1304
  453POPC   C4A 5432   3.334   6.825   7.118  0.0529  0.0845  0.0926
  453POPC   C1B 5433   4.168   6.677   6.255 -0.1257  0.2121  0.3431
  453POPC   C2B 5434   4.312   6.758   6.696  0.0940  0.0412 -0.0966
  453POPC   C3B 5435   4.690   6.600   6.937  0.0970  0.2846  0.2971
  453POPC   C4B 5436   4.803   6.222   7.234  0.1881  0.0444 -0.0045
  454POPC   NC3 5437   8.916   4.712  10.016 -0.3192  0.2104 -0.0187
  454POPC   PO4 5438   9.025   4.723   9.642  0.1090  0.0810  0.1564
  454POPC   GL1 5439   8.715   4.703   9.586  0.2658 -0.2947 -0.0451
  454POPC   GL2 5440   8.412   4.779   9.620  0.0963 -0.4490  0.1855
  454POPC   C1A 5441   8.515   4.452   9.916  0.2715  0.1360 -0.1871
  454POPC   D2A 5442   8.413   4.148  10.289 -0.0595 -0.4034  0.0907
  454POPC   C3A 5443   8.520   3.761  10.505  0.0577 -0.0477  0.0604
  454POPC   C4A 5444   8.777   3.385  10.604 -0.2279  0.0149 -0.0562
  454POPC   C1B 5445   8.026   4.579   9.744 -0.2503 -0.3199  0.1178
  454POPC   C2B 5446   8.061   4.172   9.978  0.0337  0.2349  0.0384
  454POPC   C3B 5447   8.071   3.747  10.110  0.0422 -0.0691  0.1170
  454POPC   C4B 5448   8.199   3.362  10.373  0.2239  0.0734 -0.0153
  455POPC   NC3 5449  11.850   3.527   6.580  0.3105  0.2280 -0.0602
  455POPC   PO4 5450  11.561   3.489   6.888  0.0715 -0.1135  0.0252
  455POPC   GL1 5451  11.713   3.485   7.272  0.4452  0.1146  0.1552
  455POPC   GL2 5452  11.570   3.556   7.534 -0.3423 -0.0626 -0.1847
  455POPC   C1A 5453  11.819   3.114   7.411  0.2160 -0.0525  0.0637
  455POPC   D2A 5454  11.671   3.015   7.860 -0.0036  0.1652  0.1676
  455POPC   C3A 5455  11.877   2.631   7.980  0.0733 -0.1860  0.1741
  455POPC   C4A 5456  11.837   2.362   8.347 -0.0034 -0.2755  0.2408
  455POPC   C1B 5457  11.341   3.335   7.862 -0.0602  0.0195  0.0403
  455POPC   C2B 5458  11.251   3.066   8.243 -0.1275  0.2100  0.1186
  455POPC   C3B 5459  11.268   2.601   8.201  0.1503 -0.0313 -0.1916
  455POPC   C4B 5460  11.129   2.233   7.952  0.2067 -0.0540 -0.3222
  456POPC   NC3 5461  12.997   1.161   5.153  0.0081  0.1297 -0.1514
  456POPC   PO4 5462  13.094   1.555   5.175 -0.1319  0.0303 -0.2968
  456POPC   GL1 5463  13.180   1.397   5.491  0.2923  0.0495  0.2533
  456POPC   GL2 5464  13.480   1.467   5.460  0.3624  0.0765 -0.0641
  456POPC   C1A 5465  13.272   1.717   5.821 -0.1569 -0.1357  0.4669
  456POPC   D2A 5466  13.591   1.960   6.058  0.2698 -0.0873 -0.0491
  456POPC   C3A 5467  13.760   1.592   6.377  0.2450 -0.1978 -0.0332
  456POPC   C4A 5468  13.889   1.325   6.692 -0.0577  0.0247 -0.0488
  456POPC   C1B 5469  13.531   1.322   5.854  0.1875  0.0500  0.3216
  456POPC   C2B 5470  13.406   1.233   6.211  0.1914  0.0149 -0.2275
  456POPC   C3B 5471  13.483   0.964   6.582  0.1382 -0.0490  0.1146
  456POPC   C4B 5472  13.757   0.775   6.855  0.1122 -0.0304 -0.4198
  457POPC   NC3 5473   3.519   1.430   4.785  0.0744  0.0379 -0.2716
  457POPC   PO4 5474   3.393   1.725   4.973  0.3697 -0.4070 -0.0043
  457POPC   GL1 5475   3.243   1.530   5.239  0.0347 -0.1322 -0.1230
  457POPC   GL2 5476   3.128   1.256   5.087  0.2158 -0.0172 -0.1263
  457POPC   C1A 5477   3.416   1.489   5.650  0.0419 -0.3883 -0.0916
  457POPC   D2A 5478   3.213   1.527   6.036  0.4377  0.1605 -0.3478
  457POPC   C3A 5479   3.283   1.307   6.441  0.1701 -0.1181  0.0345
  457POPC   C4A 5480   3.348   1.009   6.863  0.0881 -0.1305  0.1429
  457POPC   C1B 5481   2.924   0.845   5.334  0.0325  0.2859 -0.3059
  457POPC   C2B 5482   2.748   0.656   5.750 -0.0513  0.2371 -0.1114
  457POPC   C3B 5483   2.913   0.486   6.158 -0.1624 -0.2424  0.1128
  457POPC   C4B 5484   3.046   0.177   6.534  0.1718 -0.3621  0.0599
  458POPC   NC3 5485   5.612   7.053   5.536  0.1050  0.1111  0.1841
  458POPC   PO4 5486   5.477   7.422   5.716 -0.0190  0.0935 -0.2146
  458POPC   GL1 5487   5.378   7.429   6.074  0.1049 -0.5268 -0.3607
  458POPC   GL2 5488   5.592   7.397   6.263  0.0448 -0.3220  0.3688
  458POPC   C1A 5489   5.101   7.464   6.508  0.0035  0.0559  0.1641
  458POPC   D2A 5490   4.821   7.543   6.863  0.2391  0.1462  0.1181
  458POPC   C3A 5491   4.819   7.726   7.219 -0.1208  0.1396 -0.1326
  458POPC   C4A 5492   4.910   8.064   7.543  0.5818 -0.3468  0.1079
  458POPC   C1B 5493   5.544   7.747   6.382 -0.0058  0.1450  0.0296
  458POPC   C2B 5494   5.690   8.016   6.760  0.1485 -0.0508  0.4011
  458POPC   C3B 5495   5.923   8.247   7.141 -0.1365  0.0347 -0.1614
  458POPC   C4B 5496   5.779   8.681   7.215  0.0916 -0.0891  0.0241
  459POPC   NC3 5497   5.015   1.034   4.622 -0.2671 -0.1459 -0.2989
  459POPC   PO4 5498   4.698   0.843   4.735 -0.0866 -0.0876  0.3200
  459POPC   GL1 5499   4.635   0.680   5.019  0.1657 -0.1001 -0.4366
  459POPC   GL2 5500   4.409   0.691   5.213 -0.2401  0.0641  0.0896
  459POPC   C1A 5501   4.711   0.363   5.346 -0.2361 -0.0043 -0.0146
  459POPC   D2A 5502   5.036   0.006   5.262  0.0733  0.4403  0.2312
  459POPC   C3A 5503   5.021  -0.428   5.468  0.1308  0.0191  0.0810
  459POPC   C4A 5504   4.700  -0.761   5.537  0.0141  0.1960  0.6083
  459POPC   C1B 5505   4.407   0.937   5.600 -0.1039 -0.0825  0.1034
  459POPC   C2B 5506   4.505   1.030   6.010  0.2668 -0.1330 -0.0951
  459POPC   C3B 5507   4.550   0.913   6.408  0.0876 -0.0114 -0.2623
  459POPC   C4B 5508   4.333   0.699   6.765 -0.1292  0.1482  0.0898
  460POPC   NC3 5509  10.777   5.260   8.674  0.1585 -0.5169  0.1644
  460POPC   PO4 5510  11.133   5.335   8.715 -0.0165 -0.0938  0.1210
  460POPC   GL1 5511  11.494   5.244   8.798  0.0618 -0.5149  0.0260
  460POPC   GL2 5512  11.687   5.324   8.603  0.1188 -0.0050  0.0602
  460POPC   C1A 5513  11.764   5.347   9.170 -0.1609  0.2906  0.0724
  460POPC   D2A 5514  12.034   5.686   9.286 -0.0198 -0.0602  0.1884
  460POPC   C3A 5515  12.482   5.796   9.283 -0.1552  0.2492 -0.2014
  460POPC   C4A 5516  12.803   6.143   9.195  0.0400 -0.4190  0.0354
  460POPC   C1B 5517  12.014   5.017   8.763 -0.2079  0.0470 -0.0064
  460POPC   C2B 5518  12.363   4.689   8.702  0.0101 -0.1625 -0.2551
  460POPC   C3B 5519  12.846   4.629   8.765  0.0835 -0.0929 -0.2827
  460POPC   C4B 5520  13.133   4.468   9.161  0.0191  0.0125  0.0656
  461POPC   NC3 5521   5.405   5.424   5.803  0.1552  0.2739  0.0236
  461POPC   PO4 5522   5.567   5.740   5.590 -0.0705 -0.1633  0.0032
  461POPC   GL1 5523   5.308   5.849   5.995  0.3758  0.1272  0.0122
  461POPC   GL2 5524   5.444   6.063   6.230 -0.4010 -0.0067  0.0745
  461POPC   C1A 5525   4.941   5.991   6.224 -0.0452 -0.0708  0.1308
  461POPC   D2A 5526   4.897   6.194   6.607  0.1391 -0.3330  0.0512
  461POPC   C3A 5527   4.526   6.097   6.863  0.0844 -0.2523  0.1635
  461POPC   C4A 5528   4.288   6.300   7.181 -0.1568  0.1666  0.0483
  461POPC   C1B 5529   5.372   6.057   6.676 -0.2864 -0.0883  0.3940
  461POPC   C2B 5530   5.219   6.008   7.086 -0.3524  0.3283  0.1795
  461POPC   C3B 5531   5.148   6.042   7.533 -0.0818 -0.0668 -0.1036
  461POPC   C4B 5532   4.910   6.172   7.894  0.0282 -0.0632  0.3469
  462POPC   NC3 5533   7.635  14.806   4.300  0.0159  0.3300 -0.2239
  462POPC   PO4 5534   7.711  14.928   4.628 -0.0368  0.0598  0.1527
  462POPC   GL1 5535   7.581  15.096   4.977 -0.1416 -0.0805  0.0439
  462POPC   GL2 5536   7.743  14.949   5.151  0.2900  0.0420 -0.0093
  462POPC   C1A 5537   7.316  15.288   5.382  0.0032  0.1949 -0.2155
  462POPC   D2A 5538   6.950  15.029   5.615 -0.5441 -0.1384 -0.2912
  462POPC   C3A 5539   6.655  15.091   5.966 -0.1316  0.0917  0.0016
  462POPC   C4A 5540   6.352  15.169   6.295 -0.0184  0.0352  0.1591
  462POPC   C1B 5541   7.666  14.549   5.413 -0.0173 -0.2005  0.0314
  462POPC   C2B 5542   7.620  14.231   5.756 -0.0589  0.2368  0.0843
  462POPC   C3B 5543   7.499  14.143   6.178  0.1116 -0.3121  0.1536
  462POPC   C4B 5544   7.401  14.024   6.562 -0.0577 -0.2160 -0.1155
  463POPC   NC3 5545   0.331   2.782   5.124 -0.0626 -0.0053 -0.2213
  463POPC   PO4 5546   0.060   3.039   5.262  0.1188  0.0563  0.1487
  463POPC   GL1 5547  -0.081   2.791   5.528 -0.0225 -0.2231  0.2751
  463POPC   GL2 5548   0.147   2.872   5.761  0.0337 -0.0864 -0.0961
  463POPC   C1A 5549  -0.417   2.618   5.762 -0.2779  0.1383  0.0819
  463POPC   D2A 5550  -0.565   2.653   6.216  0.0775  0.3693  0.1480
  463POPC   C3A 5551  -0.528   2.958   6.555  0.0678 -0.2522  0.1058
  463POPC   C4A 5552  -0.427   3.366   6.762  0.0652 -0.0041 -0.1102
  463POPC   C1B 5553  -0.116   2.790   6.113 -0.3140 -0.1643 -0.0095
  463POPC   C2B 5554  -0.174   2.621   6.580 -0.1216  0.0860 -0.1963
  463POPC   C3B 5555  -0.147   2.228   6.876 -0.0340 -0.0879  0.0460
  463POPC   C4B 5556  -0.137   2.195   7.361 -0.0192  0.0538  0.1518
  464POPC   NC3 5557   7.785  12.416   5.173  0.2901 -0.2157 -0.2605
  464POPC   PO4 5558   7.562  12.370   4.838  0.0544 -0.1156  0.0610
  464POPC   GL1 5559   7.317  12.467   5.146 -0.0965 -0.2880 -0.2201
  464POPC   GL2 5560   7.273  12.317   5.356 -0.2370  0.1772 -0.1679
  464POPC   C1A 5561   7.301  12.860   5.439  0.1004  0.2253 -0.0967
  464POPC   D2A 5562   6.920  12.985   5.622 -0.0813 -0.0332 -0.0195
  464POPC   C3A 5563   6.526  12.921   5.322  0.1376 -0.1569 -0.3866
  464POPC   C4A 5564   6.454  12.969   4.854  0.2353  0.1914 -0.0405
  464POPC   C1B 5565   7.141  12.494   5.828 -0.0685  0.0338  0.3423
  464POPC   C2B 5566   7.161  12.646   6.242 -0.0987  0.1181  0.1388
  464POPC   C3B 5567   7.251  12.617   6.697 -0.5390 -0.1657  0.1651
  464POPC   C4B 5568   7.415  12.465   7.146 -0.0025  0.0063  0.2030
  465POPC   NC3 5569   3.673  13.835   4.085  0.0559 -0.1144  0.0651
  465POPC   PO4 5570   3.953  13.606   4.015  0.1767 -0.3498 -0.0127
  465POPC   GL1 5571   3.917  13.594   4.403  0.1192  0.5223 -0.1556
  465POPC   GL2 5572   4.144  13.512   4.574 -0.3480 -0.0688  0.1086
  465POPC   C1A 5573   3.694  13.932   4.590 -0.1500 -0.0183 -0.1624
  465POPC   D2A 5574   3.413  14.192   4.801  0.0375  0.1601  0.0283
  465POPC   C3A 5575   3.178  13.884   5.100  0.1707 -0.1332  0.0558
  465POPC   C4A 5576   3.340  13.847   5.552  0.0711  0.2266  0.2045
  465POPC   C1B 5577   4.074  13.849   4.909 -0.0481  0.2685 -0.0875
  465POPC   C2B 5578   4.258  14.074   5.344  0.0256  0.2652  0.2306
  465POPC   C3B 5579   4.418  14.018   5.798  0.0416  0.1786 -0.1156
  465POPC   C4B 5580   4.307  13.789   6.112 -0.1517 -0.1277  0.2017
  466POPC   NC3 5581  10.029   5.063  12.083 -0.1921 -0.1474  0.2237
  466POPC   PO4 5582  10.333   4.917  11.863  0.0838  0.0749  0.3184
  466POPC   GL1 5583  10.208   4.487  11.948 -0.0851  0.1140 -0.3224
  466POPC   GL2 5584  10.160   4.599  12.172 -0.2815  0.3247 -0.4760
  466POPC   C1A 5585  10.381   4.101  11.844  0.0700 -0.2733  0.0128
  466POPC   D2A 5586  10.635   4.028  11.471  0.3418  0.0167 -0.0763
  466POPC   C3A 5587  10.904   3.602  11.334  0.1562 -0.0447 -0.0876
  466POPC   C4A 5588  11.383   3.575  11.189  0.1137 -0.0894 -0.0472
  466POPC   C1B 5589  10.311   4.147  12.355  0.0968  0.1327  0.0318
  466POPC   C2B 5590  10.355   3.719  12.551 -0.0438 -0.2619  0.2042
  466POPC   C3B 5591  10.198   3.270  12.485  0.2050  0.3043  0.2770
  466POPC   C4B 5592   9.709   3.015  12.621 -0.0024  0.1391  0.1204
  467POPC   NC3 5593  13.234  13.875   4.606 -0.0516  0.1791  0.1739
  467POPC   PO4 5594  12.916  13.737   4.422 -0.0696 -0.1765  0.2234
  467POPC   GL1 5595  12.865  13.928   4.865 -0.1510 -0.1040 -0.1534
  467POPC   GL2 5596  13.066  14.150   4.997  0.2789  0.1939 -0.0323
  467POPC   C1A 5597  12.433  13.826   5.068 -0.0566  0.0992 -0.2271
  467POPC   D2A 5598  12.325  13.793   5.490  0.0563 -0.1852  0.3032
  467POPC   C3A 5599  12.442  14.079   5.762  0.0841  0.1010  0.0575
  467POPC   C4A 5600  12.680  14.035   6.111  0.3315 -0.0463 -0.3048
  467POPC   C1B 5601  13.248  14.255   5.368 -0.0850 -0.0841 -0.0849
  467POPC   C2B 5602  13.352  14.514   5.683 -0.2130 -0.2285  0.4893
  467POPC   C3B 5603  13.730  14.397   5.967  0.2620  0.4350 -0.1766
  467POPC   C4B 5604  13.931  14.295   6.366 -0.1368 -0.0526 -0.1865
  468POPC   NC3 5605  12.492  16.405   4.233 -0.1474 -0.2662 -0.1530
  468POPC   PO4 5606  12.586  16.766   4.349 -0.2521 -0.0713  0.0259
  468POPC   GL1 5607  12.774  16.816   4.672  0.1943 -0.0867  0.0463
  468POPC   GL2 5608  12.822  17.130   4.720 -0.1488  0.3289  0.2626
  468POPC   C1A 5609  12.985  16.612   5.085  0.1808  0.0402  0.0588
  468POPC   D2A 5610  13.143  16.290   5.415 -0.0577 -0.0270  0.0520
  468POPC   C3A 5611  13.239  16.315   5.849 -0.1929  0.1569  0.1927
  468POPC   C4A 5612  12.994  16.352   6.276  0.3115 -0.1035  0.0574
  468POPC   C1B 5613  13.239  17.388   4.636 -0.0122  0.2595 -0.1156
  468POPC   C2B 5614  13.647  17.215   4.631  0.0171 -0.0847 -0.0298
  468POPC   C3B 5615  14.096  17.125   4.759  0.1282 -0.1677  0.0445
  468POPC   C4B 5616  14.253  16.737   4.663 -0.0781  0.2684 -0.2561
  469POPC   NC3 5617  10.963   5.662  11.861 -0.1802  0.0777  0.1190
  469POPC   PO4 5618  10.675   5.386  11.831 -0.5185  0.0006  0.2262
  469POPC   GL1 5619  10.809   4.992  12.014 -0.0786  0.0861  0.0477
  469POPC   GL2 5620  11.027   5.127  12.206 -0.0307 -0.3760 -0.0223
  469POPC   C1A 5621  11.148   4.720  11.944 -0.0507 -0.3760 -0.0288
  469POPC   D2A 5622  11.434   4.596  12.328 -0.1429 -0.1288  0.4117
  469POPC   C3A 5623  11.837   4.715  12.108  0.0440 -0.2434 -0.1214
  469POPC   C4A 5624  12.131   4.804  11.776 -0.2331  0.2871  0.0762
  469POPC   C1B 5625  11.264   4.967  12.585  0.1482 -0.0224 -0.0628
  469POPC   C2B 5626  11.201   4.941  13.067  0.0376 -0.0593  0.0035
  469POPC   C3B 5627  11.527   5.120  13.353 -0.1833  0.4225 -0.1186
  469POPC   C4B 5628  11.870   4.918  13.437 -0.1992 -0.1839  0.1925
  470POPC   NC3 5629  11.075   6.137   9.481 -0.1915 -0.1719 -0.0640
  470POPC   PO4 5630  10.875   6.096   9.837 -0.1709  0.2872  0.1754
  470POPC   GL1 5631  11.229   6.166  10.046 -0.1418 -0.2925  0.1378
  470POPC   GL2 5632  11.304   5.875   9.961 -0.1741  0.0893 -0.0847
  470POPC   C1A 5633  11.688   6.188  10.057  0.2026 -0.2394  0.0110
  470POPC   D2A 5634  12.157   6.222  10.098  0.4510 -0.0274  0.2264
  470POPC   C3A 5635  12.299   6.632   9.981  0.2446  0.0361 -0.1086
  470POPC   C4A 5636  12.613   6.901  10.110 -0.0399  0.1235  0.1371
  470POPC   C1B 5637  11.640   5.547  10.033  0.5065  0.1254  0.2515
  470POPC   C2B 5638  11.844   5.246  10.354  0.1682  0.3661 -0.0669
  470POPC   C3B 5639  12.075   5.031  10.723  0.4119  0.2395  0.2265
  470POPC   C4B 5640  12.134   5.013  11.209  0.1409  0.0401 -0.0154
  471POPC   NC3 5641   9.383   1.831   5.923  0.2242 -0.1934 -0.0243
  471POPC   PO4 5642   9.792   1.836   5.819  0.1068 -0.0189  0.1141
  471POPC   GL1 5643   9.751   1.574   6.137  0.4191  0.1008 -0.0482
  471POPC   GL2 5644  10.115   1.567   6.253  0.1395  0.0344 -0.1630
  471POPC   C1A 5645   9.412   1.736   6.440 -0.2489 -0.1408  0.0381
  471POPC   D2A 5646   9.196   1.935   6.782  0.0369  0.2087  0.0179
  471POPC   C3A 5647   9.121   1.943   7.224  0.0337  0.1033  0.0054
  471POPC   C4A 5648   9.183   1.609   7.504 -0.1046  0.6006 -0.0080
  471POPC   C1B 5649   9.864   1.435   6.559 -0.1230  0.1798  0.1030
  471POPC   C2B 5650   9.627   1.228   6.913  0.1415  0.0778  0.0409
  471POPC   C3B 5651   9.434   0.912   7.248 -0.0224  0.1136 -0.1998
  471POPC   C4B 5652   9.393   0.672   7.664  0.3325  0.2126  0.0059
  472POPC   NC3 5653  16.201  16.687   4.158  0.0307 -0.2917 -0.0065
  472POPC   PO4 5654  16.504  16.639   4.410  0.3212  0.3248 -0.0832
  472POPC   GL1 5655  16.394  16.393   4.735 -0.3135 -0.0224  0.0793
  472POPC   GL2 5656  16.503  16.429   5.018  0.2774  0.1665  0.1210
  472POPC   C1A 5657  16.049  16.184   4.866  0.0419 -0.0622 -0.1020
  472POPC   D2A 5658  15.698  15.955   5.111  0.0034 -0.1111 -0.6039
  472POPC   C3A 5659  15.726  15.522   5.107 -0.2381 -0.0656  0.1569
  472POPC   C4A 5660  15.518  15.115   5.241 -0.0505  0.0754 -0.1136
  472POPC   C1B 5661  16.402  16.251   5.442 -0.2586 -0.3271 -0.2426
  472POPC   C2B 5662  16.200  16.232   5.863 -0.2659 -0.2555  0.2343
  472POPC   C3B 5663  16.068  16.537   6.153  0.0919  0.1382  0.0454
  472POPC   C4B 5664  15.857  16.919   6.113  0.0549  0.0379  0.0630
  473POPC   NC3 5665  10.188  12.444   4.998  0.0774  0.0639 -0.0976
  473POPC   PO4 5666   9.924  12.189   5.072  0.0952  0.3282 -0.1175
  473POPC   GL1 5667   9.899  12.314   5.443 -0.1570  0.1249 -0.1029
  473POPC   GL2 5668  10.068  12.529   5.536 -0.1496 -0.1361 -0.0941
  473POPC   C1A 5669  10.039  12.226   5.939 -0.1409  0.2464  0.2863
  473POPC   D2A 5670  10.246  12.331   6.294 -0.0396  0.1274  0.1123
  473POPC   C3A 5671  10.406  12.654   6.476  0.1244  0.1318 -0.2788
  473POPC   C4A 5672  10.814  12.781   6.710 -0.2514  0.0713  0.0803
  473POPC   C1B 5673   9.945  12.945   5.642  0.0218 -0.0571 -0.4107
  473POPC   C2B 5674  10.068  13.342   5.862 -0.0768  0.2418 -0.1434
  473POPC   C3B 5675  10.333  13.673   5.959  0.3257 -0.2181 -0.1936
  473POPC   C4B 5676  10.338  13.918   6.374 -0.1855  0.1569 -0.1831
  474POPC   NC3 5677   6.095   2.741   6.060 -0.4406  0.4368 -0.2613
  474POPC   PO4 5678   5.763   2.780   5.807 -0.3082  0.1591 -0.3920
  474POPC   GL1 5679   5.658   2.591   6.135  0.0056  0.0477 -0.1430
  474POPC   GL2 5680   5.713   2.810   6.362 -0.0531 -0.1732 -0.1150
  474POPC   C1A 5681   5.856   2.316   6.386 -0.2907 -0.1652 -0.0133
  474POPC   D2A 5682   5.831   2.135   6.838 -0.0173 -0.1152  0.2013
  474POPC   C3A 5683   5.651   2.191   7.251  0.3336 -0.0784  0.1666
  474POPC   C4A 5684   5.502   2.194   7.693 -0.1895  0.0062 -0.0475
  474POPC   C1B 5685   5.644   3.062   6.797 -0.0698  0.2285 -0.4130
  474POPC   C2B 5686   5.573   3.073   7.233  0.1589  0.2431 -0.1690
  474POPC   C3B 5687   5.583   3.195   7.675  0.1270  0.1209 -0.0737
  474POPC   C4B 5688   5.654   2.880   7.983  0.3331  0.1628  0.2326
  475POPC   NC3 5689   9.791   5.072  10.731  0.0314 -0.1457 -0.2145
  475POPC   PO4 5690  10.000   4.888  10.441 -0.1425  0.0674  0.0989
  475POPC   GL1 5691  10.108   4.597  10.700  0.0181 -0.3343 -0.4056
  475POPC   GL2 5692  10.290   4.496  10.907 -0.0264  0.0231  0.1708
  475POPC   C1A 5693  10.127   4.074  10.667 -0.0516  0.0561 -0.1413
  475POPC   D2A 5694  10.052   3.619  10.744 -0.2300 -0.0114  0.0024
  475POPC   C3A 5695  10.317   3.307  10.560  0.0471  0.0896 -0.1359
  475POPC   C4A 5696  10.577   3.008  10.308 -0.1911 -0.0015 -0.3579
  475POPC   C1B 5697  10.494   4.087  10.963 -0.1367  0.1031  0.2652
  475POPC   C2B 5698  10.273   3.738  11.234 -0.1629  0.1682  0.0469
  475POPC   C3B 5699  10.373   3.640  11.660  0.0528  0.1029  0.1888
  475POPC   C4B 5700  10.542   3.574  12.080 -0.0542 -0.1644  0.0792
  476POPC   NC3 5701  13.429   4.915   6.206  0.0579 -0.1998  0.0866
  476POPC   PO4 5702  13.349   4.642   6.444  0.0645 -0.0694 -0.4124
  476POPC   GL1 5703  13.684   4.571   6.514  0.4674 -0.0910 -0.0485
  476POPC   GL2 5704  13.715   4.542   6.826  0.0638 -0.0669  0.3049
  476POPC   C1A 5705  14.144   4.366   6.522 -0.3878  0.4510  0.0659
  476POPC   D2A 5706  14.577   4.408   6.314  0.2396  0.1899 -0.0804
  476POPC   C3A 5707  14.965   4.256   6.562  0.3101 -0.0052  0.0147
  476POPC   C4A 5708  15.132   4.028   6.963  0.0092  0.2518 -0.0602
  476POPC   C1B 5709  13.910   4.546   7.213 -0.2642  0.4059 -0.0566
  476POPC   C2B 5710  14.248   4.414   7.508  0.0433  0.0586  0.1500
  476POPC   C3B 5711  14.554   4.162   7.796  0.1372  0.0078  0.1021
  476POPC   C4B 5712  14.771   3.867   8.010  0.3784 -0.0069  0.0755
  477POPC   NC3 5713   5.173   9.115   5.146 -0.3908  0.0966 -0.0229
  477POPC   PO4 5714   5.478   9.248   4.935 -0.1146 -0.0068 -0.1708
  477POPC   GL1 5715   5.518   9.340   5.342  0.1023  0.1897 -0.1081
  477POPC   GL2 5716   5.722   9.495   5.434 -0.2742 -0.1275  0.0902
  477POPC   C1A 5717   5.367   9.076   5.708  0.3868  0.2788 -0.1009
  477POPC   D2A 5718   5.312   9.085   6.167 -0.1490  0.1255 -0.0151
  477POPC   C3A 5719   4.936   9.288   6.434 -0.2016  0.0010  0.0399
  477POPC   C4A 5720   4.807   9.629   6.679 -0.3484 -0.2057  0.2361
  477POPC   C1B 5721   5.633   9.582   5.894  0.0921 -0.0382  0.2109
  477POPC   C2B 5722   5.730   9.906   6.212  0.1621 -0.1116  0.1185
  477POPC   C3B 5723   5.708  10.112   6.591 -0.2011 -0.1063 -0.1441
  477POPC   C4B 5724   5.557  10.321   6.926 -0.1664 -0.0382  0.2524
  478POPC   NC3 5725   8.787   5.914  10.103 -0.0651 -0.1111  0.3579
  478POPC   PO4 5726   8.728   6.255  10.074  0.0876 -0.4018 -0.1240
  478POPC   GL1 5727   8.376   6.383  10.229  0.0777 -0.1818  0.1075
  478POPC   GL2 5728   8.301   6.631  10.031 -0.1578 -0.2391  0.3333
  478POPC   C1A 5729   8.000   6.316  10.487 -0.1164  0.1604 -0.2518
  478POPC   D2A 5730   7.601   6.281  10.718  0.0881 -0.1887 -0.1979
  478POPC   C3A 5731   7.157   6.130  10.558 -0.3161  0.0310  0.2649
  478POPC   C4A 5732   6.776   5.981  10.359  0.0675  0.2136 -0.2440
  478POPC   C1B 5733   7.880   6.605  10.085 -0.2645 -0.1113 -0.4609
  478POPC   C2B 5734   7.433   6.596  10.271  0.3471  0.2185  0.0418
  478POPC   C3B 5735   7.030   6.605  10.511  0.0517 -0.2503  0.0947
  478POPC   C4B 5736   6.839   6.651  10.977  0.0880  0.0275  0.0703
  479POPC   NC3 5737   7.009   6.466   7.331  0.0134 -0.1590  0.0995
  479POPC   PO4 5738   7.032   6.075   7.399 -0.0532 -0.1024  0.0988
  479POPC   GL1 5739   6.890   6.069   7.774 -0.1609 -0.2616  0.0799
  479POPC   GL2 5740   6.650   6.234   7.722 -0.0114 -0.2178 -0.2253
  479POPC   C1A 5741   6.878   5.995   8.238 -0.4296 -0.1331 -0.0115
  479POPC   D2A 5742   6.830   6.101   8.676 -0.0948  0.1187 -0.1776
  479POPC   C3A 5743   6.584   5.956   9.055 -0.2923  0.0826 -0.4293
  479POPC   C4A 5744   6.181   6.145   9.148  0.1645  0.0884  0.3233
  479POPC   C1B 5745   6.420   6.244   8.165 -0.1642 -0.0951  0.0226
  479POPC   C2B 5746   6.554   6.480   8.532 -0.1280 -0.0112 -0.2711
  479POPC   C3B 5747   6.523   6.469   8.978  0.0862 -0.2800  0.0367
  479POPC   C4B 5748   6.798   6.357   9.314 -0.2162  0.1479  0.0327
  480POPC   NC3 5749   9.237  14.373   4.902 -0.2356 -0.1448 -0.1148
  480POPC   PO4 5750   9.280  14.793   4.857 -0.0831  0.0235  0.2761
  480POPC   GL1 5751   9.374  14.692   5.270 -0.3218 -0.2723  0.2674
  480POPC   GL2 5752   9.100  14.785   5.356  0.0165 -0.1007 -0.0218
  480POPC   C1A 5753   9.409  14.814   5.740 -0.4422 -0.1761  0.3393
  480POPC   D2A 5754   9.619  14.857   6.125 -0.2485 -0.0895 -0.0714
  480POPC   C3A 5755   9.651  15.057   6.526  0.1403 -0.1136  0.1055
  480POPC   C4A 5756   9.983  15.188   6.821 -0.1061 -0.0297 -0.0897
  480POPC   C1B 5757   8.923  14.760   5.829 -0.0951  0.0789  0.0039
  480POPC   C2B 5758   8.828  14.765   6.272 -0.2563 -0.1097 -0.0110
  480POPC   C3B 5759   8.785  14.949   6.724 -0.1152 -0.2912  0.1756
  480POPC   C4B 5760   8.834  15.290   7.065 -0.2153  0.0526 -0.2457
  481POPC   NC3 5761   7.013   1.542   5.132 -0.0008 -0.0573 -0.0489
  481POPC   PO4 5762   7.112   1.218   4.931  0.0425  0.0656 -0.5309
  481POPC   GL1 5763   6.985   1.001   5.313 -0.0571  0.1015  0.0578
  481POPC   GL2 5764   6.679   1.099   5.278 -0.1186 -0.0663  0.1281
  481POPC   C1A 5765   7.016   0.860   5.760 -0.0578 -0.1565  0.0276
  481POPC   D2A 5766   6.955   0.805   6.215 -0.1720 -0.2132 -0.0369
  481POPC   C3A 5767   6.766   0.441   6.376  0.0015 -0.0050  0.2474
  481POPC   C4A 5768   6.719   0.202   6.739 -0.3886  0.3441  0.2716
  481POPC   C1B 5769   6.722   1.262   5.752 -0.0289  0.2106 -0.0201
  481POPC   C2B 5770   7.026   1.296   6.064  0.2164 -0.0966  0.0466
  481POPC   C3B 5771   7.172   1.178   6.516 -0.1658  0.6067  0.3196
  481POPC   C4B 5772   7.048   1.153   6.956  0.0685 -0.0013  0.1270
  482POPC   NC3 5773   8.797  12.656   4.890 -0.0868  0.0607  0.1320
  482POPC   PO4 5774   8.455  12.791   5.099 -0.1784 -0.0481  0.0146
  482POPC   GL1 5775   8.662  12.726   5.418 -0.0810 -0.0707  0.1746
  482POPC   GL2 5776   8.888  12.949   5.286 -0.2422 -0.0405  0.2588
  482POPC   C1A 5777   8.913  12.802   5.831 -0.1846  0.0635  0.2566
  482POPC   D2A 5778   9.046  13.028   6.182 -0.0651 -0.1280 -0.3296
  482POPC   C3A 5779   8.769  13.151   6.533  0.2825  0.0161  0.0686
  482POPC   C4A 5780   8.601  13.245   6.965 -0.0435 -0.0420 -0.0600
  482POPC   C1B 5781   9.078  13.259   5.580 -0.2455  0.0353  0.0909
  482POPC   C2B 5782   8.967  13.497   5.943  0.1751  0.0795  0.2126
  482POPC   C3B 5783   8.867  13.646   6.394  0.0569 -0.0836  0.0767
  482POPC   C4B 5784   8.906  13.925   6.734 -0.0018 -0.0891  0.0985
  483POPC   NC3 5785  11.231   8.348   6.696  0.3468  0.2796 -0.3138
  483POPC   PO4 5786  10.882   8.487   6.732 -0.0686 -0.1653  0.0350
  483POPC   GL1 5787  10.813   8.805   7.042  0.1348 -0.1457  0.4191
  483POPC   GL2 5788  10.936   8.660   7.343 -0.0774 -0.1052 -0.0110
  483POPC   C1A 5789  10.466   8.920   7.279  0.1353  0.0299  0.1506
  483POPC   D2A 5790  10.291   9.186   7.608 -0.1234 -0.1407  0.3853
  483POPC   C3A 5791  10.116   9.525   7.866 -0.1216  0.0554  0.1399
  483POPC   C4A 5792   9.816   9.822   7.949  0.1972  0.0068  0.1596
  483POPC   C1B 5793  10.941   9.102   7.480  0.2390  0.1247  0.4281
  483POPC   C2B 5794  11.153   9.514   7.419  0.2101  0.1221 -0.1062
  483POPC   C3B 5795  11.570   9.757   7.420  0.0485  0.4162 -0.2688
  483POPC   C4B 5796  11.990   9.605   7.366 -0.0618 -0.0484 -0.0333
  484POPC   NC3 5797   8.342   6.950   8.088  0.2562  0.4588  0.0953
  484POPC   PO4 5798   8.425   7.260   7.837 -0.2875 -0.0313  0.3653
  484POPC   GL1 5799   8.161   7.452   8.057 -0.1121  0.2061 -0.0329
  484POPC   GL2 5800   7.957   7.233   8.034 -0.1182 -0.1523 -0.3043
  484POPC   C1A 5801   8.055   7.365   8.527  0.1674  0.1826 -0.3114
  484POPC   D2A 5802   7.707   7.283   8.832 -0.0996 -0.0343 -0.1438
  484POPC   C3A 5803   7.304   7.450   9.026  0.3875 -0.1692  0.0426
  484POPC   C4A 5804   6.893   7.569   9.323  0.1692  0.3165 -0.1583
  484POPC   C1B 5805   7.661   7.540   8.257  0.0716 -0.1201  0.0315
  484POPC   C2B 5806   7.289   7.610   8.573 -0.0231 -0.2280  0.2277
  484POPC   C3B 5807   6.925   7.699   8.857  0.0020  0.0639  0.0338
  484POPC   C4B 5808   6.648   8.127   8.881  0.2007  0.1444 -0.1712
  485POPC   NC3 5809  12.217   2.430   5.888 -0.1513 -0.1467 -0.0145
  485POPC   PO4 5810  12.293   2.805   5.743 -0.0209  0.2393 -0.2924
  485POPC   GL1 5811  12.581   2.713   6.048  0.0492  0.1426  0.0092
  485POPC   GL2 5812  12.757   2.918   5.984 -0.0529  0.1282 -0.3193
  485POPC   C1A 5813  12.707   2.557   6.463 -0.1727 -0.1199  0.0729
  485POPC   D2A 5814  13.097   2.432   6.622  0.3320  0.4548  0.1349
  485POPC   C3A 5815  13.528   2.581   6.749 -0.1990 -0.0121  0.0567
  485POPC   C4A 5816  13.748   2.699   7.119  0.3497 -0.1577  0.1556
  485POPC   C1B 5817  13.090   2.900   6.358  0.1416  0.3410  0.1358
  485POPC   C2B 5818  13.355   3.041   6.736 -0.1275  0.2092  0.0305
  485POPC   C3B 5819  13.651   3.251   7.059  0.1409  0.4595 -0.1908
  485POPC   C4B 5820  13.917   3.617   7.165  0.0717  0.4256 -0.2791
  486POPC   NC3 5821  10.085  10.443   5.461 -0.0675  0.0271 -0.1766
  486POPC   PO4 5822  10.155  10.816   5.561  0.3049  0.1241  0.0706
  486POPC   GL1 5823  10.030  10.986   5.954  0.2808 -0.3525  0.2270
  486POPC   GL2 5824   9.734  11.017   6.086 -0.3475  0.2676 -0.2296
  486POPC   C1A 5825  10.236  11.235   6.300  0.2521 -0.0510 -0.2425
  486POPC   D2A 5826  10.349  11.139   6.767 -0.1502  0.0763  0.1697
  486POPC   C3A 5827  10.071  11.210   7.144 -0.0258  0.0240 -0.0292
  486POPC   C4A 5828   9.652  11.234   7.294 -0.1850 -0.0578  0.0627
  486POPC   C1B 5829   9.595  10.769   6.446 -0.1646  0.3803 -0.4957
  486POPC   C2B 5830   9.429  10.838   6.841 -0.0983 -0.1551  0.0988
  486POPC   C3B 5831   9.204  10.928   7.222  0.1006  0.2125 -0.1944
  486POPC   C4B 5832   9.045  11.161   7.574  0.0231  0.0852  0.2729
  487POPC   NC3 5833  11.724   6.922   8.487  0.1908 -0.1298 -0.0760
  487POPC   PO4 5834  11.972   7.072   8.241 -0.0367  0.1115 -0.1786
  487POPC   GL1 5835  12.148   7.363   8.381  0.2201  0.0414  0.1078
  487POPC   GL2 5836  12.138   7.618   8.180 -0.0764  0.1049  0.0003
  487POPC   C1A 5837  12.435   7.632   8.636  0.2178  0.2819 -0.0637
  487POPC   D2A 5838  12.722   7.993   8.880  0.2881  0.0803  0.2474
  487POPC   C3A 5839  12.535   8.334   9.065 -0.0581  0.1624 -0.0746
  487POPC   C4A 5840  12.450   8.772   9.141  0.0042 -0.0031  0.3961
  487POPC   C1B 5841  12.347   8.028   8.284 -0.0398  0.1471 -0.0035
  487POPC   C2B 5842  12.090   8.374   8.541  0.1209 -0.2913 -0.0765
  487POPC   C3B 5843  11.891   8.600   8.933  0.3670 -0.0205  0.0574
  487POPC   C4B 5844  11.783   8.790   9.306  0.0497  0.1240  0.0671
  488POPC   NC3 5845   7.175  14.175   4.575 -0.1651 -0.1280 -0.0068
  488POPC   PO4 5846   7.148  14.562   4.410 -0.3663 -0.0025 -0.2240
  488POPC   GL1 5847   7.287  14.561   4.881 -0.0133  0.0679  0.1527
  488POPC   GL2 5848   7.425  14.340   5.035  0.1283 -0.0431 -0.1980
  488POPC   C1A 5849   7.282  14.821   5.262 -0.0986  0.0628  0.0423
  488POPC   D2A 5850   7.474  14.901   5.667 -0.2152 -0.3078  0.2620
  488POPC   C3A 5851   7.918  14.909   5.722  0.2680  0.0086  0.0949
  488POPC   C4A 5852   8.375  14.871   5.822 -0.1595  0.1225 -0.0192
  488POPC   C1B 5853   7.151  14.292   5.394  0.0869 -0.1815 -0.1599
  488POPC   C2B 5854   7.132  14.552   5.752  0.1575  0.0441 -0.5952
  488POPC   C3B 5855   6.913  14.719   6.104  0.1261 -0.2551 -0.0202
  488POPC   C4B 5856   6.824  14.830   6.481  0.0165  0.0757  0.2795
  489POPC   NC3 5857  14.664  11.423   4.149  0.0539 -0.1585 -0.0942
  489POPC   PO4 5858  15.053  11.540   4.040  0.0290 -0.0071 -0.1017
  489POPC   GL1 5859  15.221  11.582   4.539 -0.2657  0.2058 -0.0850
  489POPC   GL2 5860  14.957  11.608   4.549 -0.0152  0.0743  0.0406
  489POPC   C1A 5861  15.531  11.880   4.710 -0.0430  0.1326 -0.0182
  489POPC   D2A 5862  15.860  12.155   4.927 -0.1254  0.5447 -0.0403
  489POPC   C3A 5863  15.898  12.035   5.372  0.2287  0.1010 -0.0340
  489POPC   C4A 5864  16.079  11.986   5.785  0.2377  0.2956  0.4537
  489POPC   C1B 5865  15.078  11.658   4.972 -0.4134 -0.3697 -0.3348
  489POPC   C2B 5866  15.355  12.009   5.132 -0.1498 -0.0326 -0.3562
  489POPC   C3B 5867  15.368  12.279   5.463 -0.0294 -0.0730 -0.0840
  489POPC   C4B 5868  14.979  12.541   5.483 -0.2884  0.0163  0.0272
  490POPC   NC3 5869  10.714   7.443   9.226 -0.1526 -0.0605  0.2006
  490POPC   PO4 5870  10.763   7.129   9.416 -0.3368  0.0487 -0.0200
  490POPC   GL1 5871  10.855   7.400   9.720  0.1206  0.2534 -0.0513
  490POPC   GL2 5872  11.002   7.612   9.638  0.1893  0.0162  0.2174
  490POPC   C1A 5873  10.828   7.723  10.081  0.0320  0.2131  0.0971
  490POPC   D2A 5874  10.655   8.151  10.203  0.4113 -0.3475 -0.0849
  490POPC   C3A 5875  10.238   8.273  10.370  0.4600 -0.0964 -0.0348
  490POPC   C4A 5876   9.849   8.348  10.597  0.0142 -0.0815 -0.0660
  490POPC   C1B 5877  11.169   7.900   9.272  0.4290 -0.6377 -0.1494
  490POPC   C2B 5878  11.016   8.252   8.998  0.3017 -0.1777 -0.2370
  490POPC   C3B 5879  10.984   8.366   8.564  0.1427 -0.0061  0.1720
  490POPC   C4B 5880  11.006   8.213   8.157 -0.2671 -0.0978  0.0712
  491POPC   NC3 5881   7.426   7.941   6.167  0.1086 -0.2625  0.3043
  491POPC   PO4 5882   7.411   8.202   6.479 -0.0863  0.1778  0.1446
  491POPC   GL1 5883   7.468   8.455   6.802  0.1330  0.2596 -0.2230
  491POPC   GL2 5884   7.419   8.380   7.058 -0.1970 -0.1088 -0.3364
  491POPC   C1A 5885   7.705   8.816   6.956 -0.1947 -0.0764  0.4421
  491POPC   D2A 5886   7.917   9.284   7.044  0.3481  0.0475  0.1431
  491POPC   C3A 5887   8.166   9.561   7.248  0.0424 -0.0245  0.1084
  491POPC   C4A 5888   8.134   9.779   7.680 -0.1133 -0.0977  0.1346
  491POPC   C1B 5889   7.540   8.433   7.484 -0.0486  0.1192 -0.1522
  491POPC   C2B 5890   7.350   8.558   7.889  0.1126 -0.0503 -0.2467
  491POPC   C3B 5891   7.140   8.846   8.218 -0.0725 -0.2194  0.2493
  491POPC   C4B 5892   7.059   8.971   8.622  0.0458  0.1134  0.2208
  492POPC   NC3 5893  15.153   7.185   5.505 -0.1502  0.1942 -0.1273
  492POPC   PO4 5894  15.028   6.800   5.586 -0.3624 -0.0180 -0.2499
  492POPC   GL1 5895  15.023   7.000   5.908  0.0912  0.0153  0.0988
  492POPC   GL2 5896  14.852   7.216   6.026 -0.1437 -0.0258 -0.0247
  492POPC   C1A 5897  15.350   7.303   6.084  0.0624 -0.2017 -0.1326
  492POPC   D2A 5898  15.748   7.281   6.360  0.1418 -0.0696 -0.1011
  492POPC   C3A 5899  15.886   6.920   6.509 -0.1513  0.1051 -0.2544
  492POPC   C4A 5900  16.141   6.517   6.480 -0.1173 -0.0186  0.0089
  492POPC   C1B 5901  14.937   7.093   6.464  0.0237 -0.3477 -0.1776
  492POPC   C2B 5902  14.845   7.157   6.964  0.2818  0.2622 -0.2381
  492POPC   C3B 5903  14.940   7.351   7.377  0.1910 -0.1165 -0.1074
  492POPC   C4B 5904  15.142   7.288   7.770 -0.1632  0.1932  0.3880
  493POPC   NC3 5905   4.239  13.961   4.315 -0.1441  0.0752  0.0894
  493POPC   PO4 5906   4.480  13.685   4.191  0.2152  0.0330  0.1635
  493POPC   GL1 5907   4.598  13.660   4.622  0.1447  0.1558 -0.2480
  493POPC   GL2 5908   4.577  13.883   4.816  0.2176  0.1757  0.3185
  493POPC   C1A 5909   4.833  13.353   4.868  0.1953  0.0118 -0.0456
  493POPC   D2A 5910   5.002  13.297   5.266  0.4027 -0.3265  0.1293
  493POPC   C3A 5911   4.999  13.268   5.695 -0.1703 -0.1412 -0.0506
  493POPC   C4A 5912   4.725  13.460   6.059  0.1318 -0.0333 -0.1380
  493POPC   C1B 5913   4.476  13.560   5.151  0.3023  0.1021  0.0452
  493POPC   C2B 5914   4.437  13.501   5.643 -0.1093  0.2693 -0.0311
  493POPC   C3B 5915   4.161  13.369   5.970 -0.2006 -0.0878  0.0204
  493POPC   C4B 5916   3.854  13.610   6.225 -0.0657  0.1294  0.3413
  494POPC   NC3 5917  15.170  16.360   4.118  0.0938  0.4507 -0.4054
  494POPC   PO4 5918  15.217  16.747   4.057 -0.1953  0.0447  0.1079
  494POPC   GL1 5919  15.045  16.745   4.473  0.3199 -0.1173  0.0053
  494POPC   GL2 5920  14.772  16.616   4.487 -0.4008 -0.0343 -0.0345
  494POPC   C1A 5921  15.152  16.309   4.669  0.0513 -0.3383 -0.0395
  494POPC   D2A 5922  15.178  16.099   5.084 -0.0543  0.3142  0.1232
  494POPC   C3A 5923  15.044  16.025   5.464 -0.0055 -0.0981  0.2297
  494POPC   C4A 5924  14.980  15.869   5.900  0.1720  0.0079 -0.2623
  494POPC   C1B 5925  14.616  16.368   4.830 -0.0275  0.2784  0.0452
  494POPC   C2B 5926  14.540  16.144   5.261  0.0372  0.0906 -0.0016
  494POPC   C3B 5927  14.520  15.801   5.549 -0.0533  0.2202 -0.2343
  494POPC   C4B 5928  14.343  15.461   5.330 -0.2839 -0.0257 -0.1706
  495POPC   NC3 5929   1.358  13.551   3.661  0.2961  0.0940 -0.1471
  495POPC   PO4 5930   1.522  13.845   3.843 -0.2661 -0.2501  0.0333
  495POPC   GL1 5931   1.538  13.950   4.302  0.0701  0.4723  0.3179
  495POPC   GL2 5932   1.479  14.213   4.306  0.1321  0.1230 -0.1446
  495POPC   C1A 5933   1.328  13.726   4.683 -0.5134  0.1609  0.2516
  495POPC   D2A 5934   1.081  13.624   5.068  0.2692 -0.2584 -0.0504
  495POPC   C3A 5935   0.736  13.524   5.351  0.3100  0.0020  0.3122
  495POPC   C4A 5936   0.508  13.462   5.765 -0.2276  0.1356  0.0050
  495POPC   C1B 5937   1.372  14.234   4.746 -0.1527 -0.1016 -0.0677
  495POPC   C2B 5938   1.435  14.517   5.130 -0.0612  0.2848 -0.0716
  495POPC   C3B 5939   1.383  14.486   5.574  0.2199 -0.0517 -0.2800
  495POPC   C4B 5940   1.252  14.585   6.013  0.0912  0.2146 -0.2517
  496POPC   NC3 5941   8.569   6.138  10.622  0.2075 -0.0089  0.1629
  496POPC   PO4 5942   8.800   6.293  10.904  0.1216  0.1410 -0.1089
  496POPC   GL1 5943   8.446   6.543  10.903 -0.2172  0.1349 -0.2722
  496POPC   GL2 5944   8.255   6.343  10.949 -0.0582  0.2918  0.0796
  496POPC   C1A 5945   8.009   6.770  10.974 -0.1704 -0.0019 -0.0353
  496POPC   D2A 5946   7.729   7.001  11.272  0.0919  0.1364 -0.2002
  496POPC   C3A 5947   7.520   7.410  11.326 -0.0206  0.2695  0.0265
  496POPC   C4A 5948   7.374   7.778  11.557  0.1227  0.0395 -0.0314
  496POPC   C1B 5949   7.876   6.359  11.214 -0.1638  0.0596 -0.0580
  496POPC   C2B 5950   7.484   6.316  11.545  0.0207  0.0329 -0.3528
  496POPC   C3B 5951   7.278   6.355  11.938  0.0246 -0.0481 -0.3256
  496POPC   C4B 5952   6.900   6.155  12.017  0.0362 -0.2110  0.1985
  497POPC   NC3 5953   0.455  14.696   3.949 -0.0472 -0.0240 -0.1116
  497POPC   PO4 5954   0.162  14.866   3.962  0.0501 -0.2324  0.1151
  497POPC   GL1 5955   0.372  14.783   4.377  0.2811  0.4627 -0.1231
  497POPC   GL2 5956   0.124  14.916   4.556  0.0414  0.1136  0.1641
  497POPC   C1A 5957   0.419  14.546   4.776  0.0190  0.0165 -0.2498
  497POPC   D2A 5958   0.456  14.384   5.210 -0.0292 -0.1075 -0.0662
  497POPC   C3A 5959   0.678  13.968   5.148 -0.1852 -0.1925  0.0644
  497POPC   C4A 5960   0.535  13.643   4.847 -0.0256  0.1567  0.2221
  497POPC   C1B 5961   0.069  14.929   5.022 -0.2835  0.3140  0.3347
  497POPC   C2B 5962   0.093  15.303   5.294 -0.0567  0.2767 -0.1681
  497POPC   C3B 5963   0.077  15.437   5.741  0.3576  0.1090 -0.1454
  497POPC   C4B 5964   0.022  15.713   6.100  0.1734 -0.1580  0.0106
  498POPC   NC3 5965   2.993   0.979   4.562  0.0691  0.0292 -0.2134
  498POPC   PO4 5966   2.937   0.630   4.444 -0.0590  0.0523 -0.0952
  498POPC   GL1 5967   2.980   0.589   4.875 -0.0271 -0.0303  0.2307
  498POPC   GL2 5968   2.647   0.732   4.902 -0.3867 -0.1415  0.0229
  498POPC   C1A 5969   2.914   0.233   5.168  0.0276 -0.0971  0.0847
  498POPC   D2A 5970   2.622   0.092   5.555 -0.2615  0.1191 -0.0467
  498POPC   C3A 5971   2.476   0.284   6.004  0.2222  0.2305 -0.2257
  498POPC   C4A 5972   2.566   0.281   6.475 -0.1212  0.3638  0.1066
  498POPC   C1B 5973   2.465   0.395   5.157 -0.2644 -0.1719  0.1256
  498POPC   C2B 5974   2.184   0.333   5.512 -0.1729 -0.0403 -0.1234
  498POPC   C3B 5975   2.040   0.069   5.865 -0.3585  0.0432 -0.0398
  498POPC   C4B 5976   1.647  -0.031   6.050  0.0151  0.2835 -0.0663
  499POPC   NC3 5977   6.089   4.952   6.974  0.0267  0.0612  0.0951
  499POPC   PO4 5978   6.460   4.939   7.054  0.0045  0.1904  0.0050
  499POPC   GL1 5979   6.347   5.008   7.436 -0.0234 -0.3112  0.0433
  499POPC   GL2 5980   6.525   4.963   7.601  0.0586  0.0995 -0.1689
  499POPC   C1A 5981   6.249   5.438   7.645 -0.0543 -0.1768 -0.1318
  499POPC   D2A 5982   5.825   5.516   7.757  0.1864 -0.1391 -0.1274
  499POPC   C3A 5983   5.644   5.506   8.124 -0.0290 -0.1080  0.1147
  499POPC   C4A 5984   5.238   5.352   8.286  0.0629  0.1983 -0.3380
  499POPC   C1B 5985   6.552   5.253   8.006  0.0660 -0.2273 -0.1591
  499POPC   C2B 5986   6.710   5.520   8.365  0.3036  0.0007  0.1345
  499POPC   C3B 5987   6.734   5.501   8.860 -0.2391 -0.1607  0.2864
  499POPC   C4B 5988   6.811   5.558   9.337 -0.2375  0.1121 -0.4483
  500POPC   NC3 5989  13.584  12.542   4.832  0.0007 -0.0881  0.2292
  500POPC   PO4 5990  13.506  12.900   4.656  0.1485  0.1240 -0.1690
  500POPC   GL1 5991  13.750  13.140   4.984 -0.0554  0.0320  0.2073
  500POPC   GL2 5992  13.475  13.155   5.051 -0.0169  0.1866  0.1921
  500POPC   C1A 5993  14.129  13.326   5.205  0.2836 -0.0542 -0.3472
  500POPC   D2A 5994  14.381  13.162   5.558  0.1895  0.3079  0.1340
  500POPC   C3A 5995  14.219  12.986   5.940 -0.2164 -0.3727  0.0032
  500POPC   C4A 5996  13.869  12.769   6.117  0.1257 -0.2195 -0.1247
  500POPC   C1B 5997  13.275  13.097   5.449  0.0210 -0.3202  0.4626
  500POPC   C2B 5998  13.094  13.128   5.861  0.0033  0.3747 -0.1274
  500POPC   C3B 5999  12.922  12.854   6.168 -0.0829  0.1641  0.1229
  500POPC   C4B 6000  12.629  12.579   6.396 -0.0148 -0.1263  0.0343
  501POPC   NC3 6001  14.605   3.374   5.469 -0.1951 -0.4826  0.0697
  501POPC   PO4 6002  14.188   3.460   5.353  0.3013 -0.2062  0.2447
  501POPC   GL1 6003  14.082   3.362   5.737 -0.1287 -0.2190  0.0995
  501POPC   GL2 6004  13.861   3.111   5.764  0.1717 -0.0073 -0.2256
  501POPC   C1A 6005  14.429   3.121   5.883 -0.1864 -0.1171 -0.0629
  501POPC   D2A 6006  14.860   3.338   5.963 -0.0994 -0.0640  0.5823
  501POPC   C3A 6007  14.895   3.167   6.344 -0.0181  0.1967  0.0423
  501POPC   C4A 6008  15.124   3.237   6.736 -0.0348  0.0770 -0.1387
  501POPC   C1B 6009  14.111   2.926   6.163  0.0031 -0.1580  0.0924
  501POPC   C2B 6010  14.382   2.811   6.473 -0.1961 -0.0356 -0.0216
  501POPC   C3B 6011  14.610   2.591   6.732  0.0047  0.2694 -0.1994
  501POPC   C4B 6012  14.836   2.323   7.058 -0.2022 -0.0343  0.2927
  502POPC   NC3 6013   5.521   2.817   5.365 -0.1645  0.1707 -0.0291
  502POPC   PO4 6014   5.466   3.129   5.619  0.1417 -0.0552  0.0489
  502POPC   GL1 6015   5.347   2.807   5.982  0.1483 -0.1509 -0.0901
  502POPC   GL2 6016   5.325   3.087   6.077  0.2225 -0.1662 -0.2225
  502POPC   C1A 6017   5.212   2.516   6.328 -0.2302  0.1555 -0.1538
  502POPC   D2A 6018   4.773   2.563   6.377 -0.2478 -0.1219  0.1065
  502POPC   C3A 6019   4.549   2.518   6.772 -0.1339 -0.2235 -0.1446
  502POPC   C4A 6020   4.701   2.368   7.180  0.0163 -0.1186 -0.1805
  502POPC   C1B 6021   5.270   2.950   6.541  0.1549 -0.3137  0.1178
  502POPC   C2B 6022   5.081   2.767   6.970 -0.1253  0.5238 -0.1149
  502POPC   C3B 6023   4.974   2.713   7.437  0.0388  0.2757  0.0223
  502POPC   C4B 6024   4.961   2.310   7.751 -0.2335 -0.2458  0.0459
  503POPC   NC3 6025   4.130   8.812   4.838  0.0813 -0.1285 -0.0439
  503POPC   PO4 6026   4.275   8.468   4.938 -0.0709  0.0315  0.0797
  503POPC   GL1 6027   4.343   8.607   5.279 -0.0947  0.0175 -0.3739
  503POPC   GL2 6028   4.226   8.893   5.358 -0.2704 -0.1987  0.2118
  503POPC   C1A 6029   4.746   8.782   5.405  0.1895  0.1593 -0.1944
  503POPC   D2A 6030   4.916   8.913   5.805 -0.2730  0.1530 -0.0693
  503POPC   C3A 6031   4.769   9.299   5.959 -0.0099  0.0683 -0.1475
  503POPC   C4A 6032   4.625   9.765   6.121  0.0809  0.0892 -0.2872
  503POPC   C1B 6033   3.973   8.872   5.704  0.0057  0.0935 -0.1783
  503POPC   C2B 6034   3.959   8.825   6.175  0.0318  0.0477 -0.0593
  503POPC   C3B 6035   4.065   8.596   6.580  0.0594  0.0820 -0.1549
  503POPC   C4B 6036   4.128   8.261   6.941 -0.1597  0.0055 -0.1417
  504POPC   NC3 6037  14.249   5.211   5.867  0.0339  0.0311 -0.0344
  504POPC   PO4 6038  14.480   5.514   5.861  0.1934 -0.0661 -0.0492
  504POPC   GL1 6039  14.380   5.676   6.213 -0.3891 -0.5521 -0.0385
  504POPC   GL2 6040  14.169   5.463   6.338 -0.1215  0.0527  0.1407
  504POPC   C1A 6041  14.373   5.757   6.686 -0.1209 -0.2058  0.1519
  504POPC   D2A 6042  14.540   5.962   7.115 -0.1282 -0.2458 -0.0335
  504POPC   C3A 6043  14.830   5.750   7.348  0.1307 -0.1552 -0.2195
  504POPC   C4A 6044  15.199   5.443   7.460  0.1101 -0.3407  0.0205
  504POPC   C1B 6045  14.439   5.263   6.654  0.1276 -0.0125 -0.1762
  504POPC   C2B 6046  14.629   5.264   7.077  0.0406 -0.3947  0.1046
  504POPC   C3B 6047  14.529   5.183   7.529  0.0854 -0.1313 -0.1308
  504POPC   C4B 6048  14.559   5.575   7.785  0.0981  0.1590  0.1644
  505POPC   NC3 6049   8.790  14.712   4.899  0.1500 -0.0208  0.4183
  505POPC   PO4 6050   8.650  14.403   4.766  0.1669 -0.0409  0.0231
  505POPC   GL1 6051   8.345  14.579   4.831 -0.0973  0.1748 -0.0736
  505POPC   GL2 6052   8.051  14.504   4.859  0.1284  0.0877  0.1031
  505POPC   C1A 6053   8.172  14.625   5.307  0.0051  0.0472  0.0296
  505POPC   D2A 6054   8.048  14.340   5.598 -0.2056  0.2510 -0.0026
  505POPC   C3A 6055   7.940  14.528   5.992  0.0929  0.1524  0.0159
  505POPC   C4A 6056   7.856  14.461   6.449 -0.0083 -0.0762 -0.1179
  505POPC   C1B 6057   7.877  14.183   5.115  0.0522 -0.0852  0.1870
  505POPC   C2B 6058   7.574  13.912   5.383 -0.0048 -0.0185 -0.0874
  505POPC   C3B 6059   7.628  13.687   5.791  0.0660  0.0317 -0.1325
  505POPC   C4B 6060   7.303  13.602   6.098 -0.1969  0.0650 -0.4282
  506POPC   NC3 6061   3.239  11.144   3.993  0.1199  0.0239  0.0397
  506POPC   PO4 6062   2.971  10.910   4.167  0.1729  0.2121 -0.0245
  506POPC   GL1 6063   2.938  10.914   4.570 -0.0132 -0.0207 -0.1370
  506POPC   GL2 6064   3.248  10.857   4.704  0.0085 -0.1188 -0.0920
  506POPC   C1A 6065   2.763  10.881   4.988 -0.2078  0.0077  0.4047
  506POPC   D2A 6066   2.427  11.006   5.314 -0.2441 -0.1595  0.2535
  506POPC   C3A 6067   2.188  10.927   5.728  0.1583 -0.0251  0.1375
  506POPC   C4A 6068   2.061  11.041   6.177 -0.3021 -0.3512 -0.0914
  506POPC   C1B 6069   3.208  10.647   5.077 -0.1129  0.1489 -0.3018
  506POPC   C2B 6070   3.032  10.840   5.431  0.0739  0.1177 -0.0992
  506POPC   C3B 6071   2.713  10.847   5.792 -0.0238 -0.0987 -0.3096
  506POPC   C4B 6072   2.473  10.583   6.091  0.1545  0.4294  0.0121
  507POPC   NC3 6073   9.406   4.134  10.490 -0.3118 -0.3928  0.0802
  507POPC   PO4 6074   9.308   4.502  10.354 -0.0809 -0.1462  0.5671
  507POPC   GL1 6075   8.995   4.365  10.395 -0.4638  0.1046 -0.1567
  507POPC   GL2 6076   8.928   4.227  10.145 -0.1303 -0.1075 -0.0095
  507POPC   C1A 6077   8.624   4.309  10.678 -0.1541 -0.1476 -0.3240
  507POPC   D2A 6078   8.223   4.130  10.874 -0.2067  0.0565  0.0983
  507POPC   C3A 6079   8.018   3.765  10.631 -0.2029  0.0750  0.1259
  507POPC   C4A 6080   7.642   3.511  10.482 -0.0430 -0.3378  0.1242
  507POPC   C1B 6081   9.210   3.995   9.847  0.0502 -0.2024 -0.2374
  507POPC   C2B 6082   9.440   3.637   9.988 -0.1016  0.1442  0.0842
  507POPC   C3B 6083   9.371   3.179   9.998  0.2307 -0.0641 -0.0390
  507POPC   C4B 6084   9.309   2.801  10.194  0.0372 -0.3123 -0.2099
  508POPC   NC3 6085  14.094   9.032   5.247 -0.0111 -0.5443 -0.0865
  508POPC   PO4 6086  14.379   8.772   5.359  0.2039  0.0273 -0.0270
  508POPC   GL1 6087  14.402   8.902   5.668 -0.1505  0.3889 -0.4076
  508POPC   GL2 6088  14.669   9.006   5.783 -0.2116  0.0094  0.2274
  508POPC   C1A 6089  14.230   8.928   6.083 -0.5704  0.2371 -0.0890
  508POPC   D2A 6090  14.164   8.846   6.522  0.0732  0.0217  0.0427
  508POPC   C3A 6091  14.439   8.914   6.855 -0.0675  0.2806  0.0004
  508POPC   C4A 6092  14.618   8.885   7.263  0.1253  0.0078 -0.0917
  508POPC   C1B 6093  14.721   9.146   6.228 -0.1297  0.1582  0.0298
  508POPC   C2B 6094  14.889   9.373   6.592 -0.0091  0.3393 -0.2566
  508POPC   C3B 6095  14.881   9.408   7.011 -0.3382  0.2612  0.1145
  508POPC   C4B 6096  15.198   9.195   7.300  0.2594 -0.1394 -0.1550
  509POPC   NC3 6097   1.343  16.250   4.305 -0.2031 -0.0396  0.2399
  509POPC   PO4 6098   1.028  16.388   4.051 -0.0675 -0.1426  0.0467
  509POPC   GL1 6099   0.810  16.420   4.436 -0.6039 -0.2813  0.0445
  509POPC   GL2 6100   0.562  16.627   4.397  0.1487 -0.0023 -0.1046
  509POPC   C1A 6101   0.599  16.043   4.663 -0.1210 -0.0431  0.0192
  509POPC   D2A 6102   0.427  15.943   5.046  0.2253 -0.0862  0.0689
  509POPC   C3A 6103   0.590  16.294   5.266  0.1447 -0.0961 -0.0062
  509POPC   C4A 6104   0.791  16.316   5.719 -0.1159 -0.1252  0.1302
  509POPC   C1B 6105   0.565  16.592   4.874 -0.1214 -0.1148  0.0946
  509POPC   C2B 6106   0.672  16.738   5.301 -0.2346 -0.0121 -0.2990
  509POPC   C3B 6107   0.888  16.797   5.708  0.2028 -0.1211 -0.1331
  509POPC   C4B 6108   1.117  17.087   6.006  0.1360 -0.1212  0.1786
  510POPC   NC3 6109  11.972   9.893   6.060 -0.0712  0.0618 -0.0969
  510POPC   PO4 6110  11.809  10.065   5.740  0.1668 -0.1426  0.0027
  510POPC   GL1 6111  11.740  10.224   6.216 -0.0527 -0.4879 -0.0878
  510POPC   GL2 6112  11.478  10.155   6.192  0.2288  0.1116  0.2361
  510POPC   C1A 6113  12.078  10.176   6.509 -0.0854 -0.1482 -0.0387
  510POPC   D2A 6114  12.228  10.239   6.893  0.0438  0.1326  0.1390
  510POPC   C3A 6115  12.036  10.563   7.175 -0.0037 -0.0856 -0.0343
  510POPC   C4A 6116  11.911  11.047   7.195  0.0871 -0.0244 -0.1205
  510POPC   C1B 6117  11.525  10.296   6.649 -0.2309 -0.2274  0.1055
  510POPC   C2B 6118  11.433  10.591   7.045  0.0487  0.0775 -0.0230
  510POPC   C3B 6119  11.560  10.732   7.475 -0.0945 -0.1843 -0.1378
  510POPC   C4B 6120  11.941  10.763   7.719 -0.2434  0.0356  0.0644
  511POPC   NC3 6121   2.730   3.028   5.043 -0.0397  0.3993 -0.2272
  511POPC   PO4 6122   3.116   2.956   4.996 -0.1649 -0.0387 -0.0870
  511POPC   GL1 6123   3.150   2.845   5.289 -0.4327  0.0596 -0.1310
  511POPC   GL2 6124   2.932   2.717   5.411  0.3930 -0.1792  0.1727
  511POPC   C1A 6125   3.390   2.845   5.671  0.1673 -0.0120  0.0674
  511POPC   D2A 6126   3.594   3.037   6.007 -0.0803 -0.0509  0.2362
  511POPC   C3A 6127   3.416   2.958   6.395  0.0014  0.1897 -0.3111
  511POPC   C4A 6128   3.506   2.504   6.650 -0.0503  0.0905  0.0392
  511POPC   C1B 6129   2.806   2.347   5.658 -0.3094  0.1710  0.1850
  511POPC   C2B 6130   2.653   1.984   5.872 -0.0296 -0.2812  0.0544
  511POPC   C3B 6131   2.249   1.783   6.041 -0.2891  0.4548  0.0469
  511POPC   C4B 6132   1.945   1.612   6.356  0.0564  0.0701  0.0923
  512POPC   NC3 6133   1.261  11.034   4.412  0.0626  0.4082  0.1799
  512POPC   PO4 6134   0.923  10.806   4.346 -0.2328 -0.0662  0.2824
  512POPC   GL1 6135   0.840  10.755   4.796 -0.3541 -0.0215  0.3727
  512POPC   GL2 6136   0.537  10.736   4.918 -0.0271 -0.4899 -0.4367
  512POPC   C1A 6137   0.750  11.185   5.040 -0.1553 -0.0143  0.1922
  512POPC   D2A 6138   0.678  11.401   5.456  0.0324  0.1977 -0.0484
  512POPC   C3A 6139   0.679  11.417   5.961 -0.0899 -0.0700 -0.0008
  512POPC   C4A 6140   0.787  11.448   6.412 -0.0037  0.0822  0.0233
  512POPC   C1B 6141   0.397  10.783   5.340  0.1223 -0.0492 -0.1052
  512POPC   C2B 6142   0.530  11.014   5.698 -0.3035 -0.0935  0.0164
  512POPC   C3B 6143   0.772  10.967   6.070 -0.0645 -0.2690  0.0891
  512POPC   C4B 6144   0.849  10.576   6.340 -0.1047  0.2297 -0.0125
  513POPC   NC3 6145   9.897   4.739   8.632  0.1831 -0.4110  0.1121
  513POPC   PO4 6146   9.886   4.315   8.688 -0.0033 -0.2886 -0.1961
  513POPC   GL1 6147  10.046   4.132   9.015  0.0719 -0.1295 -0.0258
  513POPC   GL2 6148   9.933   4.314   9.209 -0.0179  0.1768 -0.0341
  513POPC   C1A 6149  10.268   3.758   9.194  0.0575 -0.1993  0.0047
  513POPC   D2A 6150  10.332   3.312   9.104 -0.4719 -0.0553 -0.0254
  513POPC   C3A 6151  10.551   2.967   9.351 -0.0795 -0.1325  0.0247
  513POPC   C4A 6152  10.680   2.581   9.535 -0.1070  0.1955  0.0466
  513POPC   C1B 6153   9.716   3.948   9.350 -0.1376  0.1148 -0.3112
  513POPC   C2B 6154   9.616   3.526   9.465  0.1050  0.2611 -0.0247
  513POPC   C3B 6155   9.444   3.111   9.536 -0.1017 -0.3972 -0.2067
  513POPC   C4B 6156   9.171   2.759   9.740  0.0052  0.0021  0.1593
  514POPC   NC3 6157   8.764   6.923   8.965  0.1033 -0.0055 -0.1870
  514POPC   PO4 6158   8.614   6.913   8.573 -0.2552  0.1067  0.1238
  514POPC   GL1 6159   8.452   7.293   8.808 -0.1133 -0.1532 -0.0883
  514POPC   GL2 6160   8.580   7.536   8.781  0.0721 -0.0963  0.2043
  514POPC   C1A 6161   8.128   7.573   9.042  0.0851  0.0121  0.2749
  514POPC   D2A 6162   8.190   7.969   9.263 -0.1510  0.0440 -0.1120
  514POPC   C3A 6163   7.947   7.790   9.621  0.0350 -0.0730 -0.1814
  514POPC   C4A 6164   7.695   7.486   9.898  0.3928  0.0606  0.0806
  514POPC   C1B 6165   8.610   8.013   8.893  0.0957 -0.2826  0.2149
  514POPC   C2B 6166   8.757   8.449   8.981 -0.1492  0.3160  0.1735
  514POPC   C3B 6167   8.867   8.878   9.223 -0.0474 -0.2007  0.0460
  514POPC   C4B 6168   9.169   9.226   9.397  0.3424  0.2228  0.0408
  515POPC   NC3 6169  15.957   5.885   5.095  0.0632  0.0555 -0.0942
  515POPC   PO4 6170  16.096   5.833   5.449 -0.1752  0.0979 -0.0986
  515POPC   GL1 6171  16.040   5.774   5.819 -0.0647  0.1618 -0.0713
  515POPC   GL2 6172  16.148   5.486   5.824 -0.1317 -0.0497 -0.0989
  515POPC   C1A 6173  15.728   5.882   6.160 -0.0617 -0.3321  0.1760
  515POPC   D2A 6174  15.578   5.671   6.498 -0.5334 -0.0902 -0.2859
  515POPC   C3A 6175  15.557   5.209   6.549  0.1231  0.2799 -0.1565
  515POPC   C4A 6176  15.263   4.860   6.613  0.2659 -0.3971  0.0646
  515POPC   C1B 6177  16.223   5.751   6.210 -0.0793 -0.2646  0.0774
  515POPC   C2B 6178  16.342   6.040   6.567  0.0259 -0.1063 -0.2007
  515POPC   C3B 6179  16.136   6.188   6.955 -0.2219  0.0112  0.1910
  515POPC   C4B 6180  15.819   6.221   7.289 -0.1729  0.2593  0.0859
  516POPC   NC3 6181  10.972  13.553   5.032 -0.4171  0.0882  0.1649
  516POPC   PO4 6182  11.211  13.532   4.737  0.1986 -0.2269 -0.1752
  516POPC   GL1 6183  11.497  13.585   5.062 -0.0204  0.2992  0.1726
  516POPC   GL2 6184  11.363  13.628   5.327  0.0863  0.3901 -0.3520
  516POPC   C1A 6185  11.644  14.028   5.158  0.0901  0.0224  0.2029
  516POPC   D2A 6186  11.975  14.161   5.444 -0.2982  0.2367  0.0251
  516POPC   C3A 6187  12.003  14.254   5.919  0.5705 -0.0669 -0.0237
  516POPC   C4A 6188  12.236  14.285   6.297 -0.3050 -0.2190 -0.0819
  516POPC   C1B 6189  11.239  13.627   5.775 -0.2390 -0.1591  0.0952
  516POPC   C2B 6190  11.226  13.381   6.177 -0.0166  0.0811 -0.2327
  516POPC   C3B 6191  11.157  13.415   6.580 -0.1285  0.3732  0.5657
  516POPC   C4B 6192  11.301  13.575   6.952  0.0017  0.0631 -0.0462
  517POPC   NC3 6193   9.095   4.456  12.436 -0.1563  0.3715  0.1291
  517POPC   PO4 6194   9.009   4.764  12.260 -0.0860  0.0208 -0.1319
  517POPC   GL1 6195   8.829   4.449  12.076 -0.0290  0.0084  0.2031
  517POPC   GL2 6196   8.842   4.392  11.801 -0.1026  0.3837 -0.0439
  517POPC   C1A 6197   8.517   4.139  12.155  0.0624  0.0258 -0.1295
  517POPC   D2A 6198   8.102   4.228  12.014  0.0969 -0.0085 -0.2220
  517POPC   C3A 6199   7.736   4.257  12.357 -0.0410 -0.1580 -0.2668
  517POPC   C4A 6200   7.366   4.288  12.597  0.0102 -0.0210  0.1503
  517POPC   C1B 6201   8.877   3.947  11.918  0.0546  0.1856 -0.0424
  517POPC   C2B 6202   9.018   3.551  11.944  0.2875  0.1329 -0.0519
  517POPC   C3B 6203   9.007   3.094  11.886  0.3302 -0.0156 -0.0020
  517POPC   C4B 6204   9.241   2.785  11.729 -0.0194  0.1959  0.1423
  518POPC   NC3 6205   1.275  13.495   4.239 -0.6007  0.2282 -0.2044
  518POPC   PO4 6206   1.596  13.359   4.078  0.0606 -0.1643 -0.3173
  518POPC   GL1 6207   1.656  13.417   4.492 -0.1466 -0.1861 -0.0172
  518POPC   GL2 6208   1.576  13.138   4.579 -0.1622 -0.3926  0.1032
  518POPC   C1A 6209   2.067  13.439   4.687  0.0034  0.2254  0.0767
  518POPC   D2A 6210   2.246  13.484   5.114  0.2049  0.0893 -0.1863
  518POPC   C3A 6211   1.949  13.723   5.445 -0.0279 -0.2799  0.0356
  518POPC   C4A 6212   1.908  14.093   5.691  0.2133 -0.1668  0.1139
  518POPC   C1B 6213   1.586  13.422   4.962  0.1500 -0.0927  0.2355
  518POPC   C2B 6214   1.456  13.573   5.382 -0.2073  0.1369  0.2392
  518POPC   C3B 6215   1.447  13.865   5.680 -0.2660 -0.0491 -0.0171
  518POPC   C4B 6216   1.244  13.976   6.058 -0.0495  0.0831 -0.2442
  519POPC   NC3 6217  12.229   3.277   5.815 -0.2074  0.0725  0.0333
  519POPC   PO4 6218  12.063   3.520   6.062 -0.0264 -0.1262 -0.1839
  519POPC   GL1 6219  12.294   3.452   6.347  0.0269 -0.0774  0.0682
  519POPC   GL2 6220  12.290   3.756   6.481 -0.0109  0.1448 -0.2852
  519POPC   C1A 6221  12.652   3.177   6.380  0.2184 -0.0711 -0.0621
  519POPC   D2A 6222  13.096   3.417   6.441  0.2138  0.2252  0.0678
  519POPC   C3A 6223  13.203   3.670   6.861 -0.1391 -0.0079  0.0742
  519POPC   C4A 6224  13.461   3.750   7.217 -0.1153  0.2302 -0.0379
  519POPC   C1B 6225  12.580   3.504   6.740  0.2844 -0.0941 -0.1511
  519POPC   C2B 6226  12.885   3.179   6.819 -0.3039 -0.1960  0.3568
  519POPC   C3B 6227  13.112   2.887   7.123 -0.0716 -0.1288  0.2620
  519POPC   C4B 6228  13.194   2.438   7.155  0.1411  0.0962 -0.0942
  520POPC   NC3 6229   8.819   9.023   6.469  0.0111 -0.2329 -0.1047
  520POPC   PO4 6230   8.585   8.717   6.462 -0.0709  0.3172  0.0268
  520POPC   GL1 6231   8.525   8.797   6.830  0.3290 -0.1531  0.0334
  520POPC   GL2 6232   8.457   9.094   6.797  0.0116  0.4596 -0.0598
  520POPC   C1A 6233   8.169   8.885   7.134  0.0231 -0.2123  0.0759
  520POPC   D2A 6234   7.972   9.034   7.474  0.2435  0.0478 -0.0317
  520POPC   C3A 6235   7.938   8.981   7.949 -0.2989  0.0732 -0.0888
  520POPC   C4A 6236   7.890   9.282   8.354  0.1985 -0.0396 -0.1270
  520POPC   C1B 6237   8.640   9.431   7.030 -0.0472 -0.1778 -0.1966
  520POPC   C2B 6238   8.654   9.760   7.400  0.0867  0.0554  0.4255
  520POPC   C3B 6239   8.597   9.692   7.880 -0.2628 -0.3031  0.0621
  520POPC   C4B 6240   8.243   9.594   8.194 -0.0630 -0.1743 -0.0028
  521POPC   NC3 6241   9.778   4.786   9.115  0.0599 -0.1660 -0.2346
  521POPC   PO4 6242   9.541   4.754   9.446 -0.0862  0.0735  0.0802
  521POPC   GL1 6243   9.512   4.368   9.466  0.0115  0.1255  0.2653
  521POPC   GL2 6244   9.268   4.264   9.398  0.1741  0.3147  0.0038
  521POPC   C1A 6245   9.714   4.068   9.815 -0.1616 -0.0629 -0.3845
  521POPC   D2A 6246   9.964   3.647   9.767  0.1611  0.0568 -0.2770
  521POPC   C3A 6247   9.900   3.368  10.163 -0.4297 -0.1982  0.3344
  521POPC   C4A 6248   9.888   2.962  10.366 -0.1177  0.0504  0.1835
  521POPC   C1B 6249   9.225   3.782   9.320  0.0255  0.2994 -0.2971
  521POPC   C2B 6250   9.130   3.435   9.488  0.1307 -0.1021 -0.0423
  521POPC   C3B 6251   8.938   3.429   9.877  0.1071 -0.1128  0.0224
  521POPC   C4B 6252   8.521   3.666  10.010 -0.0782 -0.1016  0.4558
  522POPC   NC3 6253   8.250   3.839   8.143 -0.3093  0.1220 -0.0105
  522POPC   PO4 6254   8.497   4.006   8.401  0.0458 -0.2190 -0.0004
  522POPC   GL1 6255   8.279   3.843   8.762  0.2293  0.1773  0.3529
  522POPC   GL2 6256   8.028   3.801   8.579  0.1861 -0.1061  0.2058
  522POPC   C1A 6257   7.907   4.038   8.969  0.1492 -0.1199 -0.0310
  522POPC   D2A 6258   7.510   3.920   8.880 -0.3831  0.0393 -0.2274
  522POPC   C3A 6259   7.332   3.986   9.253  0.0219 -0.0969 -0.1293
  522POPC   C4A 6260   7.238   3.791   9.688  0.1549  0.3291  0.0653
  522POPC   C1B 6261   7.966   3.395   8.621 -0.2068 -0.2073  0.3523
  522POPC   C2B 6262   8.208   3.037   8.783 -0.1325 -0.1615 -0.1597
  522POPC   C3B 6263   8.275   2.652   8.654 -0.2568  0.0253 -0.0648
  522POPC   C4B 6264   8.123   2.289   8.441 -0.2219  0.1921  0.0627
  523POPC   NC3 6265   9.447  15.256   4.825 -0.1236 -0.1736  0.0535
  523POPC   PO4 6266   9.265  15.559   4.878  0.0867 -0.5436 -0.1387
  523POPC   GL1 6267   9.242  15.348   5.293 -0.1111  0.0931 -0.5156
  523POPC   GL2 6268   9.462  15.198   5.375  0.0728 -0.3315  0.0900
  523POPC   C1A 6269   9.124  15.213   5.721 -0.3236  0.1485  0.2797
  523POPC   D2A 6270   9.190  15.111   6.170 -0.0624  0.1748  0.0301
  523POPC   C3A 6271   8.960  15.407   6.525  0.1641  0.0608  0.2760
  523POPC   C4A 6272   9.165  15.740   6.798  0.0320 -0.0529 -0.0659
  523POPC   C1B 6273   9.599  15.283   5.817 -0.1578  0.0066  0.2525
  523POPC   C2B 6274   9.991  15.324   6.074 -0.0493 -0.2257  0.5028
  523POPC   C3B 6275  10.159  15.467   6.458 -0.3212 -0.3111 -0.2175
  523POPC   C4B 6276  10.509  15.608   6.811 -0.1367 -0.4066  0.2203
  524POPC   NC3 6277   9.034   2.939   7.109  0.1371  0.0839  0.0805
  524POPC   PO4 6278   9.031   2.822   6.728  0.1429  0.1548  0.0189
  524POPC   GL1 6279   9.092   2.516   6.747  0.0360  0.0889 -0.2442
  524POPC   GL2 6280   8.869   2.332   6.879  0.0237  0.0877  0.0905
  524POPC   C1A 6281   9.283   2.402   7.192 -0.1508 -0.0912 -0.0459
  524POPC   D2A 6282   9.508   2.050   7.450 -0.3016  0.2834  0.1282
  524POPC   C3A 6283   9.446   2.059   7.877  0.0444 -0.2288  0.0044
  524POPC   C4A 6284   9.130   2.057   8.168  0.1048  0.0172  0.0510
  524POPC   C1B 6285   8.585   2.013   7.029  0.1673  0.2054  0.0270
  524POPC   C2B 6286   8.638   1.699   7.321  0.0666  0.0398 -0.1534
  524POPC   C3B 6287   8.555   1.353   7.593  0.2214  0.0330  0.2102
  524POPC   C4B 6288   8.324   1.226   7.957 -0.0030  0.3251 -0.1094
  525POPC   NC3 6289   3.714  15.045   4.138  0.1646 -0.0117 -0.0625
  525POPC   PO4 6290   3.986  14.840   4.260  0.0453 -0.0616 -0.0637
  525POPC   GL1 6291   3.944  14.792   4.608  0.0543  0.2162  0.0906
  525POPC   GL2 6292   3.915  15.088   4.761  0.0677 -0.1406  0.1556
  525POPC   C1A 6293   3.716  14.667   5.036 -0.1362 -0.0205  0.0416
  525POPC   D2A 6294   3.623  14.642   5.489  0.1381  0.0033 -0.0966
  525POPC   C3A 6295   3.646  14.778   5.898  0.1590 -0.1773  0.2325
  525POPC   C4A 6296   3.701  14.666   6.328  0.1178 -0.1202 -0.2209
  525POPC   C1B 6297   4.214  14.819   5.061  0.2440  0.1563  0.5164
  525POPC   C2B 6298   4.109  14.566   5.425 -0.4698 -0.0105 -0.0619
  525POPC   C3B 6299   3.918  14.236   5.664 -0.2758 -0.1404 -0.1243
  525POPC   C4B 6300   3.944  13.756   5.672 -0.2012 -0.1644 -0.3535
  526POPC   NC3 6301  15.219  13.964   4.207 -0.1404 -0.0159 -0.1769
  526POPC   PO4 6302  15.353  14.217   4.469  0.1586  0.4913 -0.1866
  526POPC   GL1 6303  15.294  14.383   4.798  0.1981 -0.0621  0.0477
  526POPC   GL2 6304  15.266  14.650   4.811 -0.1268  0.0654 -0.2129
  526POPC   C1A 6305  15.710  14.422   5.071  0.0697  0.3331  0.0085
  526POPC   D2A 6306  15.812  14.685   5.423 -0.1278  0.0846 -0.2060
  526POPC   C3A 6307  15.493  14.884   5.744 -0.2532  0.2857  0.0046
  526POPC   C4A 6308  15.069  14.912   5.933  0.1938 -0.1662 -0.0021
  526POPC   C1B 6309  15.284  14.516   5.245 -0.1072 -0.0177 -0.2453
  526POPC   C2B 6310  14.860  14.454   5.409 -0.2206  0.0050  0.1745
  526POPC   C3B 6311  14.621  14.469   5.794 -0.2270 -0.2641 -0.0760
  526POPC   C4B 6312  14.241  14.498   6.081  0.1189  0.2144  0.1047
  527POPC   NC3 6313   4.265   1.105   4.680 -0.0405  0.2058  0.1838
  527POPC   PO4 6314   3.994   1.391   4.805  0.0019 -0.1807  0.0664
  527POPC   GL1 6315   3.777   1.053   4.958  0.0814  0.1514  0.0201
  527POPC   GL2 6316   3.973   0.968   5.035 -0.1949  0.1693 -0.1410
  527POPC   C1A 6317   3.462   1.009   5.288  0.2676 -0.1530 -0.3194
  527POPC   D2A 6318   3.306   0.544   5.413 -0.3084 -0.0763 -0.0262
  527POPC   C3A 6319   3.110   0.305   5.715  0.1817 -0.4399 -0.0507
  527POPC   C4A 6320   3.333   0.187   6.113 -0.0507 -0.0579 -0.0104
  527POPC   C1B 6321   3.871   0.921   5.532 -0.0587  0.0571 -0.1088
  527POPC   C2B 6322   4.048   0.792   5.915  0.0163  0.0845  0.2403
  527POPC   C3B 6323   4.224   0.562   6.275  0.2642 -0.3682 -0.1135
  527POPC   C4B 6324   4.022   0.336   6.606 -0.0466  0.0720 -0.0141
  528POPC   NC3 6325   8.699   4.989   9.237  0.2179 -0.2371  0.0567
  528POPC   PO4 6326   8.570   4.771   8.911 -0.2061 -0.3006  0.2877
  528POPC   GL1 6327   8.551   4.524   9.211 -0.1529 -0.0876 -0.0242
  528POPC   GL2 6328   8.252   4.446   9.193  0.0977  0.1497 -0.4092
  528POPC   C1A 6329   8.745   4.214   9.469 -0.0826  0.0732  0.0825
  528POPC   D2A 6330   8.724   3.820   9.641  0.3014  0.1380  0.1412
  528POPC   C3A 6331   8.548   3.466   9.380 -0.0227 -0.1670  0.1481
  528POPC   C4A 6332   8.404   3.075   9.262 -0.0474 -0.1043 -0.1182
  528POPC   C1B 6333   7.943   4.172   9.458  0.1522 -0.2593 -0.1838
  528POPC   C2B 6334   7.696   3.878   9.788 -0.0496  0.0409  0.2062
  528POPC   C3B 6335   7.480   3.466   9.973 -0.1379 -0.2659 -0.1615
  528POPC   C4B 6336   7.158   3.416  10.292  0.0915 -0.1160  0.0769
  529POPC   NC3 6337  13.143   6.511   6.285  0.2348 -0.1894  0.1489
  529POPC   PO4 6338  13.300   6.714   6.577  0.2678  0.2431 -0.3154
  529POPC   GL1 6339  13.574   6.529   6.797 -0.1871 -0.2612  0.2882
  529POPC   GL2 6340  13.829   6.472   6.736  0.3124  0.0212 -0.0800
  529POPC   C1A 6341  13.533   6.301   7.170 -0.2524  0.2520 -0.1099
  529POPC   D2A 6342  13.489   5.893   7.371 -0.1785 -0.1697 -0.0742
  529POPC   C3A 6343  13.497   5.701   7.805 -0.0169  0.0465 -0.3182
  529POPC   C4A 6344  13.557   5.434   8.205 -0.0552 -0.0310 -0.1057
  529POPC   C1B 6345  13.819   6.748   7.077 -0.3388  0.1814  0.1367
  529POPC   C2B 6346  13.935   6.790   7.555  0.2336 -0.0046 -0.1424
  529POPC   C3B 6347  14.208   6.885   7.908 -0.0878  0.2254  0.0240
  529POPC   C4B 6348  14.000   6.859   8.358 -0.1877 -0.0607  0.1240
  530POPC   NC3 6349  13.024   7.110   6.683 -0.0157 -0.0711  0.0363
  530POPC   PO4 6350  12.830   6.787   6.753  0.4481  0.1092 -0.1343
  530POPC   GL1 6351  13.041   6.741   7.113 -0.0356 -0.0053  0.0548
  530POPC   GL2 6352  13.337   6.738   7.060  0.4033 -0.0709  0.1385
  530POPC   C1A 6353  12.988   6.344   7.375  0.1588  0.1058 -0.1057
  530POPC   D2A 6354  13.250   6.174   7.718 -0.2060  0.0706 -0.2039
  530POPC   C3A 6355  13.735   6.257   7.707  0.1281  0.0630  0.1944
  530POPC   C4A 6356  14.017   6.434   8.086 -0.0545  0.1154  0.2242
  530POPC   C1B 6357  13.448   6.726   7.527 -0.3096  0.0903  0.0996
  530POPC   C2B 6358  13.581   6.734   7.957  0.1514  0.1250 -0.1385
  530POPC   C3B 6359  13.583   6.592   8.447  0.1960  0.1867 -0.1500
  530POPC   C4B 6360  13.717   6.211   8.618  0.0232 -0.1417  0.0338
  531POPC   NC3 6361   1.645   0.300   4.411 -0.1074  0.2762  0.4114
  531POPC   PO4 6362   1.275   0.244   4.235 -0.3144 -0.3393 -0.0403
  531POPC   GL1 6363   1.308   0.017   4.576  0.1029 -0.2574  0.3193
  531POPC   GL2 6364   1.105   0.130   4.701  0.0159 -0.1130  0.2763
  531POPC   C1A 6365   1.216  -0.426   4.686 -0.0348 -0.0755 -0.0848
  531POPC   D2A 6366   1.278  -0.830   4.921  0.2719 -0.2009 -0.0379
  531POPC   C3A 6367   1.055  -0.843   5.390 -0.0980  0.0067 -0.2807
  531POPC   C4A 6368   1.081  -0.869   5.829 -0.0199 -0.2780 -0.0939
  531POPC   C1B 6369   0.775  -0.205   4.784 -0.0964 -0.0182  0.2273
  531POPC   C2B 6370   0.310  -0.390   4.719  0.1724 -0.2849 -0.4213
  531POPC   C3B 6371  -0.162  -0.546   4.775  0.1819 -0.1613  0.5524
  531POPC   C4B 6372  -0.479  -0.774   5.059  0.3637 -0.3054 -0.0102
  532POPC   NC3 6373  13.995   4.640   5.678 -0.0223  0.3552 -0.0295
  532POPC   PO4 6374  13.852   4.954   5.854 -0.2712  0.0679 -0.1135
  532POPC   GL1 6375  14.043   5.001   6.180 -0.2413  0.0081 -0.0104
  532POPC   GL2 6376  13.946   5.033   6.481 -0.0718  0.0184  0.0196
  532POPC   C1A 6377  14.471   4.927   6.329 -0.0188 -0.1783 -0.1357
  532POPC   D2A 6378  14.692   4.747   6.759  0.3224  0.3421 -0.0558
  532POPC   C3A 6379  15.098   4.549   6.966  0.0095  0.0306  0.3023
  532POPC   C4A 6380  15.450   4.330   6.764 -0.1290 -0.2568 -0.2325
  532POPC   C1B 6381  14.199   4.787   6.796  0.1502  0.1361  0.0159
  532POPC   C2B 6382  14.415   4.717   7.185 -0.4723 -0.0623  0.1431
  532POPC   C3B 6383  14.724   4.421   7.347 -0.2160 -0.0027 -0.2134
  532POPC   C4B 6384  14.738   3.999   7.379  0.0774  0.3552 -0.0414
  533POPC   NC3 6385   7.806   7.067   7.092 -0.0963  0.1486  0.0030
  533POPC   PO4 6386   7.783   6.728   7.192 -0.0038 -0.0956 -0.0066
  533POPC   GL1 6387   7.624   6.912   7.544 -0.1777 -0.1090  0.0037
  533POPC   GL2 6388   7.343   6.987   7.441  0.1289 -0.2608  0.0435
  533POPC   C1A 6389   7.475   7.023   7.934 -0.2660 -0.1490 -0.1642
  533POPC   D2A 6390   7.181   7.256   8.272 -0.2943  0.0144  0.4158
  533POPC   C3A 6391   6.787   7.471   8.415 -0.2706 -0.0258  0.2688
  533POPC   C4A 6392   6.463   7.858   8.465  0.0252 -0.0514 -0.1374
  533POPC   C1B 6393   7.045   7.305   7.380 -0.0428  0.0661 -0.0315
  533POPC   C2B 6394   6.698   7.634   7.418  0.1819  0.2075  0.1142
  533POPC   C3B 6395   6.326   7.461   7.663  0.0380  0.1773 -0.1124
  533POPC   C4B 6396   5.913   7.495   7.718 -0.1618  0.1293 -0.1063
  534POPC   NC3 6397  12.322  14.596   4.007 -0.2011  0.0772 -0.0355
  534POPC   PO4 6398  12.210  14.853   4.248  0.2885 -0.0810  0.1988
  534POPC   GL1 6399  12.208  14.964   4.585 -0.4334 -0.1753  0.0220
  534POPC   GL2 6400  12.408  14.834   4.697  0.0101 -0.0897  0.1551
  534POPC   C1A 6401  12.214  15.365   4.902 -0.0221  0.0640  0.1651
  534POPC   D2A 6402  12.158  15.781   5.119 -0.1672 -0.4003 -0.0697
  534POPC   C3A 6403  12.444  15.963   5.472  0.1161 -0.0213  0.2937
  534POPC   C4A 6404  12.215  16.013   5.884 -0.3396  0.1697 -0.0853
  534POPC   C1B 6405  12.685  14.992   4.927  0.0144  0.0683  0.0606
  534POPC   C2B 6406  12.880  15.147   5.316 -0.2001 -0.0335  0.0572
  534POPC   C3B 6407  12.947  15.319   5.716  0.0062 -0.0500 -0.0629
  534POPC   C4B 6408  12.952  15.367   6.192 -0.1756 -0.0909  0.3005
  535POPC   NC3 6409   6.192   9.166   5.479  0.2553 -0.0031  0.1190
  535POPC   PO4 6410   6.289   8.787   5.469  0.2756  0.0250 -0.1496
  535POPC   GL1 6411   6.260   8.971   5.922 -0.0271 -0.2132 -0.1430
  535POPC   GL2 6412   6.126   8.694   5.943  0.1860  0.1710 -0.1237
  535POPC   C1A 6413   5.816   9.138   6.056  0.1919  0.2238 -0.0143
  535POPC   D2A 6414   5.585   9.389   6.388  0.1657 -0.1165 -0.1404
  535POPC   C3A 6415   5.323   9.285   6.702 -0.1011  0.1337 -0.0148
  535POPC   C4A 6416   5.022   9.310   7.073 -0.1502 -0.0456 -0.1877
  535POPC   C1B 6417   5.760   8.681   6.206 -0.0897 -0.1914 -0.1820
  535POPC   C2B 6418   5.440   8.804   6.586 -0.0714  0.1129  0.0769
  535POPC   C3B 6419   5.368   8.922   7.011  0.7579 -0.0162  0.1615
  535POPC   C4B 6420   5.348   9.024   7.451  0.4313  0.0735 -0.1970
  536POPC   NC3 6421   0.941   1.607   4.557 -0.1426  0.0285 -0.0707
  536POPC   PO4 6422   1.117   1.927   4.681 -0.4597 -0.1192  0.2905
  536POPC   GL1 6423   1.041   1.933   5.045 -0.3857 -0.0605 -0.1693
  536POPC   GL2 6424   0.802   1.748   5.181  0.0076 -0.1023 -0.0702
  536POPC   C1A 6425   0.842   2.228   5.411 -0.2976 -0.0038  0.1177
  536POPC   D2A 6426   0.480   2.478   5.545  0.0826  0.0598  0.0311
  536POPC   C3A 6427   0.496   2.461   5.979 -0.0467 -0.2332  0.0889
  536POPC   C4A 6428   0.276   2.474   6.410  0.0247 -0.0454 -0.1217
  536POPC   C1B 6429   0.551   1.840   5.570 -0.0933  0.1961  0.4474
  536POPC   C2B 6430   0.584   1.937   6.012  0.2783  0.0133 -0.1382
  536POPC   C3B 6431   0.352   2.001   6.371  0.0609  0.0008 -0.1049
  536POPC   C4B 6432   0.467   2.146   6.801  0.2725 -0.0186 -0.2541
  537POPC   NC3 6433   9.544   4.245   7.418 -0.1510 -0.0773 -0.1299
  537POPC   PO4 6434   9.553   3.952   7.636 -0.0932 -0.1030 -0.2892
  537POPC   GL1 6435   9.371   3.668   7.808 -0.0620  0.1697 -0.4136
  537POPC   GL2 6436   9.183   3.490   7.957  0.1722  0.0982  0.3860
  537POPC   C1A 6437   9.566   3.468   8.199  0.0380  0.1395  0.0995
  537POPC   D2A 6438   9.655   3.294   8.624  0.0904  0.0294 -0.2277
  537POPC   C3A 6439   9.621   2.848   8.737  0.0720 -0.0597 -0.0458
  537POPC   C4A 6440   9.383   2.536   8.529  0.2259  0.1945  0.0144
  537POPC   C1B 6441   9.526   3.120   7.832 -0.1814 -0.2832 -0.0519
  537POPC   C2B 6442   9.793   2.902   8.159  0.1618 -0.0274  0.0829
  537POPC   C3B 6443   9.906   2.546   8.415 -0.1411 -0.1230  0.3477
  537POPC   C4B 6444   9.926   2.090   8.546 -0.2598 -0.4531 -0.2291
  538POPC   NC3 6445  11.630   4.096   7.633  0.3496  0.0448  0.2196
  538POPC   PO4 6446  11.372   4.279   7.854 -0.1252  0.0666 -0.0167
  538POPC   GL1 6447  11.503   4.330   8.148  0.0550 -0.3826  0.0854
  538POPC   GL2 6448  11.808   4.205   8.053 -0.1624 -0.1336  0.2173
  538POPC   C1A 6449  11.606   4.158   8.554 -0.1047 -0.1920  0.2327
  538POPC   D2A 6450  11.911   4.009   8.847 -0.2333  0.1049 -0.1365
  538POPC   C3A 6451  12.253   3.961   9.172  0.3126  0.3309 -0.0799
  538POPC   C4A 6452  12.497   3.790   9.510  0.0513  0.0195  0.2579
  538POPC   C1B 6453  11.933   3.879   8.334  0.2214  0.2071 -0.1840
  538POPC   C2B 6454  12.114   3.462   8.451  0.3311  0.1144  0.1662
  538POPC   C3B 6455  11.973   3.018   8.430  0.1703  0.2499 -0.1926
  538POPC   C4B 6456  11.584   2.773   8.531  0.0480 -0.0883  0.0955
  539POPC   NC3 6457  11.575  14.320   4.641  0.2498  0.2605  0.5463
  539POPC   PO4 6458  11.453  14.657   4.575 -0.0861 -0.1198 -0.1464
  539POPC   GL1 6459  11.601  14.748   4.931  0.0039 -0.2270 -0.3855
  539POPC   GL2 6460  11.659  14.535   5.075  0.1932 -0.1657 -0.0762
  539POPC   C1A 6461  11.966  14.987   4.995 -0.0586  0.3068 -0.2814
  539POPC   D2A 6462  12.213  15.145   5.344  0.0293  0.0025 -0.1087
  539POPC   C3A 6463  12.557  15.008   5.639  0.2654 -0.0023  0.0459
  539POPC   C4A 6464  12.973  14.821   5.759 -0.0647 -0.1512  0.1148
  539POPC   C1B 6465  11.789  14.639   5.463  0.1538 -0.1353 -0.0845
  539POPC   C2B 6466  12.152  14.732   5.721 -0.0710  0.1629 -0.3049
  539POPC   C3B 6467  12.523  14.578   5.995  0.0931  0.0448 -0.0941
  539POPC   C4B 6468  12.696  14.734   6.412 -0.0736  0.1118 -0.4383
  540POPC   NC3 6469   1.216  12.678   3.766  0.0482  0.1797  0.0292
  540POPC   PO4 6470   0.849  12.739   3.931 -0.0041  0.1017  0.0760
  540POPC   GL1 6471   0.973  12.591   4.290 -0.1881 -0.1927  0.1409
  540POPC   GL2 6472   0.738  12.395   4.329 -0.0469  0.0507 -0.2384
  540POPC   C1A 6473   1.131  12.725   4.727 -0.0345 -0.0310  0.0645
  540POPC   D2A 6474   1.309  12.960   5.014  0.0039 -0.2208 -0.1061
  540POPC   C3A 6475   1.095  13.138   5.330  0.3048 -0.0449 -0.0388
  540POPC   C4A 6476   1.002  13.389   5.740  0.2392 -0.1374 -0.1280
  540POPC   C1B 6477   0.876  12.249   4.737  0.0252  0.2191 -0.2870
  540POPC   C2B 6478   1.040  12.185   5.218 -0.0033  0.2938  0.0110
  540POPC   C3B 6479   1.169  12.337   5.631 -0.1031 -0.2705  0.0255
  540POPC   C4B 6480   1.448  12.494   5.984 -0.2335  0.3338  0.3374
  541POPC   NC3 6481   8.244   5.758   9.385  0.0051 -0.0945 -0.0427
  541POPC   PO4 6482   8.303   5.329   9.505 -0.1026  0.1894  0.0652
  541POPC   GL1 6483   7.963   5.048   9.512  0.0563 -0.1825  0.4464
  541POPC   GL2 6484   7.715   4.929   9.696  0.0623 -0.1110  0.0061
  541POPC   C1A 6485   7.826   4.678   9.305  0.2196  0.3772 -0.1934
  541POPC   D2A 6486   7.559   4.400   9.127  0.0311 -0.0539  0.0802
  541POPC   C3A 6487   7.451   4.338   9.547  0.1230 -0.0938 -0.3044
  541POPC   C4A 6488   7.576   4.389   9.997  0.0841  0.1394  0.1889
  541POPC   C1B 6489   7.302   4.810   9.509 -0.0490  0.1530 -0.0557
  541POPC   C2B 6490   6.977   4.610   9.765 -0.1155  0.2587 -0.1081
  541POPC   C3B 6491   6.649   4.572  10.063  0.4032  0.1024  0.3222
  541POPC   C4B 6492   6.621   4.277  10.411 -0.4334  0.1701 -0.2592
  542POPC   NC3 6493   6.509   7.988   6.405 -0.0544  0.3117 -0.1957
  542POPC   PO4 6494   6.586   7.584   6.405  0.0404 -0.1235  0.1192
  542POPC   GL1 6495   6.298   7.453   6.620  0.1152  0.0953 -0.3219
  542POPC   GL2 6496   6.384   7.487   6.880 -0.1299 -0.2194 -0.0178
  542POPC   C1A 6497   5.869   7.543   6.825 -0.3823  0.4924 -0.0888
  542POPC   D2A 6498   5.687   7.727   7.227  0.1359 -0.0054 -0.4575
  542POPC   C3A 6499   5.677   7.924   7.597  0.0578 -0.0615 -0.1807
  542POPC   C4A 6500   5.986   7.855   8.005  0.1131 -0.3656  0.1380
  542POPC   C1B 6501   6.280   7.778   7.239 -0.1482  0.0266  0.0821
  542POPC   C2B 6502   6.202   8.030   7.563  0.1733  0.2197 -0.1211
  542POPC   C3B 6503   5.990   8.352   7.752  0.3496 -0.0746 -0.2898
  542POPC   C4B 6504   5.711   8.758   7.711 -0.1260 -0.3345  0.1784
  543POPC   NC3 6505   0.483  11.172   4.608 -0.1489  0.0600  0.0155
  543POPC   PO4 6506   0.167  10.928   4.566  0.0024  0.2521  0.1247
  543POPC   GL1 6507  -0.054  10.996   4.907  0.0035 -0.3749  0.2121
  543POPC   GL2 6508   0.170  11.101   5.019  0.1926 -0.2272 -0.2343
  543POPC   C1A 6509  -0.234  11.314   5.188  0.1242  0.2528 -0.1007
  543POPC   D2A 6510  -0.364  11.539   5.541  0.0701  0.0980  0.2781
  543POPC   C3A 6511  -0.587  11.601   5.949 -0.4010 -0.2514 -0.1125
  543POPC   C4A 6512  -0.558  11.731   6.353  0.0765 -0.2718 -0.0073
  543POPC   C1B 6513   0.191  11.334   5.455 -0.0455 -0.0190 -0.1452
  543POPC   C2B 6514   0.052  11.592   5.818 -0.5738 -0.3218  0.0053
  543POPC   C3B 6515  -0.089  11.720   6.141 -0.2554 -0.1152  0.0361
  543POPC   C4B 6516  -0.146  11.528   6.544  0.1706 -0.1057 -0.0675
  544POPC   NC3 6517   3.601   5.480   5.627 -0.1428  0.0033  0.1290
  544POPC   PO4 6518   3.419   5.516   5.278  0.0676 -0.0303  0.0107
  544POPC   GL1 6519   3.239   5.265   5.408  0.2658 -0.1068 -0.3639
  544POPC   GL2 6520   2.914   5.305   5.394  0.3156  0.0414 -0.3267
  544POPC   C1A 6521   3.151   5.309   5.841 -0.2029  0.0241 -0.3823
  544POPC   D2A 6522   2.788   5.410   6.164 -0.1166 -0.0276 -0.0979
  544POPC   C3A 6523   2.904   5.698   6.557  0.0174  0.1307 -0.1966
  544POPC   C4A 6524   2.958   5.859   6.953  0.0943 -0.0838  0.4677
  544POPC   C1B 6525   2.567   5.311   5.746 -0.0801 -0.2175 -0.1517
  544POPC   C2B 6526   2.500   4.959   6.120 -0.0386  0.1834  0.1540
  544POPC   C3B 6527   2.555   4.749   6.531 -0.0338  0.0528 -0.0694
  544POPC   C4B 6528   2.795   4.734   6.918 -0.2182 -0.6321 -0.2363
  545POPC   NC3 6529  12.266   6.738   6.751 -0.1318  0.1675 -0.1572
  545POPC   PO4 6530  12.460   7.068   6.853 -0.0679 -0.2822 -0.1425
  545POPC   GL1 6531  12.723   7.130   7.104  0.3368  0.1163 -0.0556
  545POPC   GL2 6532  12.590   7.393   7.248  0.2146  0.3528  0.2945
  545POPC   C1A 6533  13.199   7.162   7.226  0.5525 -0.2038  0.2962
  545POPC   D2A 6534  13.615   7.199   7.392 -0.1320  0.1371  0.3266
  545POPC   C3A 6535  13.943   7.285   7.075  0.2017  0.0271  0.2753
  545POPC   C4A 6536  14.330   7.244   6.866 -0.0779 -0.1483  0.0472
  545POPC   C1B 6537  12.776   7.395   7.649 -0.0783  0.1497  0.2587
  545POPC   C2B 6538  13.210   7.298   7.758  0.0814 -0.0552 -0.2797
  545POPC   C3B 6539  13.634   7.359   7.951 -0.0643  0.1093  0.1267
  545POPC   C4B 6540  13.905   7.353   8.240 -0.1528  0.0235 -0.2466
  546POPC   NC3 6541  10.413  16.396   5.055  0.0390 -0.4552  0.1039
  546POPC   PO4 6542  10.594  16.067   5.053 -0.0131 -0.1339  0.0378
  546POPC   GL1 6543  10.621  15.873   5.450  0.0569 -0.0233  0.0347
  546POPC   GL2 6544  10.382  15.724   5.507 -0.3954  0.0498  0.1066
  546POPC   C1A 6545  10.974  15.621   5.594 -0.1183 -0.2475 -0.0620
  546POPC   D2A 6546  11.007  15.271   5.840 -0.1927  0.1481 -0.1019
  546POPC   C3A 6547  10.953  14.934   6.152 -0.2007  0.1826 -0.0264
  546POPC   C4A 6548  11.037  14.838   6.569 -0.1141  0.3118  0.2237
  546POPC   C1B 6549  10.514  15.595   5.913  0.2226  0.1214 -0.2112
  546POPC   C2B 6550  10.719  15.386   6.241  0.0335  0.0272 -0.0114
  546POPC   C3B 6551  11.094  15.361   6.483 -0.1766  0.3516 -0.0205
  546POPC   C4B 6552  11.480  15.551   6.576 -0.0040  0.0625  0.1190
  547POPC   NC3 6553  14.487   7.537   5.366 -0.0545 -0.1679  0.0102
  547POPC   PO4 6554  14.607   7.245   5.591 -0.1599  0.1409 -0.0513
  547POPC   GL1 6555  14.653   7.653   5.801 -0.0079 -0.1770 -0.1235
  547POPC   GL2 6556  14.981   7.678   5.822 -0.1096  0.1182  0.2261
  547POPC   C1A 6557  14.625   8.044   6.047  0.1915  0.0398  0.0620
  547POPC   D2A 6558  14.708   8.094   6.552  0.0214 -0.1498 -0.1567
  547POPC   C3A 6559  14.772   8.472   6.748 -0.0946  0.2255 -0.1463
  547POPC   C4A 6560  14.966   8.901   6.837 -0.1652 -0.0522 -0.0890
  547POPC   C1B 6561  14.982   7.644   6.268 -0.1715 -0.0629 -0.1123
  547POPC   C2B 6562  15.079   7.574   6.723  0.3787  0.2107  0.1220
  547POPC   C3B 6563  15.254   7.723   7.169  0.2074 -0.2267 -0.0519
  547POPC   C4B 6564  15.486   7.647   7.537 -0.0091 -0.0756 -0.1258
  548POPC   NC3 6565   0.046   3.547   5.232 -0.2569  0.1268  0.0945
  548POPC   PO4 6566  -0.308   3.394   5.100 -0.1750  0.0474 -0.2646
  548POPC   GL1 6567  -0.302   3.451   5.479  0.2235  0.0082 -0.0318
  548POPC   GL2 6568  -0.299   3.213   5.643 -0.0876 -0.3874  0.0966
  548POPC   C1A 6569  -0.619   3.635   5.776 -0.3316 -0.0356  0.0514
  548POPC   D2A 6570  -1.068   3.577   5.785  0.0579  0.3436 -0.0854
  548POPC   C3A 6571  -1.191   3.528   6.184  0.1363  0.1946  0.1324
  548POPC   C4A 6572  -0.853   3.282   6.423 -0.2679 -0.3036  0.2812
  548POPC   C1B 6573  -0.487   3.271   6.074 -0.1991  0.1420 -0.1609
  548POPC   C2B 6574  -0.463   3.666   6.297 -0.1326  0.1461 -0.0067
  548POPC   C3B 6575  -0.459   3.892   6.686 -0.1986  0.2351 -0.0048
  548POPC   C4B 6576  -0.406   3.990   7.088 -0.0984 -0.0190  0.2198
  549POPC   NC3 6577   1.910  10.654   4.492  0.0172 -0.0574  0.1181
  549POPC   PO4 6578   2.270  10.737   4.383 -0.2841 -0.0108  0.1286
  549POPC   GL1 6579   2.308  10.749   4.751 -0.2981  0.2204  0.3070
  549POPC   GL2 6580   2.179  10.885   4.889  0.1403 -0.1950  0.0335
  549POPC   C1A 6581   2.379  10.524   5.157 -0.1360 -0.0575  0.2509
  549POPC   D2A 6582   2.419  10.429   5.618 -0.5739  0.0704 -0.2039
  549POPC   C3A 6583   2.556  10.094   5.878  0.0013 -0.0627 -0.1123
  549POPC   C4A 6584   2.704  10.183   6.293 -0.0287 -0.0863  0.0232
  549POPC   C1B 6585   1.924  11.162   5.223  0.0673 -0.0240  0.0148
  549POPC   C2B 6586   2.018  11.394   5.613  0.1359  0.2256 -0.0650
  549POPC   C3B 6587   2.075  11.600   6.036 -0.2622  0.1318  0.0124
  549POPC   C4B 6588   2.173  11.924   6.392  0.0757  0.4380 -0.0019
  550POPC   NC3 6589  10.578   4.869   9.717 -0.1403 -0.6387 -0.1123
  550POPC   PO4 6590  10.742   5.247   9.690 -0.1402  0.1793  0.0314
  550POPC   GL1 6591  11.002   5.067   9.775  0.4616 -0.0066  0.1617
  550POPC   GL2 6592  11.249   5.227   9.771  0.2772  0.1105  0.2505
  550POPC   C1A 6593  11.235   4.700   9.923 -0.1339  0.2176 -0.0694
  550POPC   D2A 6594  11.288   4.236   9.972  0.1107  0.0990  0.0587
  550POPC   C3A 6595  11.615   3.892   9.809  0.0784  0.1571  0.1858
  550POPC   C4A 6596  12.036   3.734   9.941 -0.1905  0.4042 -0.1972
  550POPC   C1B 6597  11.599   5.000   9.837 -0.2749  0.2299 -0.0215
  550POPC   C2B 6598  11.658   4.525   9.784 -0.1756  0.0941 -0.0922
  550POPC   C3B 6599  11.992   4.233   9.840 -0.2751  0.0569 -0.2096
  550POPC   C4B 6600  12.424   4.021   9.939  0.0194  0.1142  0.1019
  551POPC   NC3 6601   9.493   7.712   6.917 -0.1967  0.0846  0.0253
  551POPC   PO4 6602   9.742   7.917   7.127 -0.1125 -0.0793 -0.3191
  551POPC   GL1 6603   9.731   8.045   7.472 -0.1348 -0.1615 -0.0187
  551POPC   GL2 6604   9.444   8.009   7.597  0.0456  0.0777 -0.1619
  551POPC   C1A 6605   9.694   8.353   7.801  0.0675 -0.0606 -0.0814
  551POPC   D2A 6606   9.600   8.712   8.037 -0.3096  0.1041 -0.2769
  551POPC   C3A 6607   9.226   8.923   7.866 -0.2677 -0.2586  0.3733
  551POPC   C4A 6608   8.968   9.225   7.646  0.1849 -0.2629  0.1896
  551POPC   C1B 6609   9.209   8.309   7.888 -0.0201 -0.1071  0.0399
  551POPC   C2B 6610   8.850   8.260   8.113  0.0114  0.3136 -0.1919
  551POPC   C3B 6611   8.523   8.125   8.313  0.1971 -0.0609 -0.0132
  551POPC   C4B 6612   8.230   7.826   8.572  0.1436 -0.0414 -0.2027
  552POPC   NC3 6613  12.234  15.671   3.732 -0.1864  0.2031  0.2591
  552POPC   PO4 6614  12.376  15.655   4.083 -0.0823 -0.2088  0.0701
  552POPC   GL1 6615  12.570  15.529   4.440  0.0060 -0.0715 -0.0182
  552POPC   GL2 6616  12.543  15.260   4.406  0.1269 -0.0113  0.0303
  552POPC   C1A 6617  12.607  15.670   4.907  0.1488 -0.0842  0.1139
  552POPC   D2A 6618  12.591  15.486   5.360  0.3433  0.0718  0.1740
  552POPC   C3A 6619  12.522  15.575   5.836 -0.1021 -0.0350 -0.3010
  552POPC   C4A 6620  12.381  15.537   6.286 -0.0387 -0.0839  0.0456
  552POPC   C1B 6621  12.910  15.363   4.681  0.0779  0.0661  0.4448
  552POPC   C2B 6622  13.038  15.608   5.062  0.1527  0.0649  0.1356
  552POPC   C3B 6623  13.285  15.519   5.481 -0.1616 -0.0280 -0.1420
  552POPC   C4B 6624  13.404  15.619   5.940  0.1222  0.2424 -0.1896
  553POPC   NC3 6625   1.356  14.332   3.853 -0.0472  0.0519 -0.2372
  553POPC   PO4 6626   1.010  14.487   3.875  0.0459 -0.2211  0.2953
  553POPC   GL1 6627   0.965  14.525   4.260 -0.2115  0.3328 -0.5061
  553POPC   GL2 6628   0.776  14.432   4.363 -0.1318  0.2745  0.0077
  553POPC   C1A 6629   1.295  14.670   4.557  0.1639 -0.1125  0.0328
  553POPC   D2A 6630   1.642  14.863   4.795  0.0102 -0.1916  0.0970
  553POPC   C3A 6631   1.523  15.273   5.004 -0.4102  0.1057  0.2889
  553POPC   C4A 6632   1.642  15.475   5.407  0.2335 -0.2988 -0.0827
  553POPC   C1B 6633   0.866  14.374   4.836 -0.1393  0.2030 -0.3214
  553POPC   C2B 6634   0.959  14.473   5.272  0.0772  0.1794 -0.1009
  553POPC   C3B 6635   0.807  14.546   5.722  0.0906  0.1344  0.1718
  553POPC   C4B 6636   0.561  14.568   6.136  0.1098 -0.1726  0.1913
  554POPC   NC3 6637   3.239   6.227   5.670 -0.2435 -0.0831 -0.0562
  554POPC   PO4 6638   3.218   6.518   5.456  0.0481  0.0204  0.0045
  554POPC   GL1 6639   3.363   6.701   5.738  0.2463 -0.1601 -0.3388
  554POPC   GL2 6640   3.542   6.932   5.620 -0.1815  0.0623 -0.1048
  554POPC   C1A 6641   3.285   6.477   6.162 -0.2447  0.1899  0.2629
  554POPC   D2A 6642   3.362   6.531   6.623 -0.1699 -0.3032 -0.2273
  554POPC   C3A 6643   3.145   6.300   6.931  0.1247  0.0968  0.2127
  554POPC   C4A 6644   2.871   6.258   7.288  0.1079  0.3775  0.3079
  554POPC   C1B 6645   3.424   7.409   5.760 -0.1160  0.4343 -0.3590
  554POPC   C2B 6646   3.194   7.638   6.135 -0.0503  0.0529  0.0166
  554POPC   C3B 6647   3.081   8.026   6.389 -0.1524  0.0100  0.0518
  554POPC   C4B 6648   2.792   8.140   6.800  0.1125 -0.1021 -0.2408
  555POPC   NC3 6649  11.051   8.227   7.632  0.0838 -0.0442  0.0149
  555POPC   PO4 6650  10.633   8.198   7.627 -0.1030 -0.0991  0.2702
  555POPC   GL1 6651  10.360   8.422   7.897  0.0201  0.3654 -0.0476
  555POPC   GL2 6652  10.514   8.667   7.787  0.0604 -0.2249  0.0577
  555POPC   C1A 6653  10.190   8.758   8.144 -0.0577  0.2397 -0.2642
  555POPC   D2A 6654  10.244   9.224   8.238  0.1966  0.5929 -0.3012
  555POPC   C3A 6655  10.283   9.381   8.674 -0.0889  0.1134  0.1702
  555POPC   C4A 6656  10.173   9.286   9.098 -0.1144 -0.0465  0.0685
  555POPC   C1B 6657  10.592   9.066   7.946  0.0581  0.0469  0.2087
  555POPC   C2B 6658  10.736   9.228   8.357 -0.0725 -0.2052  0.3547
  555POPC   C3B 6659  10.712   9.263   8.823 -0.3238 -0.0505 -0.1224
  555POPC   C4B 6660  10.646   9.486   9.194  0.0306 -0.2074 -0.2224
  556POPC   NC3 6661  13.194  11.021   4.846 -0.1291  0.1915  0.0367
  556POPC   PO4 6662  13.527  10.857   5.060  0.2653  0.2357 -0.0255
  556POPC   GL1 6663  13.819  11.089   5.347  0.2361  0.4551 -0.2305
  556POPC   GL2 6664  14.039  10.871   5.280 -0.0856 -0.2394  0.2177
  556POPC   C1A 6665  13.734  11.379   5.707 -0.0359  0.1798  0.0045
  556POPC   D2A 6666  13.567  11.531   6.135 -0.2523  0.1719  0.0039
  556POPC   C3A 6667  13.868  11.341   6.456 -0.0450 -0.1996  0.0469
  556POPC   C4A 6668  14.304  11.313   6.743  0.2378 -0.0863  0.0016
  556POPC   C1B 6669  14.287  10.765   5.694  0.1357  0.2854  0.1842
  556POPC   C2B 6670  14.515  10.820   6.069 -0.3796  0.0092 -0.0911
  556POPC   C3B 6671  14.683  11.074   6.426  0.3459  0.1123  0.0769
  556POPC   C4B 6672  14.921  11.441   6.556 -0.0858  0.1369 -0.3181
  557POPC   NC3 6673   7.975  11.842   5.290  0.0522 -0.1797  0.1178
  557POPC   PO4 6674   8.181  12.158   5.210  0.0447 -0.1900 -0.1835
  557POPC   GL1 6675   8.286  12.488   5.443 -0.2377  0.0428  0.3799
  557POPC   GL2 6676   8.136  12.739   5.471  0.0883  0.1248  0.0968
  557POPC   C1A 6677   8.090  12.483   5.887 -0.2252  0.1342  0.0395
  557POPC   D2A 6678   8.076  12.697   6.336  0.1504 -0.0412  0.1145
  557POPC   C3A 6679   7.684  12.848   6.444  0.0765 -0.2135 -0.0917
  557POPC   C4A 6680   7.411  13.210   6.521 -0.2172  0.1479 -0.2190
  557POPC   C1B 6681   7.817  12.994   5.447  0.1504 -0.1376 -0.3359
  557POPC   C2B 6682   7.452  13.186   5.799  0.0527 -0.1519  0.1320
  557POPC   C3B 6683   7.130  13.118   6.085 -0.0419  0.0063  0.1056
  557POPC   C4B 6684   6.728  12.895   6.177 -0.0608  0.1835  0.0067
  558POPC   NC3 6685   8.398   9.575   5.976  0.2224 -0.1725 -0.1585
  558POPC   PO4 6686   8.708   9.430   6.173 -0.5007 -0.0319 -0.2792
  558POPC   GL1 6687   8.577   9.684   6.441  0.0480  0.4139  0.0976
  558POPC   GL2 6688   8.854   9.787   6.561 -0.2160 -0.1070  0.5308
  558POPC   C1A 6689   8.427   9.847   6.821 -0.1667  0.1451 -0.0058
  558POPC   D2A 6690   8.287  10.044   7.266 -0.0342 -0.0625  0.1997
  558POPC   C3A 6691   8.394  10.406   7.515  0.0618 -0.0433 -0.2199
  558POPC   C4A 6692   8.557  10.817   7.683 -0.1100 -0.0275  0.1722
  558POPC   C1B 6693   9.012  10.005   6.877  0.0632  0.0605 -0.1719
  558POPC   C2B 6694   8.998  10.105   7.289 -0.0815 -0.0101 -0.1485
  558POPC   C3B 6695   8.807  10.160   7.715  0.1585 -0.1015  0.3224
  558POPC   C4B 6696   8.749  10.436   8.115  0.0113 -0.3408 -0.0700
  559POPC   NC3 6697  11.931   9.259   6.521  0.2764 -0.1007 -0.2062
  559POPC   PO4 6698  12.079   8.949   6.278  0.0772  0.2144 -0.0973
  559POPC   GL1 6699  12.374   9.102   6.453  0.3678 -0.0233 -0.1857
  559POPC   GL2 6700  12.519   8.918   6.597  0.0099  0.0571  0.0527
  559POPC   C1A 6701  12.525   9.461   6.707  0.0228  0.0352 -0.0401
  559POPC   D2A 6702  12.443   9.823   6.939  0.2708 -0.1922 -0.2238
  559POPC   C3A 6703  12.764   9.944   7.218  0.1837  0.0568  0.1624
  559POPC   C4A 6704  12.921   9.682   7.561  0.0821 -0.1213  0.0300
  559POPC   C1B 6705  12.685   9.070   6.949 -0.0915 -0.0559  0.1190
  559POPC   C2B 6706  12.789   9.135   7.385 -0.0891 -0.2122  0.0341
  559POPC   C3B 6707  13.025   9.006   7.773  0.0435  0.1901 -0.3441
  559POPC   C4B 6708  12.972   8.817   8.184 -0.0589  0.2377 -0.1216
  560POPC   NC3 6709  16.336   9.631   4.781 -0.0416 -0.0732 -0.1638
  560POPC   PO4 6710  15.961   9.658   4.949  0.0168  0.1786 -0.1089
  560POPC   GL1 6711  15.939   9.694   5.315 -0.0403  0.1663 -0.1871
  560POPC   GL2 6712  16.153   9.867   5.403 -0.0045  0.0096 -0.0259
  560POPC   C1A 6713  15.700  10.065   5.543 -0.1067  0.3622 -0.0248
  560POPC   D2A 6714  15.575  10.152   5.976  0.0390  0.0991 -0.2235
  560POPC   C3A 6715  15.833  10.129   6.312 -0.0660  0.1203 -0.1339
  560POPC   C4A 6716  16.056  10.363   6.622 -0.0632 -0.1565  0.0141
  560POPC   C1B 6717  16.091  10.052   5.832 -0.3198 -0.2724  0.0058
  560POPC   C2B 6718  16.347  10.155   6.208  0.0623 -0.1792  0.2506
  560POPC   C3B 6719  16.561  10.169   6.652 -0.1527  0.0265 -0.1896
  560POPC   C4B 6720  16.887  10.419   6.876 -0.0424 -0.3874 -0.1627
  561POPC   NC3 6721   7.355   3.119   6.977  0.0600 -0.2246 -0.1450
  561POPC   PO4 6722   7.391   3.475   7.113  0.1853 -0.0125  0.1483
  561POPC   GL1 6723   7.508   3.177   7.394 -0.1103 -0.2533  0.1704
  561POPC   GL2 6724   7.565   3.177   7.646  0.1971  0.1805 -0.1439
  561POPC   C1A 6725   7.451   2.735   7.468 -0.0152 -0.3084 -0.2670
  561POPC   D2A 6726   7.164   2.495   7.262  0.1053 -0.4194 -0.2332
  561POPC   C3A 6727   6.992   2.461   7.708  0.1022  0.1962 -0.1349
  561POPC   C4A 6728   6.602   2.311   7.938 -0.3252 -0.3298  0.0029
  561POPC   C1B 6729   7.113   2.955   7.774  0.2020  0.0437  0.0874
  561POPC   C2B 6730   6.671   2.809   7.927 -0.0659  0.3359 -0.1527
  561POPC   C3B 6731   6.461   3.192   8.101 -0.1865  0.4168  0.1177
  561POPC   C4B 6732   5.999   3.255   8.274 -0.1838  0.0515  0.1208
  562POPC   NC3 6733  10.845   5.999  10.297 -0.1680  0.0864 -0.0799
  562POPC   PO4 6734  11.112   5.777  10.474 -0.1595  0.0006 -0.0450
  562POPC   GL1 6735  11.508   5.632  10.603  0.0202 -0.1347  0.2813
  562POPC   GL2 6736  11.660   5.857  10.419 -0.1280  0.0602  0.2198
  562POPC   C1A 6737  11.570   5.156  10.742 -0.3192  0.0718 -0.1029
  562POPC   D2A 6738  11.721   4.689  10.793 -0.2273 -0.0178  0.0599
  562POPC   C3A 6739  11.863   4.286  10.692 -0.2772  0.0383  0.2492
  562POPC   C4A 6740  11.952   3.828  10.849  0.0483  0.3819  0.4756
  562POPC   C1B 6741  12.072   5.698  10.315  0.2778  0.3586 -0.2849
  562POPC   C2B 6742  12.425   5.696   9.973  0.0146  0.2547 -0.2362
  562POPC   C3B 6743  12.603   5.277   9.858  0.1349 -0.3294 -0.3086
  562POPC   C4B 6744  12.752   4.813   9.929 -0.2458 -0.1996  0.1358
  563POPC   NC3 6745  14.402  16.227   4.398  0.1006  0.2231 -0.1286
  563POPC   PO4 6746  14.200  15.898   4.514  0.0785  0.0304 -0.0271
  563POPC   GL1 6747  14.264  16.020   4.843 -0.1041 -0.1823  0.0663
  563POPC   GL2 6748  14.044  15.924   5.007 -0.2108 -0.1188  0.1461
  563POPC   C1A 6749  14.180  16.415   5.077 -0.2343  0.3949 -0.0002
  563POPC   D2A 6750  14.216  16.454   5.498  0.0224 -0.4068 -0.2256
  563POPC   C3A 6751  14.076  16.808   5.744 -0.2703  0.3639  0.1768
  563POPC   C4A 6752  14.284  17.053   6.074 -0.1177  0.2191  0.0708
  563POPC   C1B 6753  14.058  15.957   5.486  0.2132 -0.0908  0.1853
  563POPC   C2B 6754  14.263  16.140   5.888 -0.0030 -0.4749  0.0764
  563POPC   C3B 6755  14.259  16.549   6.194  0.2713  0.0902  0.3184
  563POPC   C4B 6756  14.440  16.539   6.642 -0.2843  0.1903 -0.1520
  564POPC   NC3 6757   6.005  16.260   4.830  0.0457 -0.0411  0.1225
  564POPC   PO4 6758   5.705  16.123   4.671  0.0541 -0.0335  0.0846
  564POPC   GL1 6759   5.851  15.996   5.165 -0.2399  0.2377 -0.2157
  564POPC   GL2 6760   5.573  15.854   5.153 -0.0719  0.1962  0.0260
  564POPC   C1A 6761   6.118  16.114   5.548  0.2253  0.0139 -0.1058
  564POPC   D2A 6762   6.192  16.076   6.027  0.1352 -0.0715 -0.0525
  564POPC   C3A 6763   6.572  16.008   6.274  0.0079 -0.0130  0.1864
  564POPC   C4A 6764   6.849  15.894   6.635  0.2784  0.1837 -0.0360
  564POPC   C1B 6765   5.619  16.196   5.465  0.1781 -0.1023 -0.0192
  564POPC   C2B 6766   5.772  16.282   5.926  0.0458  0.3086 -0.3190
  564POPC   C3B 6767   5.909  16.223   6.366 -0.0062  0.2067  0.0053
  564POPC   C4B 6768   5.743  15.962   6.761  0.1792 -0.0398  0.1706
  565POPC   NC3 6769   8.971   5.203  10.198  0.2821  0.0210  0.1979
  565POPC   PO4 6770   8.918   4.919  10.449  0.3753  0.2026 -0.0882
  565POPC   GL1 6771   8.632   4.724  10.602 -0.1650 -0.0696  0.0723
  565POPC   GL2 6772   8.464   4.710  10.351 -0.0656  0.1721 -0.0413
  565POPC   C1A 6773   8.207   4.634  10.782 -0.0149 -0.4449  0.1324
  565POPC   D2A 6774   7.816   4.452  10.834 -0.2743 -0.1336  0.3837
  565POPC   C3A 6775   7.549   4.531  10.477 -0.0450 -0.3281 -0.0527
  565POPC   C4A 6776   7.135   4.411  10.378 -0.1838 -0.0066  0.2858
  565POPC   C1B 6777   8.056   4.468  10.366 -0.1942  0.0073 -0.0980
  565POPC   C2B 6778   7.802   4.101  10.352  0.4168  0.1279 -0.2780
  565POPC   C3B 6779   7.374   3.921  10.179 -0.0510 -0.0987  0.1216
  565POPC   C4B 6780   6.987   4.153  10.010  0.2517  0.2633 -0.4062
  566POPC   NC3 6781   1.595   8.835   4.786  0.0211 -0.0429  0.5871
  566POPC   PO4 6782   1.928   9.032   4.965  0.0619 -0.0656 -0.2786
  566POPC   GL1 6783   2.061   9.163   5.367 -0.0842 -0.1045  0.1187
  566POPC   GL2 6784   2.102   9.481   5.338  0.0679 -0.1129 -0.0767
  566POPC   C1A 6785   1.946   9.126   5.820  0.5089 -0.0436 -0.2203
  566POPC   D2A 6786   1.761   8.917   6.205 -0.0632  0.1108 -0.0433
  566POPC   C3A 6787   2.099   8.947   6.491 -0.2497  0.2072  0.0089
  566POPC   C4A 6788   2.573   8.922   6.550 -0.4352  0.1501 -0.2544
  566POPC   C1B 6789   1.868   9.660   5.711  0.0609  0.3315  0.2619
  566POPC   C2B 6790   1.654   9.727   6.093  0.0227 -0.1740  0.0073
  566POPC   C3B 6791   1.620  10.199   6.305 -0.0720 -0.1632 -0.0766
  566POPC   C4B 6792   1.329  10.467   6.615  0.3577  0.2244 -0.1090
  567POPC   NC3 6793   8.992  11.408   5.003  0.0278  0.0167 -0.0747
  567POPC   PO4 6794   9.053  11.132   5.282  0.0390 -0.4100  0.1845
  567POPC   GL1 6795   8.869  11.220   5.660 -0.0927 -0.1644 -0.5450
  567POPC   GL2 6796   8.963  11.018   5.868  0.0655 -0.1022 -0.0953
  567POPC   C1A 6797   8.654  11.654   5.714  0.0822  0.0583 -0.3890
  567POPC   D2A 6798   8.341  12.016   5.704  0.4791  0.0775 -0.0050
  567POPC   C3A 6799   8.313  12.078   6.146 -0.0108  0.0080 -0.0370
  567POPC   C4A 6800   8.104  12.238   6.526  0.0065 -0.2234 -0.1266
  567POPC   C1B 6801   8.911  11.360   6.133 -0.2548  0.3707  0.0904
  567POPC   C2B 6802   8.795  11.633   6.455 -0.1128 -0.0671  0.1121
  567POPC   C3B 6803   8.894  11.837   6.883  0.2328  0.1228 -0.1335
  567POPC   C4B 6804   8.656  11.994   7.236 -0.0368  0.1715 -0.0929
  568POPC   NC3 6805  15.291  14.711   4.282  0.1454  0.1310 -0.2638
  568POPC   PO4 6806  15.306  15.060   4.136  0.2351  0.2643  0.3532
  568POPC   GL1 6807  15.633  15.045   4.338 -0.0126 -0.1806 -0.5235
  568POPC   GL2 6808  15.790  15.325   4.377  0.1975 -0.1799 -0.0075
  568POPC   C1A 6809  15.437  15.113   4.744  0.0031 -0.2032  0.0700
  568POPC   D2A 6810  15.007  15.057   4.963 -0.0075  0.0636 -0.0347
  568POPC   C3A 6811  14.677  15.396   4.909 -0.0369 -0.1520  0.1575
  568POPC   C4A 6812  14.785  15.791   5.055  0.1612  0.1137 -0.2613
  568POPC   C1B 6813  15.977  15.072   4.801  0.0918 -0.0553  0.1196
  568POPC   C2B 6814  16.031  15.139   5.248 -0.2817  0.0674 -0.4656
  568POPC   C3B 6815  16.075  15.165   5.735 -0.1254  0.5163 -0.0680
  568POPC   C4B 6816  15.961  15.454   6.025  0.1397  0.0925 -0.0266
  569POPC   NC3 6817   4.997   4.046   5.665 -0.0930 -0.2375  0.1330
  569POPC   PO4 6818   4.746   4.143   5.943  0.2009  0.0618  0.0583
  569POPC   GL1 6819   4.797   4.178   6.367 -0.4799  0.3285 -0.0813
  569POPC   GL2 6820   4.921   3.906   6.389  0.2026  0.4275 -0.1167
  569POPC   C1A 6821   4.672   4.630   6.470 -0.0981 -0.1613  0.3312
  569POPC   D2A 6822   4.698   4.877   6.817 -0.0357 -0.1026 -0.1052
  569POPC   C3A 6823   4.444   5.072   7.174 -0.0304 -0.0292 -0.1881
  569POPC   C4A 6824   4.441   5.101   7.659 -0.1767  0.1916  0.0380
  569POPC   C1B 6825   4.637   3.612   6.662 -0.0025 -0.0633 -0.0007
  569POPC   C2B 6826   4.694   3.379   7.085  0.1683  0.3615  0.0173
  569POPC   C3B 6827   4.867   3.245   7.494 -0.0176  0.0528 -0.0086
  569POPC   C4B 6828   5.165   3.043   7.844  0.0332  0.1755 -0.1988
  570POPC   NC3 6829  15.568   1.003   4.590  0.2683  0.1312  0.0770
  570POPC   PO4 6830  15.188   1.044   4.654 -0.3241  0.0464  0.0353
  570POPC   GL1 6831  15.144   0.937   5.004  0.2153 -0.3245 -0.2873
  570POPC   GL2 6832  14.949   0.678   5.005  0.4858  0.5446 -0.0721
  570POPC   C1A 6833  15.143   1.137   5.403 -0.2285 -0.1131  0.1319
  570POPC   D2A 6834  14.862   1.289   5.739 -0.2076 -0.0202 -0.1349
  570POPC   C3A 6835  14.913   1.287   6.233 -0.2382 -0.1748  0.1940
  570POPC   C4A 6836  15.265   1.222   6.527  0.0378  0.2336 -0.2966
  570POPC   C1B 6837  15.067   0.514   5.420 -0.0743  0.3662 -0.0994
  570POPC   C2B 6838  15.081   0.440   5.854  0.1162 -0.4203 -0.1638
  570POPC   C3B 6839  15.346   0.194   6.202 -0.1861 -0.1462 -0.0244
  570POPC   C4B 6840  15.617   0.314   6.546 -0.0948  0.0624 -0.0601
  571POPC   NC3 6841  13.212  14.056   4.182 -0.1352  0.1983 -0.2539
  571POPC   PO4 6842  13.541  14.230   4.331  0.0047  0.0337 -0.1943
  571POPC   GL1 6843  13.812  14.253   4.644  0.1327 -0.2875 -0.1701
  571POPC   GL2 6844  13.679  14.073   4.842  0.2545 -0.1101 -0.2435
  571POPC   C1A 6845  14.159  14.439   4.930 -0.2824 -0.0567  0.0325
  571POPC   D2A 6846  14.390  14.526   5.336 -0.3131 -0.0894  0.0624
  571POPC   C3A 6847  14.155  14.285   5.658 -0.1983 -0.2090 -0.0703
  571POPC   C4A 6848  14.020  13.976   6.015 -0.1895  0.1307  0.0030
  571POPC   C1B 6849  13.728  14.256   5.214  0.2196 -0.1282  0.4010
  571POPC   C2B 6850  13.861  14.615   5.419  0.1258  0.1395 -0.0159
  571POPC   C3B 6851  13.900  14.943   5.771 -0.2217  0.0899  0.2638
  571POPC   C4B 6852  14.231  15.318   5.788  0.3433  0.0228 -0.1080
  572POPC   NC3 6853   5.033   5.061   5.810 -0.0480  0.1134  0.0951
  572POPC   PO4 6854   4.921   5.466   5.895 -0.1381  0.0580  0.0542
  572POPC   GL1 6855   4.752   5.505   6.308  0.0420 -0.0650  0.1754
  572POPC   GL2 6856   4.686   5.291   6.582 -0.0876 -0.0664  0.0004
  572POPC   C1A 6857   4.388   5.722   6.460  0.1024  0.0566  0.3184
  572POPC   D2A 6858   4.162   6.134   6.527  0.0188  0.0487 -0.0467
  572POPC   C3A 6859   3.812   6.185   6.834 -0.0800  0.0273  0.1557
  572POPC   C4A 6860   3.751   5.965   7.237 -0.3393  0.2192  0.3010
  572POPC   C1B 6861   5.053   5.217   6.819 -0.0971  0.1272  0.0623
  572POPC   C2B 6862   5.186   5.176   7.280  0.2771 -0.0427  0.2420
  572POPC   C3B 6863   5.061   5.142   7.732 -0.1725 -0.0064  0.0561
  572POPC   C4B 6864   4.723   5.115   8.099  0.1883  0.2640  0.1875
  573POPC   NC3 6865   3.688  11.879   4.164 -0.0125 -0.0097 -0.1332
  573POPC   PO4 6866   3.560  11.651   4.461 -0.0182 -0.0197 -0.0901
  573POPC   GL1 6867   3.739  11.420   4.810 -0.0930  0.0301  0.3520
  573POPC   GL2 6868   3.514  11.303   4.862  0.2229  0.2023  0.0343
  573POPC   C1A 6869   3.748  11.646   5.211  0.3038  0.1629  0.1520
  573POPC   D2A 6870   3.846  11.676   5.634 -0.0377  0.1320 -0.0449
  573POPC   C3A 6871   4.161  11.370   5.753  0.1091 -0.2854  0.1148
  573POPC   C4A 6872   4.588  11.254   5.976 -0.0408  0.0073  0.1742
  573POPC   C1B 6873   3.324  11.234   5.282  0.1416 -0.3069 -0.1279
  573POPC   C2B 6874   2.884  11.279   5.498 -0.1676 -0.0942 -0.1153
  573POPC   C3B 6875   2.624  11.319   5.864 -0.1224  0.6281  0.0070
  573POPC   C4B 6876   2.539  11.520   6.277  0.0734 -0.0901  0.2135
  574POPC   NC3 6877  13.880   2.273   5.565  0.1142  0.1424  0.1541
  574POPC   PO4 6878  13.818   2.607   5.380  0.1112 -0.0193  0.2722
  574POPC   GL1 6879  14.010   2.684   5.755 -0.0028 -0.3782 -0.2428
  574POPC   GL2 6880  14.275   2.781   5.586 -0.0649  0.1510 -0.1358
  574POPC   C1A 6881  13.949   2.356   6.079 -0.1762 -0.0580  0.0232
  574POPC   D2A 6882  14.010   2.005   6.390 -0.1722 -0.2434  0.1450
  574POPC   C3A 6883  13.949   1.829   6.787  0.2057 -0.0756 -0.0390
  574POPC   C4A 6884  13.822   1.756   7.226  0.2339  0.1132  0.0714
  574POPC   C1B 6885  14.422   2.590   5.978 -0.1813 -0.3444 -0.0130
  574POPC   C2B 6886  14.426   2.330   6.376  0.1410 -0.1718 -0.1836
  574POPC   C3B 6887  14.471   2.098   6.747  0.1625 -0.0567  0.0414
  574POPC   C4B 6888  14.652   1.838   7.057  0.1803 -0.0293 -0.0492
  575POPC   NC3 6889  11.175   7.242   8.526  0.0366 -0.2804 -0.2057
  575POPC   PO4 6890  10.957   7.184   8.850 -0.1725  0.1422 -0.1358
  575POPC   GL1 6891  11.158   7.270   9.236 -0.0439  0.0793  0.0819
  575POPC   GL2 6892  11.289   7.516   9.050  0.0110  0.3054 -0.0304
  575POPC   C1A 6893  11.556   7.424   9.529 -0.3388  0.0599 -0.2693
  575POPC   D2A 6894  11.788   7.501   9.966  0.1553 -0.2011  0.0951
  575POPC   C3A 6895  12.252   7.449   9.790 -0.0136  0.3305 -0.0416
  575POPC   C4A 6896  12.586   7.722   9.914  0.1986 -0.2522 -0.4993
  575POPC   C1B 6897  11.682   7.780   9.181 -0.0731 -0.1524 -0.2589
  575POPC   C2B 6898  12.002   7.760   9.503 -0.3274 -0.5165  0.1459
  575POPC   C3B 6899  12.177   7.975   9.885 -0.1928  0.3248  0.0864
  575POPC   C4B 6900  12.282   8.335  10.122  0.3222  0.1364  0.2179
  576POPC   NC3 6901   6.868   9.244   6.031  0.0330  0.0132  0.2070
  576POPC   PO4 6902   7.094   9.422   5.786  0.2909  0.1845  0.1497
  576POPC   GL1 6903   7.017   9.696   6.071  0.3592 -0.6127 -0.0038
  576POPC   GL2 6904   7.101  10.011   6.030 -0.4208  0.0285  0.0934
  576POPC   C1A 6905   6.829   9.650   6.497 -0.1677  0.2774 -0.1019
  576POPC   D2A 6906   6.729   9.619   6.966  0.0162 -0.1114 -0.0941
  576POPC   C3A 6907   6.378   9.929   7.046  0.3314  0.0045 -0.1572
  576POPC   C4A 6908   5.937  10.030   7.222 -0.1148  0.2815  0.0609
  576POPC   C1B 6909   7.116  10.155   6.483 -0.0577 -0.2887  0.0088
  576POPC   C2B 6910   7.131   9.958   6.940  0.1501  0.2774  0.0462
  576POPC   C3B 6911   7.219  10.047   7.388 -0.1321 -0.1519  0.0982
  576POPC   C4B 6912   7.461  10.273   7.648  0.1257  0.0865  0.1159
  577POPC   NC3 6913  15.344  10.549   4.954 -0.0814  0.1948 -0.0583
  577POPC   PO4 6914  15.414  10.806   4.652 -0.2534 -0.1898  0.2403
  577POPC   GL1 6915  15.528  10.994   5.001 -0.1394 -0.1483 -0.1025
  577POPC   GL2 6916  15.386  11.265   4.945 -0.0339 -0.0276  0.2120
  577POPC   C1A 6917  15.746  11.109   5.393 -0.3249  0.0987  0.0268
  577POPC   D2A 6918  15.958  11.059   5.815 -0.1414 -0.0623 -0.0558
  577POPC   C3A 6919  16.246  11.236   6.123 -0.3163 -0.0888  0.0740
  577POPC   C4A 6920  16.664  11.326   6.237 -0.0739 -0.0603  0.0075
  577POPC   C1B 6921  15.219  11.276   5.420  0.0910 -0.0606 -0.2831
  577POPC   C2B 6922  15.431  11.061   5.767  0.1719  0.0586  0.0620
  577POPC   C3B 6923  15.647  11.165   6.162  0.3273 -0.4755 -0.0644
  577POPC   C4B 6924  16.004  11.125   6.540  0.0914  0.2988 -0.3628
  578POPC   NC3 6925   9.318   6.775  11.946 -0.3588 -0.0786 -0.0491
  578POPC   PO4 6926   9.555   6.779  12.258  0.2111 -0.0955 -0.3144
  578POPC   GL1 6927   9.239   7.057  12.302  0.0340  0.1033 -0.1321
  578POPC   GL2 6928   8.969   7.078  12.250 -0.3114 -0.0580 -0.0459
  578POPC   C1A 6929   9.257   7.489  12.120 -0.1155 -0.0914  0.2631
  578POPC   D2A 6930   9.241   7.659  11.699  0.3277 -0.0401 -0.1649
  578POPC   C3A 6931   8.941   7.880  11.512  0.0825 -0.0104 -0.1255
  578POPC   C4A 6932   8.548   7.774  11.398  0.2710  0.2169 -0.0773
  578POPC   C1B 6933   9.131   7.358  12.601  0.1316  0.2276  0.0749
  578POPC   C2B 6934   9.416   7.682  12.680 -0.0630 -0.2326 -0.0802
  578POPC   C3B 6935   9.452   7.955  13.025  0.0620 -0.1494 -0.1066
  578POPC   C4B 6936   9.321   8.243  13.280  0.4122  0.3190 -0.1934
  579POPC   NC3 6937   8.884   7.458   7.668  0.1711 -0.3818 -0.2176
  579POPC   PO4 6938   9.197   7.589   7.839 -0.1544  0.1424 -0.2051
  579POPC   GL1 6939   9.314   7.914   8.098 -0.2274 -0.6006  0.1724
  579POPC   GL2 6940   9.396   7.761   8.324  0.3778 -0.1326 -0.0925
  579POPC   C1A 6941   9.540   8.269   8.277  0.1072 -0.0099 -0.0447
  579POPC   D2A 6942   9.302   8.616   8.461  0.1993 -0.3111 -0.0259
  579POPC   C3A 6943   9.341   9.038   8.346  0.1879  0.2613 -0.1534
  579POPC   C4A 6944   9.138   9.432   8.179  0.0377  0.1744 -0.1735
  579POPC   C1B 6945   9.470   8.013   8.705 -0.0412  0.0828  0.0824
  579POPC   C2B 6946   9.673   8.350   8.912  0.0185  0.2751  0.0585
  579POPC   C3B 6947  10.043   8.639   9.047  0.1626 -0.1107  0.0365
  579POPC   C4B 6948  10.365   8.904   8.868  0.0716  0.0116 -0.0779
  580POPC   NC3 6949   4.301   8.025   5.185  0.3058 -0.1535  0.1437
  580POPC   PO4 6950   4.198   7.683   5.233 -0.1114  0.1883 -0.0068
  580POPC   GL1 6951   3.920   7.792   5.444 -0.4139 -0.2345 -0.2304
  580POPC   GL2 6952   3.928   7.678   5.717 -0.2390  0.1120  0.0494
  580POPC   C1A 6953   3.780   8.222   5.672 -0.1250 -0.1620 -0.0610
  580POPC   D2A 6954   3.598   8.565   5.950 -0.1010  0.1163 -0.0956
  580POPC   C3A 6955   3.463   8.482   6.353 -0.2189 -0.0008  0.1530
  580POPC   C4A 6956   3.641   8.213   6.659  0.0789 -0.2538 -0.1242
  580POPC   C1B 6957   4.039   7.680   6.236 -0.1918  0.0177 -0.0020
  580POPC   C2B 6958   4.022   7.848   6.653 -0.0777 -0.1677 -0.1779
  580POPC   C3B 6959   3.774   7.739   7.050 -0.2381 -0.0166  0.1403
  580POPC   C4B 6960   3.434   7.676   7.346  0.0536  0.2065 -0.1746
  581POPC   NC3 6961   7.784   1.324   5.611 -0.0026 -0.0767  0.1405
  581POPC   PO4 6962   7.987   1.669   5.567  0.1115 -0.2594 -0.3126
  581POPC   GL1 6963   7.814   1.687   5.904  0.1050 -0.0338 -0.0028
  581POPC   GL2 6964   7.789   1.924   6.062 -0.0193 -0.1347  0.2239
  581POPC   C1A 6965   8.064   1.599   6.275 -0.0184 -0.2513 -0.2519
  581POPC   D2A 6966   8.187   1.242   6.550 -0.1556  0.2632 -0.2001
  581POPC   C3A 6967   8.000   0.904   6.761  0.1925 -0.1574 -0.2844
  581POPC   C4A 6968   7.770   0.525   6.676 -0.0945 -0.0150 -0.1350
  581POPC   C1B 6969   7.723   1.927   6.493  0.2852  0.2154  0.2084
  581POPC   C2B 6970   7.878   1.627   6.832 -0.1426 -0.0552  0.0412
  581POPC   C3B 6971   7.780   1.541   7.273 -0.0306  0.3342 -0.0828
  581POPC   C4B 6972   7.895   1.332   7.640 -0.1617  0.0057  0.1348
  582POPC   NC3 6973   4.210  13.164   4.164 -0.4244  0.0934  0.3828
  582POPC   PO4 6974   4.356  12.832   4.319 -0.1517 -0.4605 -0.1517
  582POPC   GL1 6975   4.445  13.100   4.603  0.0093 -0.1560 -0.4397
  582POPC   GL2 6976   4.463  12.925   4.827  0.0354  0.1754  0.1685
  582POPC   C1A 6977   4.114  13.266   4.966 -0.0241  0.0795 -0.0316
  582POPC   D2A 6978   3.670  13.131   5.095  0.1046 -0.0405  0.0861
  582POPC   C3A 6979   3.711  12.894   5.530  0.1967 -0.0128  0.1788
  582POPC   C4A 6980   4.011  12.896   5.835 -0.0917 -0.0699 -0.0163
  582POPC   C1B 6981   4.535  13.103   5.206  0.1767  0.1852 -0.1234
  582POPC   C2B 6982   4.558  13.028   5.667  0.1687  0.2038  0.0832
  582POPC   C3B 6983   4.405  12.997   6.116  0.0275 -0.2698 -0.0900
  582POPC   C4B 6984   4.527  13.053   6.525 -0.2162 -0.1326 -0.2903
  583POPC   NC3 6985  10.110  11.270   5.590  0.1001 -0.1777  0.2018
  583POPC   PO4 6986   9.734  11.122   5.585  0.1119  0.0839 -0.1702
  583POPC   GL1 6987   9.447  11.267   5.824 -0.3734  0.1689  0.1870
  583POPC   GL2 6988   9.331  11.435   5.739 -0.0159  0.1522  0.1611
  583POPC   C1A 6989   9.392  11.430   6.272  0.0769 -0.1473 -0.2313
  583POPC   D2A 6990   9.259  11.749   6.552  0.1649  0.1705 -0.0449
  583POPC   C3A 6991   9.141  12.174   6.470  0.3601 -0.0061 -0.2605
  583POPC   C4A 6992   9.188  12.493   6.153  0.2456  0.0892  0.2875
  583POPC   C1B 6993   9.109  11.766   6.029 -0.3091 -0.2007  0.0338
  583POPC   C2B 6994   8.797  12.063   6.073  0.1798 -0.0747 -0.0530
  583POPC   C3B 6995   8.648  12.187   6.459 -0.0722 -0.2806  0.3776
  583POPC   C4B 6996   8.462  12.299   6.869  0.1111  0.0178 -0.0278
  584POPC   NC3 6997   2.971   1.992   5.124  0.1086  0.1138 -0.2596
  584POPC   PO4 6998   2.811   1.681   4.973 -0.0893  0.1275  0.1441
  584POPC   GL1 6999   2.508   1.777   5.239 -0.1036  0.0746 -0.0429
  584POPC   GL2 7000   2.441   2.015   5.381  0.0362 -0.1952 -0.4346
  584POPC   C1A 7001   2.499   1.576   5.692  0.5138  0.0298 -0.0975
  584POPC   D2A 7002   2.693   1.517   6.077 -0.1095  0.1165  0.3616
  584POPC   C3A 7003   2.934   1.104   6.209  0.3558  0.0072  0.2183
  584POPC   C4A 7004   3.229   0.835   6.297 -0.3012 -0.1726  0.1291
  584POPC   C1B 7005   2.326   2.352   5.717 -0.0163  0.2699  0.0045
  584POPC   C2B 7006   2.285   2.239   6.145 -0.0314  0.1404 -0.4828
  584POPC   C3B 7007   2.119   2.252   6.586 -0.0294 -0.0634  0.1477
  584POPC   C4B 7008   2.125   1.948   6.885 -0.0125 -0.2883 -0.0564
  585POPC   NC3 7009  11.367  10.424   5.800 -0.1037 -0.1736  0.3156
  585POPC   PO4 7010  11.124  10.119   5.750  0.0194  0.1547 -0.0977
  585POPC   GL1 7011  10.937  10.362   5.963 -0.0395 -0.0173  0.0120
  585POPC   GL2 7012  11.059  10.505   6.215 -0.0423 -0.1613 -0.1167
  585POPC   C1A 7013  10.630  10.360   6.363 -0.1248  0.0568  0.0567
  585POPC   D2A 7014  10.500  10.605   6.748  0.0935 -0.0232 -0.0782
  585POPC   C3A 7015  10.473  10.774   7.127 -0.1157  0.0078  0.0361
  585POPC   C4A 7016  10.580  11.083   7.385 -0.1152 -0.0357  0.0843
  585POPC   C1B 7017  10.991  10.675   6.642  0.1888  0.2510 -0.0590
  585POPC   C2B 7018  10.892  11.113   6.821  0.1606  0.1175  0.4313
  585POPC   C3B 7019  10.829  11.540   6.680  0.1072 -0.1376 -0.2166
  585POPC   C4B 7020  11.031  11.932   6.609 -0.1104 -0.0149  0.2043
  586POPC   NC3 7021   8.909   3.675   8.353  0.2054 -0.2065  0.4069
  586POPC   PO4 7022   8.734   3.793   8.022  0.4467 -0.1006 -0.3395
  586POPC   GL1 7023   8.622   3.407   8.098 -0.2604 -0.4050  0.0414
  586POPC   GL2 7024   8.469   3.445   8.356 -0.2490  0.1568  0.2827
  586POPC   C1A 7025   8.558   2.947   8.270  0.2885  0.2486  0.1795
  586POPC   D2A 7026   8.809   2.577   8.402 -0.1456  0.1112  0.1301
  586POPC   C3A 7027   8.765   2.591   8.910 -0.1783 -0.1667  0.0175
  586POPC   C4A 7028   8.705   2.591   9.338  0.0078 -0.2216  0.0047
  586POPC   C1B 7029   8.832   3.278   8.622 -0.0114  0.0364 -0.1288
  586POPC   C2B 7030   9.135   2.912   8.721  0.3064  0.1131  0.0312
  586POPC   C3B 7031   9.270   2.667   9.062 -0.4664  0.1817 -0.2888
  586POPC   C4B 7032   9.670   2.682   9.273 -0.1673  0.3228 -0.2074
  587POPC   NC3 7033  11.227   2.715   6.225  0.1575  0.1725  0.2310
  587POPC   PO4 7034  10.894   2.574   6.239  0.0466  0.1041  0.2866
  587POPC   GL1 7035  11.067   2.504   6.596  0.0650 -0.3991 -0.2297
  587POPC   GL2 7036  10.862   2.372   6.708 -0.1635  0.0080  0.2365
  587POPC   C1A 7037  11.429   2.331   6.804  0.4212  0.0835 -0.3913
  587POPC   D2A 7038  11.558   2.193   7.250 -0.1807  0.1101 -0.2912
  587POPC   C3A 7039  11.871   2.469   7.482 -0.2139 -0.0132 -0.0088
  587POPC   C4A 7040  12.160   2.799   7.654 -0.2290 -0.2487  0.0507
  587POPC   C1B 7041  11.005   1.939   6.889 -0.0952 -0.1566  0.0550
  587POPC   C2B 7042  10.799   1.589   7.128  0.1878 -0.1183 -0.2181
  587POPC   C3B 7043  10.823   1.184   7.345  0.1080 -0.1823  0.1408
  587POPC   C4B 7044  10.856   0.798   7.549 -0.2782  0.1877 -0.0528
  588POPC   NC3 7045   8.433  15.508   5.163  0.4026  0.3155  0.2576
  588POPC   PO4 7046   8.190  15.839   5.054 -0.1206  0.1765  0.0565
  588POPC   GL1 7047   8.159  15.920   5.467 -0.1323  0.1816  0.0801
  588POPC   GL2 7048   7.969  15.835   5.714 -0.2350  0.0253  0.0544
  588POPC   C1A 7049   8.400  15.861   5.901  0.0840  0.1146  0.1124
  588POPC   D2A 7050   8.609  15.845   6.298  0.0189 -0.1766 -0.2876
  588POPC   C3A 7051   8.643  15.866   6.814  0.1545 -0.2250 -0.0036
  588POPC   C4A 7052   8.865  15.816   7.189 -0.1277 -0.0365  0.2195
  588POPC   C1B 7053   7.624  16.148   5.762 -0.0050 -0.1420  0.0260
  588POPC   C2B 7054   7.345  16.414   6.076  0.1742  0.0352  0.2912
  588POPC   C3B 7055   6.998  16.313   6.350  0.1780 -0.0119 -0.0433
  588POPC   C4B 7056   6.760  16.394   6.722  0.1760  0.1113 -0.3372
  589POPC   NC3 7057  10.479   7.164   8.750  0.0677 -0.2622 -0.0341
  589POPC   PO4 7058  10.664   7.320   8.441 -0.1243  0.0780  0.0519
  589POPC   GL1 7059  10.845   7.581   8.641 -0.0152  0.0712  0.1166
  589POPC   GL2 7060  10.763   7.786   8.798  0.1807  0.1524 -0.2931
  589POPC   C1A 7061  11.205   7.885   8.781 -0.0286 -0.0481  0.2420
  589POPC   D2A 7062  11.518   8.204   8.978  0.1549  0.1839 -0.0175
  589POPC   C3A 7063  11.612   8.262   9.370 -0.0835 -0.0781 -0.1993
  589POPC   C4A 7064  11.525   7.933   9.635  0.1219  0.4147 -0.3365
  589POPC   C1B 7065  10.674   7.955   9.165  0.2222  0.1653  0.0944
  589POPC   C2B 7066  10.652   8.086   9.629  0.0365  0.0312 -0.1673
  589POPC   C3B 7067  10.985   8.305   9.862  0.2209 -0.2216  0.0267
  589POPC   C4B 7068  11.405   8.407  10.018  0.0451 -0.1304 -0.2128
  590POPC   NC3 7069   6.524  13.826   4.181 -0.3126 -0.1277 -0.0025
  590POPC   PO4 7070   6.328  14.177   4.195  0.1124  0.0187  0.1279
  590POPC   GL1 7071   6.555  14.206   4.569  0.1768  0.2738  0.0136
  590POPC   GL2 7072   6.692  13.938   4.666 -0.0169  0.0022 -0.2654
  590POPC   C1A 7073   6.389  14.466   4.932  0.3464 -0.1767  0.0487
  590POPC   D2A 7074   6.096  14.760   5.110 -0.0609 -0.0810 -0.0958
  590POPC   C3A 7075   6.110  14.623   5.564  0.0572  0.2823  0.1793
  590POPC   C4A 7076   6.027  14.214   5.820  0.2158  0.0939 -0.0645
  590POPC   C1B 7077   6.766  14.148   5.077  0.1588  0.3162  0.4920
  590POPC   C2B 7078   6.686  14.068   5.555 -0.0309  0.0440  0.2678
  590POPC   C3B 7079   6.477  14.112   5.948  0.0426  0.2262  0.0996
  590POPC   C4B 7080   6.465  13.985   6.395 -0.1779 -0.3060  0.0880
  591POPC   NC3 7081   7.616   8.916   6.100 -0.0208 -0.0051 -0.0011
  591POPC   PO4 7082   7.224   8.907   5.943  0.2927  0.0164  0.2338
  591POPC   GL1 7083   7.153   8.949   6.335 -0.0677  0.0164 -0.0003
  591POPC   GL2 7084   7.346   8.846   6.518 -0.1372 -0.0678  0.0142
  591POPC   C1A 7085   6.903   9.111   6.657  0.1846  0.1126 -0.1206
  591POPC   D2A 7086   6.424   9.041   6.730  0.0729  0.0920 -0.2586
  591POPC   C3A 7087   6.214   9.351   6.930 -0.0629 -0.0170 -0.1249
  591POPC   C4A 7088   6.148   9.576   7.322 -0.1217 -0.0728  0.1134
  591POPC   C1B 7089   7.178   8.829   6.961  0.0188  0.2252 -0.3324
  591POPC   C2B 7090   7.446   8.958   7.367 -0.0282 -0.1163  0.0871
  591POPC   C3B 7091   7.506   9.102   7.795  0.0205  0.1239 -0.0596
  591POPC   C4B 7092   7.436   9.363   8.084 -0.1844  0.1497  0.0369
  592POPC   NC3 7093   7.879  16.251   5.235 -0.1307  0.1827 -0.3852
  592POPC   PO4 7094   8.195  16.356   5.106  0.0060  0.1437  0.1064
  592POPC   GL1 7095   8.378  16.324   5.419  0.1258  0.5005  0.0561
  592POPC   GL2 7096   8.154  16.302   5.664  0.2247  0.0471 -0.0970
  592POPC   C1A 7097   8.523  16.730   5.635  0.0871 -0.3513 -0.1558
  592POPC   D2A 7098   8.641  16.857   6.058  0.0043  0.0047  0.0159
  592POPC   C3A 7099   8.921  16.658   6.367 -0.2938 -0.0765  0.0829
  592POPC   C4A 7100   9.377  16.590   6.483  0.3127 -0.1695 -0.1127
  592POPC   C1B 7101   8.102  16.198   6.167 -0.0063 -0.2830 -0.1176
  592POPC   C2B 7102   8.071  15.897   6.555 -0.1188 -0.0589  0.1018
  592POPC   C3B 7103   8.114  15.811   6.965  0.0664  0.0922 -0.0480
  592POPC   C4B 7104   7.950  15.493   7.271 -0.1478  0.0699  0.2092
  593POPC   NC3 7105   5.581   8.311   5.235 -0.1863 -0.1652 -0.1328
  593POPC   PO4 7106   5.623   8.090   5.534  0.1959  0.1376  0.0913
  593POPC   GL1 7107   5.389   8.191   5.772 -0.4594 -0.1669 -0.2810
  593POPC   GL2 7108   5.562   8.197   5.998 -0.2598  0.1008 -0.2750
  593POPC   C1A 7109   5.251   8.572   6.003 -0.1687 -0.0704  0.1116
  593POPC   D2A 7110   4.934   8.821   6.305  0.2658  0.2711 -0.0162
  593POPC   C3A 7111   4.939   8.900   6.760  0.1209  0.1539 -0.1192
  593POPC   C4A 7112   4.820   8.913   7.213 -0.1161 -0.1849 -0.0939
  593POPC   C1B 7113   5.442   8.299   6.424  0.4097  0.0094  0.2117
  593POPC   C2B 7114   5.014   8.412   6.653  0.0054 -0.1342 -0.0003
  593POPC   C3B 7115   4.558   8.506   6.771  0.2096 -0.2126 -0.0702
  593POPC   C4B 7116   4.297   8.806   6.985 -0.3763  0.1016 -0.0168
  594POPC   NC3 7117  10.876   9.568   5.921 -0.0302 -0.1411  0.0934
  594POPC   PO4 7118  10.628   9.578   6.204  0.0179  0.1450  0.0504
  594POPC   GL1 7119  10.728   9.856   6.454 -0.0816 -0.0568  0.3844
  594POPC   GL2 7120  11.015   9.979   6.325 -0.0967 -0.0143  0.2496
  594POPC   C1A 7121  10.529  10.105   6.754 -0.1481  0.1542 -0.3112
  594POPC   D2A 7122  10.388  10.286   7.155 -0.1885  0.0233  0.2992
  594POPC   C3A 7123  10.588  10.501   7.493 -0.0474 -0.2339 -0.0162
  594POPC   C4A 7124  10.597  10.465   7.963  0.1539  0.2454  0.1086
  594POPC   C1B 7125  11.010  10.199   6.719  0.1771 -0.4446  0.2290
  594POPC   C2B 7126  10.892  10.430   7.090 -0.0955  0.2497 -0.2474
  594POPC   C3B 7127  11.029  10.772   7.313  0.0842 -0.0436  0.2744
  594POPC   C4B 7128  11.039  10.940   7.721  0.0767  0.0427 -0.0222
  595POPC   NC3 7129   8.853   5.360  11.534  0.1200  0.0541  0.1711
  595POPC   PO4 7130   8.594   5.654  11.544 -0.2595 -0.1013  0.1181
  595POPC   GL1 7131   8.231   5.471  11.481 -0.0908  0.2446 -0.1503
  595POPC   GL2 7132   8.298   5.203  11.428  0.1821 -0.1225  0.2229
  595POPC   C1A 7133   7.815   5.367  11.312 -0.0291 -0.2830  0.0791
  595POPC   D2A 7134   7.549   5.371  10.914  0.0236 -0.0251 -0.2049
  595POPC   C3A 7135   7.077   5.254  11.012 -0.0007 -0.2531 -0.0169
  595POPC   C4A 7136   6.744   5.374  11.324 -0.1180  0.0353  0.2583
  595POPC   C1B 7137   8.004   4.974  11.729  0.0169 -0.1459  0.3140
  595POPC   C2B 7138   7.829   4.614  11.899  0.1212  0.1852 -0.2085
  595POPC   C3B 7139   7.627   4.226  11.842 -0.1599 -0.1495 -0.0369
  595POPC   C4B 7140   7.174   4.078  11.878 -0.0130 -0.3005 -0.1654
  596POPC   NC3 7141   0.307  13.851   4.376 -0.1379  0.0331 -0.1190
  596POPC   PO4 7142   0.176  13.766   4.018  0.2049  0.1552 -0.0743
  596POPC   GL1 7143   0.020  13.441   4.301 -0.0413 -0.1791  0.1533
  596POPC   GL2 7144   0.224  13.261   4.256 -0.3375  0.0448 -0.1098
  596POPC   C1A 7145  -0.003  13.461   4.798 -0.1192 -0.3447  0.3023
  596POPC   D2A 7146   0.292  13.356   5.175  0.0263  0.1441  0.2868
  596POPC   C3A 7147   0.694  13.219   4.988  0.1331  0.4257  0.2120
  596POPC   C4A 7148   1.088  13.240   4.682 -0.0293  0.2336 -0.1696
  596POPC   C1B 7149   0.384  13.088   4.640  0.1515  0.0266  0.0317
  596POPC   C2B 7150   0.589  12.732   4.795  0.2426 -0.0843  0.1107
  596POPC   C3B 7151   0.845  12.712   5.201  0.1430  0.0061 -0.2475
  596POPC   C4B 7152   1.305  12.593   5.266  0.2709  0.2093 -0.2250
  597POPC   NC3 7153  11.025   1.708   5.992 -0.2869 -0.0798  0.0023
  597POPC   PO4 7154  10.901   1.761   5.619 -0.0451 -0.3422 -0.1228
  597POPC   GL1 7155  10.753   1.425   5.794  0.0319  0.0977 -0.1896
  597POPC   GL2 7156  11.002   1.235   5.740  0.0068  0.0571  0.2813
  597POPC   C1A 7157  10.828   1.255   6.213  0.0185  0.1606  0.2583
  597POPC   D2A 7158  10.489   1.226   6.494  0.1141 -0.4322 -0.1396
  597POPC   C3A 7159  10.543   1.041   6.907 -0.0853 -0.0534  0.2506
  597POPC   C4A 7160  10.395   0.669   7.184  0.2760  0.0484  0.2961
  597POPC   C1B 7161  11.224   0.969   6.006 -0.2043 -0.4587  0.4199
  597POPC   C2B 7162  11.232   0.775   6.403  0.0232 -0.0804 -0.1672
  597POPC   C3B 7163  11.115   0.443   6.631 -0.0906 -0.0310 -0.2539
  597POPC   C4B 7164  10.895   0.115   6.471  0.0427 -0.1590 -0.1614
  598POPC   NC3 7165   3.130   4.564   5.345  0.0274  0.3218  0.0314
  598POPC   PO4 7166   3.489   4.682   5.395  0.0013 -0.0673  0.2749
  598POPC   GL1 7167   3.759   4.526   5.650  0.1475  0.0505 -0.0766
  598POPC   GL2 7168   3.640   4.275   5.784  0.0867  0.0712 -0.4303
  598POPC   C1A 7169   3.856   4.714   6.063 -0.1895 -0.1510  0.2265
  598POPC   D2A 7170   3.725   4.869   6.462  0.0125  0.4454  0.1350
  598POPC   C3A 7171   3.583   4.729   6.903  0.0238 -0.0646 -0.2425
  598POPC   C4A 7172   3.564   4.462   7.268 -0.0757 -0.1690  0.0980
  598POPC   C1B 7173   3.395   4.387   6.130 -0.3498 -0.0148  0.0018
  598POPC   C2B 7174   3.346   4.339   6.622 -0.0042 -0.0350  0.0997
  598POPC   C3B 7175   3.171   4.417   7.021  0.0033  0.0674  0.0165
  598POPC   C4B 7176   2.815   4.463   7.311  0.1684  0.0398 -0.1681
  599POPC   NC3 7177   5.725   7.758   5.922 -0.2679 -0.0724  0.4713
  599POPC   PO4 7178   6.037   7.551   5.844  0.0595  0.1665 -0.3491
  599POPC   GL1 7179   6.141   7.833   6.084 -0.0524  0.0922  0.1450
  599POPC   GL2 7180   6.027   7.690   6.333  0.3134  0.0207 -0.2719
  599POPC   C1A 7181   5.908   8.187   6.321  0.0437 -0.0665 -0.3075
  599POPC   D2A 7182   5.854   8.471   6.670 -0.0150 -0.2071 -0.3198
  599POPC   C3A 7183   5.463   8.430   6.924 -0.1161 -0.0913  0.1924
  599POPC   C4A 7184   5.084   8.493   7.168 -0.0745 -0.0065  0.2345
  599POPC   C1B 7185   6.151   7.937   6.748 -0.4157 -0.0539  0.2275
  599POPC   C2B 7186   6.432   8.198   6.977 -0.0060 -0.1446 -0.2013
  599POPC   C3B 7187   6.575   8.420   7.346 -0.0329 -0.1996 -0.0827
  599POPC   C4B 7188   6.407   8.598   7.727  0.2609 -0.3174 -0.0632
  600POPC   NC3 7189  13.783  15.764   4.287 -0.5287  0.0707  0.0256
  600POPC   PO4 7190  13.902  15.426   4.279  0.0227 -0.2406  0.1306
  600POPC   GL1 7191  13.812  15.253   4.643  0.2049  0.1467  0.2908
  600POPC   GL2 7192  13.589  15.420   4.662  0.2418 -0.0354 -0.1076
  600POPC   C1A 7193  13.837  15.031   5.010  0.0539 -0.1834 -0.3852
  600POPC   D2A 7194  14.209  14.976   5.246  0.2188  0.4498 -0.1302
  600POPC   C3A 7195  14.627  15.037   5.262  0.0865  0.0811  0.1165
  600POPC   C4A 7196  15.074  14.942   5.444 -0.0139 -0.0335 -0.0521
  600POPC   C1B 7197  13.772  15.534   5.077  0.0175 -0.3197  0.1784
  600POPC   C2B 7198  13.804  15.504   5.586 -0.0941 -0.3912 -0.0074
  600POPC   C3B 7199  13.918  15.755   5.960  0.2482  0.2773 -0.0279
  600POPC   C4B 7200  14.228  15.876   6.290  0.1549  0.0509  0.1337
  601POPC   NC3 7201   1.195  17.285   4.373 -0.1584 -0.1504 -0.1518
  601POPC   PO4 7202   1.006  17.585   4.451 -0.1539 -0.3886 -0.0902
  601POPC   GL1 7203   0.883  17.388   4.730  0.0504 -0.1131 -0.2005
  601POPC   GL2 7204   0.779  17.525   4.921 -0.1340  0.3481 -0.3861
  601POPC   C1A 7205   1.192  17.128   5.014 -0.0757 -0.2346 -0.2415
  601POPC   D2A 7206   1.261  16.691   5.200 -0.1110 -0.3349  0.2192
  601POPC   C3A 7207   1.531  16.360   4.896  0.2668 -0.3343 -0.0454
  601POPC   C4A 7208   1.828  16.079   4.621  0.0066 -0.1824 -0.1395
  601POPC   C1B 7209   0.528  17.272   5.301 -0.0885 -0.1824  0.1348
  601POPC   C2B 7210   0.486  17.086   5.716 -0.0526 -0.1149 -0.0551
  601POPC   C3B 7211   0.589  17.095   6.204  0.1576 -0.1208  0.1331
  601POPC   C4B 7212   0.499  17.208   6.638 -0.2013  0.0857  0.0131
  602POPC   NC3 7213  12.040   5.805   8.027  0.1503  0.2015 -0.0825
  602POPC   PO4 7214  12.108   6.204   8.138 -0.2213  0.2298 -0.0704
  602POPC   GL1 7215  12.434   6.123   8.209 -0.1585  0.0076 -0.3461
  602POPC   GL2 7216  12.504   5.823   8.357  0.2743 -0.2852 -0.0140
  602POPC   C1A 7217  12.721   6.428   8.402 -0.0687  0.1486 -0.0595
  602POPC   D2A 7218  13.021   6.793   8.465  0.1540 -0.1660 -0.4175
  602POPC   C3A 7219  13.047   7.075   8.841 -0.0869 -0.1260 -0.2482
  602POPC   C4A 7220  13.166   7.078   9.311  0.0597  0.0455  0.0213
  602POPC   C1B 7221  12.777   5.512   8.552 -0.1304  0.2410  0.1296
  602POPC   C2B 7222  13.076   5.603   8.900  0.0470 -0.0474 -0.0330
  602POPC   C3B 7223  13.307   5.998   9.042  0.0728 -0.0811 -0.0359
  602POPC   C4B 7224  13.652   6.321   9.139 -0.1154 -0.1216  0.1378
  603POPC   NC3 7225   3.282   7.298   5.213 -0.0570 -0.0256  0.0700
  603POPC   PO4 7226   3.016   6.992   5.343 -0.0172 -0.2688  0.1992
  603POPC   GL1 7227   2.829   7.024   5.677  0.0244  0.0981 -0.2653
  603POPC   GL2 7228   2.596   7.206   5.621 -0.0760  0.0911  0.0669
  603POPC   C1A 7229   3.203   7.052   6.006 -0.3861 -0.2177 -0.2016
  603POPC   D2A 7230   3.204   7.225   6.395 -0.1753  0.4213  0.3867
  603POPC   C3A 7231   2.957   7.574   6.568 -0.0128  0.2386  0.0876
  603POPC   C4A 7232   2.557   7.818   6.429  0.0535  0.2077  0.3273
  603POPC   C1B 7233   2.694   7.400   6.015 -0.1982  0.0089  0.0543
  603POPC   C2B 7234   2.503   7.289   6.435  0.0703  0.3344 -0.0283
  603POPC   C3B 7235   2.504   6.999   6.880  0.0366 -0.1340 -0.2230
  603POPC   C4B 7236   2.824   6.637   6.891 -0.1782  0.3715 -0.0470
  604POPC   NC3 7237  13.646  32.133   4.562  0.2544  0.0864  0.0092
  604POPC   PO4 7238  13.364  32.292   4.753  0.0668  0.4288 -0.2270
  604POPC   GL1 7239  13.207  32.350   5.074  0.3296  0.0769  0.1042
  604POPC   GL2 7240  13.500  32.334   5.251 -0.0620  0.1406  0.2102
  604POPC   C1A 7241  13.044  32.202   5.496  0.1455  0.1842  0.0960
  604POPC   D2A 7242  12.947  32.051   5.930 -0.1421 -0.0430 -0.2031
  604POPC   C3A 7243  12.881  31.603   6.010 -0.0067  0.0301  0.0331
  604POPC   C4A 7244  12.977  31.292   5.808 -0.1751 -0.1281  0.1215
  604POPC   C1B 7245  13.491  32.196   5.720 -0.1503  0.0014 -0.1482
  604POPC   C2B 7246  13.668  32.219   6.147  0.0115  0.1804 -0.0544
  604POPC   C3B 7247  13.449  32.321   6.544  0.1484  0.1227  0.0635
  604POPC   C4B 7248  13.022  32.491   6.708 -0.0045 -0.0754  0.0252
  605POPC   NC3 7249   9.072   4.689   9.157  0.0050  0.0089  0.1647
  605POPC   PO4 7250   8.991   4.453   8.841 -0.0752  0.0107  0.1828
  605POPC   GL1 7251   8.842   4.156   9.003 -0.1646  0.0170  0.3898
  605POPC   GL2 7252   8.558   4.190   8.879  0.3204 -0.2817  0.3124
  605POPC   C1A 7253   8.812   3.722   9.007  0.5101 -0.1337 -0.0057
  605POPC   D2A 7254   8.457   3.452   8.883 -0.1321  0.1479 -0.1335
  605POPC   C3A 7255   8.052   3.565   9.131 -0.0490  0.0969 -0.0941
  605POPC   C4A 7256   7.647   3.529   9.364 -0.2291  0.3391 -0.0280
  605POPC   C1B 7257   8.414   3.946   9.224  0.2709  0.0656 -0.0975
  605POPC   C2B 7258   8.166   3.717   9.585 -0.1215  0.0655 -0.1527
  605POPC   C3B 7259   8.207   3.323   9.794 -0.1389  0.2135  0.5103
  605POPC   C4B 7260   8.076   2.863   9.617 -0.0909  0.0872  0.1386
  606POPC   NC3 7261  11.647   8.521   6.884  0.0119  0.3134 -0.0806
  606POPC   PO4 7262  11.687   8.807   6.659  0.1390 -0.1501 -0.1653
  606POPC   GL1 7263  11.856   9.042   6.921 -0.0121 -0.0064  0.4066
  606POPC   GL2 7264  12.112   9.000   6.905 -0.3442 -0.3322  0.2347
  606POPC   C1A 7265  11.616   9.467   6.984  0.0341  0.1440 -0.1748
  606POPC   D2A 7266  11.258   9.797   6.941 -0.1617  0.1567  0.1758
  606POPC   C3A 7267  11.165  10.002   7.346 -0.3781  0.0094 -0.4255
  606POPC   C4A 7268  11.138  10.364   7.576 -0.0027 -0.0115 -0.1979
  606POPC   C1B 7269  12.317   9.357   7.095  0.2307  0.3523 -0.5543
  606POPC   C2B 7270  12.459   9.564   7.496  0.1204  0.0248 -0.0256
  606POPC   C3B 7271  12.535   9.929   7.754 -0.2569 -0.2195  0.2726
  606POPC   C4B 7272  12.716  10.204   8.072 -0.0694  0.2132 -0.1614
  607POPC   NC3 7273  10.902  16.081   4.681 -0.2896 -0.2099 -0.0905
  607POPC   PO4 7274  11.051  15.752   4.631 -0.1307  0.3817 -0.0722
  607POPC   GL1 7275  11.321  15.968   4.950  0.0097  0.0194  0.4192
  607POPC   GL2 7276  11.333  16.284   4.950  0.0097  0.0673 -0.1349
  607POPC   C1A 7277  11.346  15.701   5.334  0.0847 -0.1761 -0.0178
  607POPC   D2A 7278  11.557  15.675   5.672 -0.1921 -0.1037 -0.1089
  607POPC   C3A 7279  11.446  15.398   6.101  0.2921 -0.1121 -0.1148
  607POPC   C4A 7280  11.525  15.033   6.420  0.0487  0.0626  0.3654
  607POPC   C1B 7281  11.396  16.511   5.372 -0.0752  0.2587  0.0278
  607POPC   C2B 7282  11.329  16.972   5.621  0.2206  0.0699 -0.2724
  607POPC   C3B 7283  11.202  17.049   6.025 -0.0355  0.0714  0.1550
  607POPC   C4B 7284  10.907  17.274   6.249 -0.0918 -0.2102  0.1548
  608POPC   NC3 7285   2.465  13.443   4.021 -0.0990 -0.1578  0.0865
  608POPC   PO4 7286   2.352  13.828   3.934  0.1112  0.2840 -0.1966
  608POPC   GL1 7287   2.137  13.962   4.266  0.1365  0.0310 -0.0738
  608POPC   GL2 7288   1.978  13.692   4.311  0.1415 -0.0166 -0.0311
  608POPC   C1A 7289   2.304  14.125   4.629 -0.0589  0.1874 -0.3154
  608POPC   D2A 7290   2.163  14.106   5.091 -0.1075  0.1858 -0.3115
  608POPC   C3A 7291   2.359  14.130   5.512 -0.0395 -0.0947  0.0441
  608POPC   C4A 7292   2.425  13.926   5.982 -0.0968  0.4547 -0.0354
  608POPC   C1B 7293   1.802  13.952   4.649  0.1340 -0.0492 -0.0064
  608POPC   C2B 7294   1.674  13.957   5.076 -0.1270 -0.1700  0.4213
  608POPC   C3B 7295   1.212  14.049   5.204 -0.0834  0.2229 -0.0509
  608POPC   C4B 7296   0.978  13.965   5.565  0.2150 -0.1352 -0.1195
  609POPC   NC3 7297   5.024  10.780   4.507  0.3167  0.1081  0.0244
  609POPC   PO4 7298   4.765  10.474   4.481  0.2250 -0.2466  0.2050
  609POPC   GL1 7299   4.434  10.334   4.661 -0.2942  0.0475  0.2036
  609POPC   GL2 7300   4.426  10.071   4.703 -0.0152 -0.0704 -0.0493
  609POPC   C1A 7301   4.013  10.364   4.876 -0.2412  0.0700 -0.0908
  609POPC   D2A 7302   3.665  10.509   5.138  0.2018 -0.1020 -0.0637
  609POPC   C3A 7303   3.569  10.748   5.459 -0.1312 -0.0958 -0.2227
  609POPC   C4A 7304   3.240  10.653   5.832  0.2539 -0.4414  0.1083
  609POPC   C1B 7305   4.473  10.114   5.170  0.0135 -0.0345 -0.0576
  609POPC   C2B 7306   4.598  10.438   5.530  0.0179 -0.1779  0.2928
  609POPC   C3B 7307   4.737  10.789   5.838  0.2604 -0.0087  0.1158
  609POPC   C4B 7308   5.018  11.145   5.741  0.2270 -0.3453 -0.2759
  610POPC   NC3 7309  11.573   5.146   8.105  0.3120  0.0054 -0.0978
  610POPC   PO4 7310  11.635   4.804   7.932 -0.0299 -0.0397  0.0323
  610POPC   GL1 7311  11.927   4.842   8.209 -0.0577  0.3041 -0.1462
  610POPC   GL2 7312  11.831   4.647   8.371  0.0807  0.1619 -0.1080
  610POPC   C1A 7313  12.345   4.717   8.227  0.1831  0.1064  0.0952
  610POPC   D2A 7314  12.819   4.687   8.264  0.0458  0.0216 -0.1241
  610POPC   C3A 7315  13.123   4.318   8.342  0.0794  0.0295  0.0451
  610POPC   C4A 7316  13.074   4.038   8.724 -0.1649 -0.0785  0.3411
  610POPC   C1B 7317  12.167   4.301   8.408 -0.0072  0.1739 -0.1227
  610POPC   C2B 7318  12.393   3.994   8.563  0.2546  0.0462 -0.1911
  610POPC   C3B 7319  12.664   3.833   8.860 -0.0344 -0.3578  0.1738
  610POPC   C4B 7320  12.955   3.588   9.129  0.1149 -0.1083  0.1917
  611POPC   NC3 7321  14.588  15.491   3.796 -0.0314  0.0228 -0.1178
  611POPC   PO4 7322  14.899  15.286   3.987  0.1690  0.2371  0.1651
  611POPC   GL1 7323  14.953  15.522   4.293  0.0176 -0.0021 -0.0303
  611POPC   GL2 7324  15.131  15.365   4.549 -0.0906 -0.2605 -0.3741
  611POPC   C1A 7325  15.166  15.839   4.513 -0.0250  0.2155 -0.1163
  611POPC   D2A 7326  15.600  16.082   4.515  0.2022  0.2430 -0.0472
  611POPC   C3A 7327  15.981  15.784   4.609 -0.3340 -0.0668  0.1016
  611POPC   C4A 7328  16.269  15.422   4.774  0.1988 -0.1092 -0.0133
  611POPC   C1B 7329  15.193  15.520   5.010 -0.1038  0.4759 -0.0867
  611POPC   C2B 7330  14.982  15.502   5.400 -0.1587  0.0434  0.2912
  611POPC   C3B 7331  14.759  15.258   5.715  0.1821 -0.1286 -0.1711
  611POPC   C4B 7332  14.480  14.927   5.729  0.0006  0.1008 -0.0263
  612POPC   NC3 7333  15.373  13.179   4.780  0.0476  0.0524  0.1832
  612POPC   PO4 7334  15.536  12.930   4.532 -0.0905  0.3736  0.0976
  612POPC   GL1 7335  15.756  12.933   4.885 -0.1610 -0.1852 -0.4600
  612POPC   GL2 7336  15.941  12.652   4.878  0.1507 -0.0650 -0.0708
  612POPC   C1A 7337  15.768  13.168   5.309  0.1261  0.0721  0.0213
  612POPC   D2A 7338  15.637  13.474   5.615 -0.1581  0.0451 -0.1818
  612POPC   C3A 7339  15.592  13.304   5.982 -0.1415 -0.0322 -0.1463
  612POPC   C4A 7340  15.685  12.978   6.337  0.2074 -0.0936 -0.0768
  612POPC   C1B 7341  15.683  12.668   5.275  0.0739  0.3898  0.0208
  612POPC   C2B 7342  15.378  12.924   5.510 -0.0913  0.2990 -0.0890
  612POPC   C3B 7343  15.136  12.907   5.896  0.3337  0.0303  0.0668
  612POPC   C4B 7344  14.724  12.990   6.153  0.0574 -0.1165 -0.0576
  613POPC   NC3 7345   7.211   5.729   7.630 -0.0322  0.1416  0.1772
  613POPC   PO4 7346   7.405   6.087   7.695  0.3860  0.2886 -0.1424
  613POPC   GL1 7347   7.203   6.412   7.820 -0.0785  0.0982 -0.0407
  613POPC   GL2 7348   7.010   6.635   7.773  0.0471 -0.2160 -0.2647
  613POPC   C1A 7349   6.927   6.551   8.223  0.3690 -0.0560  0.1230
  613POPC   D2A 7350   6.852   6.933   8.486  0.1861 -0.1195  0.2385
  613POPC   C3A 7351   6.441   6.947   8.685  0.0222  0.1199  0.3809
  613POPC   C4A 7352   6.094   7.213   8.537  0.1144 -0.1038  0.2719
  613POPC   C1B 7353   6.823   7.021   7.714 -0.2894 -0.1894 -0.0986
  613POPC   C2B 7354   6.734   7.414   7.905 -0.1819  0.0416 -0.3967
  613POPC   C3B 7355   6.560   7.846   7.866  0.1053  0.2246  0.0314
  613POPC   C4B 7356   6.408   8.242   8.053  0.0787  0.0132  0.0291
  614POPC   NC3 7357  16.224  32.714   4.114 -0.1864  0.3439  0.0705
  614POPC   PO4 7358  16.161  33.058   3.983  0.0715 -0.1591 -0.1016
  614POPC   GL1 7359  16.077  33.115   4.389 -0.1280  0.2843 -0.1987
  614POPC   GL2 7360  16.357  33.274   4.511  0.1818  0.1393 -0.0676
  614POPC   C1A 7361  16.245  32.785   4.683 -0.2633  0.1548 -0.0957
  614POPC   D2A 7362  16.414  32.634   5.075 -0.1343  0.0298 -0.1809
  614POPC   C3A 7363  16.099  32.416   5.322 -0.1599 -0.5154  0.0829
  614POPC   C4A 7364  15.819  32.264   5.670  0.0308  0.1557 -0.2397
  614POPC   C1B 7365  16.494  33.126   4.925  0.0246 -0.1531  0.5345
  614POPC   C2B 7366  16.480  33.126   5.393 -0.1889 -0.0952  0.0706
  614POPC   C3B 7367  16.400  33.120   5.871 -0.1428  0.1193  0.1277
  614POPC   C4B 7368  16.056  33.213   6.226 -0.3602  0.2811  0.1102
  615POPC   NC3 7369  10.756  11.745   4.924  0.1367  0.0829  0.1716
  615POPC   PO4 7370  10.600  12.116   4.960 -0.0958 -0.1356 -0.0517
  615POPC   GL1 7371  10.569  12.401   5.251 -0.0970 -0.1760  0.0675
  615POPC   GL2 7372  10.853  12.545   5.157 -0.3295  0.1370  0.1451
  615POPC   C1A 7373  10.452  12.320   5.722 -0.2953 -0.0920  0.1732
  615POPC   D2A 7374  10.643  12.105   6.044 -0.1795 -0.0422 -0.2283
  615POPC   C3A 7375  10.679  12.206   6.500 -0.0683 -0.2836  0.2247
  615POPC   C4A 7376  10.911  12.293   6.899 -0.1384  0.1795 -0.0847
  615POPC   C1B 7377  10.870  12.616   5.602  0.3350 -0.1639 -0.2407
  615POPC   C2B 7378  10.709  12.677   6.069 -0.3454 -0.1703  0.4467
  615POPC   C3B 7379  10.654  13.050   6.337  0.0871 -0.2554  0.1605
  615POPC   C4B 7380  10.274  13.305   6.295  0.2826  0.0315 -0.3687
  616POPC   NC3 7381   0.750   0.371   4.303 -0.1276  0.0353  0.1706
  616POPC   PO4 7382   0.720   0.741   4.268 -0.1605  0.0624  0.3414
  616POPC   GL1 7383   0.350   0.652   4.478  0.0666  0.0032  0.1556
  616POPC   GL2 7384   0.483   0.554   4.724  0.3737 -0.1133 -0.1486
  616POPC   C1A 7385   0.074   0.794   4.804  0.0123 -0.1997 -0.1776
  616POPC   D2A 7386   0.115   1.125   5.151 -0.1666  0.1613 -0.2870
  616POPC   C3A 7387  -0.276   1.281   5.356 -0.0320  0.1057  0.0060
  616POPC   C4A 7388  -0.388   1.504   5.743 -0.0405 -0.1423 -0.2259
  616POPC   C1B 7389   0.362   0.574   5.183  0.0643  0.1573  0.0071
  616POPC   C2B 7390   0.197   0.799   5.570 -0.2453  0.0429  0.2131
  616POPC   C3B 7391   0.063   0.772   5.996  0.0012 -0.1605  0.1705
  616POPC   C4B 7392   0.060   1.134   6.332  0.2914 -0.2015  0.2650
  617POPC   NC3 7393   8.519  12.282   4.921  0.1425  0.2253  0.1864
  617POPC   PO4 7394   8.905  12.196   4.960  0.0624 -0.1829  0.0687
  617POPC   GL1 7395   8.972  12.345   5.308 -0.2463 -0.0527  0.0102
  617POPC   GL2 7396   8.701  12.203   5.404 -0.1525  0.2500  0.1697
  617POPC   C1A 7397   9.093  12.288   5.739  0.0987 -0.0905 -0.0644
  617POPC   D2A 7398   9.541  12.177   5.953 -0.1844  0.2366 -0.1700
  617POPC   C3A 7399   9.626  12.078   6.423  0.0815  0.1529  0.1926
  617POPC   C4A 7400  10.066  12.052   6.657 -0.1626  0.1437 -0.1136
  617POPC   C1B 7401   8.596  12.429   5.770  0.0949  0.1164 -0.0767
  617POPC   C2B 7402   8.624  12.640   6.168  0.4922 -0.0186  0.2191
  617POPC   C3B 7403   8.892  12.638   6.563  0.1181 -0.3730 -0.0194
  617POPC   C4B 7404   9.241  12.845   6.729  0.1290 -0.3274 -0.1428
  618POPC   NC3 7405  16.318   7.941   5.271  0.0288 -0.0566 -0.0009
  618POPC   PO4 7406  16.027   8.220   5.243  0.0127  0.2352  0.0722
  618POPC   GL1 7407  15.911   8.438   5.495 -0.0133  0.1580 -0.0697
  618POPC   GL2 7408  15.729   8.217   5.674  0.0009 -0.2309 -0.1287
  618POPC   C1A 7409  16.117   8.585   5.879  0.0065 -0.0661  0.2609
  618POPC   D2A 7410  16.114   8.489   6.384  0.0371  0.1910 -0.1100
  618POPC   C3A 7411  16.286   8.536   6.817 -0.1212 -0.0736 -0.0354
  618POPC   C4A 7412  16.299   8.541   7.270  0.0482  0.1526 -0.2093
  618POPC   C1B 7413  15.745   8.193   6.115  0.4471  0.1273 -0.0610
  618POPC   C2B 7414  15.701   8.136   6.606  0.1708  0.0525  0.1643
  618POPC   C3B 7415  15.560   8.122   7.078  0.2072 -0.2766 -0.1265
  618POPC   C4B 7416  15.238   8.197   7.417 -0.1014  0.0159  0.1905
  619POPC   NC3 7417   3.605   4.503   4.904  0.1120  0.2231  0.0522
  619POPC   PO4 7418   3.362   4.201   4.988 -0.2808  0.0229 -0.1128
  619POPC   GL1 7419   3.059   4.100   5.356  0.2762 -0.1478  0.1148
  619POPC   GL2 7420   3.291   4.052   5.531 -0.0372  0.3050  0.0170
  619POPC   C1A 7421   3.005   4.341   5.794  0.1732  0.0737 -0.2911
  619POPC   D2A 7422   2.868   4.462   6.185 -0.1235  0.2028 -0.2217
  619POPC   C3A 7423   2.769   4.360   6.572 -0.0374 -0.0715 -0.0391
  619POPC   C4A 7424   2.474   4.304   6.977  0.2150 -0.0191 -0.1747
  619POPC   C1B 7425   2.978   3.842   5.896  0.0544  0.0052  0.0306
  619POPC   C2B 7426   2.647   3.979   6.164 -0.1224 -0.0398 -0.1627
  619POPC   C3B 7427   2.370   3.983   6.554 -0.3686  0.2257 -0.0788
  619POPC   C4B 7428   2.227   3.780   6.951 -0.1119 -0.1509  0.1086
  620POPC   NC3 7429   1.125   3.912   4.634 -0.1325  0.0110  0.3343
  620POPC   PO4 7430   1.241   3.508   4.706  0.0149  0.1761 -0.0141
  620POPC   GL1 7431   1.320   3.410   5.056 -0.3689 -0.0568 -0.2039
  620POPC   GL2 7432   1.556   3.493   5.140 -0.0017 -0.1164 -0.0703
  620POPC   C1A 7433   1.349   3.139   5.442 -0.0463  0.0868 -0.0873
  620POPC   D2A 7434   1.183   3.037   5.815 -0.0033 -0.0684 -0.1793
  620POPC   C3A 7435   1.310   3.003   6.297 -0.1717 -0.2796  0.1348
  620POPC   C4A 7436   1.411   3.001   6.757  0.0956 -0.1419  0.0359
  620POPC   C1B 7437   1.623   3.611   5.586 -0.2168  0.0800  0.2874
  620POPC   C2B 7438   1.365   3.472   5.946 -0.1530  0.2155  0.2105
  620POPC   C3B 7439   1.443   3.582   6.385  0.1457 -0.0347 -0.3418
  620POPC   C4B 7440   1.649   3.427   6.787 -0.1449  0.2502 -0.0888
  621POPC   NC3 7441  12.298   1.417   5.700  0.0049 -0.1511  0.2295
  621POPC   PO4 7442  11.982   1.500   5.479  0.0310 -0.4534  0.0644
  621POPC   GL1 7443  11.784   1.257   5.651  0.0122 -0.0249  0.0215
  621POPC   GL2 7444  11.847   1.296   5.918  0.3080 -0.0506 -0.3618
  621POPC   C1A 7445  11.931   0.841   5.828 -0.0575 -0.1005 -0.3183
  621POPC   D2A 7446  11.889   0.458   6.061  0.0468  0.3976  0.1324
  621POPC   C3A 7447  12.038   0.259   6.413 -0.1715 -0.1356  0.0619
  621POPC   C4A 7448  12.058   0.052   6.806 -0.0043  0.1067  0.2271
  621POPC   C1B 7449  11.896   1.053   6.325 -0.0048 -0.1097  0.2331
  621POPC   C2B 7450  11.728   0.675   6.461 -0.0479 -0.1780 -0.1853
  621POPC   C3B 7451  11.612   0.278   6.688 -0.0316  0.0566  0.2711
  621POPC   C4B 7452  11.624   0.082   7.062  0.2717  0.0288 -0.0917
  622POPC   NC3 7453  12.337   6.481   7.600  0.1985  0.0695 -0.2868
  622POPC   PO4 7454  12.201   6.808   7.597 -0.0840 -0.3070  0.1792
  622POPC   GL1 7455  12.604   6.846   7.657 -0.0119 -0.1238 -0.5553
  622POPC   GL2 7456  12.863   6.885   7.551 -0.2447  0.0192 -0.2093
  622POPC   C1A 7457  12.714   7.033   8.092 -0.0626  0.0993  0.0827
  622POPC   D2A 7458  12.563   7.178   8.481  0.0143  0.2157  0.0188
  622POPC   C3A 7459  12.916   7.519   8.654  0.1848 -0.2349  0.0032
  622POPC   C4A 7460  13.330   7.467   8.844  0.2936 -0.2184 -0.0703
  622POPC   C1B 7461  13.098   6.790   7.908 -0.2849 -0.1392  0.1307
  622POPC   C2B 7462  13.205   6.465   8.174 -0.0840  0.1134 -0.0624
  622POPC   C3B 7463  13.508   6.107   8.138 -0.4114 -0.1258  0.1630
  622POPC   C4B 7464  13.949   5.895   8.231  0.0191 -0.1200  0.0607
  623POPC   NC3 7465   2.334   9.329   4.894 -0.0417  0.0517 -0.0938
  623POPC   PO4 7466   2.739   9.335   4.781  0.1850  0.0021  0.1647
  623POPC   GL1 7467   2.781   9.623   5.037  0.1700 -0.1086  0.1954
  623POPC   GL2 7468   3.100   9.725   5.052  0.1198 -0.1599 -0.1248
  623POPC   C1A 7469   2.740   9.830   5.395 -0.0689  0.1348 -0.0970
  623POPC   D2A 7470   2.907   9.737   5.870  0.0736  0.0492  0.1283
  623POPC   C3A 7471   2.895   9.746   6.278 -0.0078  0.0556 -0.2795
  623POPC   C4A 7472   2.671   9.647   6.646  0.1188  0.0109  0.4292
  623POPC   C1B 7473   3.271   9.742   5.508  0.1517 -0.1517  0.0788
  623POPC   C2B 7474   3.455   9.861   5.908 -0.1046  0.1012  0.1654
  623POPC   C3B 7475   3.639  10.209   6.074  0.0856 -0.0546  0.1797
  623POPC   C4B 7476   3.398  10.550   6.345  0.0103 -0.1210  0.2834
  624POPC   NC3 7477  11.425   6.358  11.708 -0.4856  0.0161  0.0255
  624POPC   PO4 7478  11.196   6.087  11.861  0.1503  0.0051 -0.0503
  624POPC   GL1 7479  10.962   6.417  11.994 -0.0388  0.2656  0.0962
  624POPC   GL2 7480  10.848   6.612  11.670  0.1563 -0.2060 -0.0248
  624POPC   C1A 7481  11.102   6.844  11.986 -0.0673  0.1250  0.0096
  624POPC   D2A 7482  11.213   7.101  12.365 -0.0266  0.0709 -0.1321
  624POPC   C3A 7483  11.582   7.400  12.408  0.0933 -0.1395  0.0196
  624POPC   C4A 7484  11.685   7.807  12.306 -0.0380  0.0154 -0.2494
  624POPC   C1B 7485  10.606   6.858  12.008  0.0057  0.2667  0.2058
  624POPC   C2B 7486  10.617   7.254  12.233  0.0369  0.2939 -0.1512
  624POPC   C3B 7487  10.553   7.678  12.334  0.0005  0.1728  0.0714
  624POPC   C4B 7488  10.614   8.059  12.566 -0.2582 -0.4646  0.2246
  625POPC   NC3 7489   2.408   5.269   4.516  0.1581 -0.0708 -0.0133
  625POPC   PO4 7490   2.230   5.017   4.717 -0.1111  0.3250  0.1551
  625POPC   GL1 7491   2.220   4.957   5.069  0.3620 -0.0255  0.0095
  625POPC   GL2 7492   1.988   4.917   5.235  0.0127 -0.1626 -0.2861
  625POPC   C1A 7493   2.500   4.919   5.471  0.2310 -0.0616  0.0711
  625POPC   D2A 7494   2.882   4.943   5.755  0.4513 -0.0174 -0.1020
  625POPC   C3A 7495   3.138   4.886   6.159 -0.1699 -0.1541 -0.1600
  625POPC   C4A 7496   3.159   4.783   6.622 -0.2725 -0.0910 -0.0890
  625POPC   C1B 7497   1.662   4.601   5.343  0.1205  0.0954 -0.0343
  625POPC   C2B 7498   1.482   4.454   5.767  0.1383  0.0366  0.0297
  625POPC   C3B 7499   1.448   4.707   6.104 -0.0728  0.1822  0.2624
  625POPC   C4B 7500   1.082   4.880   6.249 -0.0366 -0.0103 -0.1960
  626POPC   NC3 7501   4.400  16.186   4.754 -0.1337 -0.1829  0.1353
  626POPC   PO4 7502   4.040  16.219   4.640  0.0435 -0.2856  0.0230
  626POPC   GL1 7503   3.984  15.952   4.918  0.0244 -0.2047  0.4293
  626POPC   GL2 7504   3.757  16.122   5.054 -0.4360  0.4191  0.0337
  626POPC   C1A 7505   3.670  15.610   4.910 -0.2692  0.1309 -0.0002
  626POPC   D2A 7506   3.238  15.534   5.141 -0.0349 -0.0237  0.0430
  626POPC   C3A 7507   2.990  15.138   5.199 -0.0372  0.4167  0.0840
  626POPC   C4A 7508   2.579  15.061   5.526 -0.1316  0.0021  0.0110
  626POPC   C1B 7509   3.577  16.140   5.483  0.2012  0.1954 -0.2461
  626POPC   C2B 7510   3.505  16.051   5.926 -0.1001  0.0078  0.1460
  626POPC   C3B 7511   3.473  15.725   6.259 -0.1784 -0.1475  0.1353
  626POPC   C4B 7512   3.267  15.415   6.584 -0.1987 -0.1810 -0.1902
  627POPC   NC3 7513   6.092   1.561   5.558  0.0399 -0.1126  0.1624
  627POPC   PO4 7514   5.861   1.374   5.277 -0.0054 -0.2023 -0.2082
  627POPC   GL1 7515   5.720   1.054   5.152  0.1837  0.1346  0.0897
  627POPC   GL2 7516   5.468   1.056   5.284  0.1021  0.2207  0.1641
  627POPC   C1A 7517   5.878   0.657   5.293 -0.0221 -0.0161 -0.0706
  627POPC   D2A 7518   5.987   0.545   5.772  0.1397  0.0876 -0.1355
  627POPC   C3A 7519   6.244   0.455   6.156 -0.0422  0.2147 -0.0880
  627POPC   C4A 7520   6.474   0.032   6.324 -0.3461  0.1635  0.1475
  627POPC   C1B 7521   5.541   0.886   5.662  0.1508 -0.2691  0.1638
  627POPC   C2B 7522   5.600   0.726   6.066  0.2987  0.3584  0.3805
  627POPC   C3B 7523   5.828   0.550   6.403 -0.1999  0.1894  0.2338
  627POPC   C4B 7524   6.217   0.327   6.652  0.1795  0.0520  0.1678
  628POPC   NC3 7525  14.461  12.817   4.542  0.2007  0.0777 -0.0831
  628POPC   PO4 7526  14.712  13.130   4.470 -0.1703 -0.0580 -0.1526
  628POPC   GL1 7527  14.951  13.275   4.884  0.1770 -0.2040 -0.2680
  628POPC   GL2 7528  14.726  13.365   4.936 -0.0733 -0.1561 -0.3479
  628POPC   C1A 7529  15.232  13.374   5.240 -0.1936  0.0765  0.1082
  628POPC   D2A 7530  15.165  13.634   5.621 -0.1040  0.0475  0.2791
  628POPC   C3A 7531  15.005  14.058   5.708 -0.3210  0.2111  0.0479
  628POPC   C4A 7532  15.237  14.461   5.842  0.1513  0.0576  0.1016
  628POPC   C1B 7533  14.572  13.565   5.314 -0.0940  0.3403 -0.0234
  628POPC   C2B 7534  14.373  13.811   5.644 -0.2131 -0.0829 -0.3906
  628POPC   C3B 7535  14.532  14.007   6.049  0.1902  0.0734  0.1658
  628POPC   C4B 7536  14.886  14.230   6.264  0.2482 -0.3460 -0.1485
  629POPC   NC3 7537   1.078   7.086   5.346 -0.2270 -0.0050 -0.0734
  629POPC   PO4 7538   1.442   7.093   5.498  0.1455 -0.3854  0.0311
  629POPC   GL1 7539   1.286   6.963   5.829  0.0211 -0.2384 -0.1246
  629POPC   GL2 7540   1.108   6.763   5.808 -0.2871  0.1516  0.1056
  629POPC   C1A 7541   1.488   7.133   6.196 -0.1221 -0.0916  0.1030
  629POPC   D2A 7542   1.590   7.207   6.632  0.2124  0.0862  0.1514
  629POPC   C3A 7543   1.320   6.900   6.926 -0.1467  0.0428 -0.3709
  629POPC   C4A 7544   1.025   6.767   7.218  0.2239  0.0839  0.1650
  629POPC   C1B 7545   0.873   6.586   6.188 -0.2861  0.0399 -0.1729
  629POPC   C2B 7546   0.743   6.776   6.587 -0.0233  0.0668 -0.2111
  629POPC   C3B 7547   0.579   6.716   7.010 -0.0493 -0.1462  0.2643
  629POPC   C4B 7548   0.180   6.927   7.189 -0.0240 -0.2284 -0.2164
  630POPC   NC3 7549   9.428  13.081   5.266  0.0404 -0.3271 -0.0482
  630POPC   PO4 7550   9.500  13.360   5.007 -0.0389 -0.3249  0.1359
  630POPC   GL1 7551   9.501  13.519   5.412 -0.4739  0.2120  0.1360
  630POPC   GL2 7552   9.677  13.343   5.560  0.1402  0.0205 -0.2347
  630POPC   C1A 7553   9.156  13.778   5.539 -0.1583 -0.1483  0.1593
  630POPC   D2A 7554   8.882  14.001   5.817 -0.0176 -0.2467  0.4567
  630POPC   C3A 7555   8.804  14.179   6.239 -0.3184  0.2839 -0.2431
  630POPC   C4A 7556   8.704  14.400   6.641 -0.1223  0.0172 -0.2581
  630POPC   C1B 7557   9.475  13.575   5.881  0.2278 -0.1876  0.3349
  630POPC   C2B 7558   9.270  13.854   6.187  0.1267  0.0759  0.2933
  630POPC   C3B 7559   9.357  14.049   6.574  0.3852  0.2032  0.0301
  630POPC   C4B 7560   9.436  13.887   7.075 -0.3622 -0.0636  0.2537
  631POPC   NC3 7561   7.051   6.856   6.668  0.3054 -0.0701 -0.0830
  631POPC   PO4 7562   6.901   6.530   6.844 -0.5009  0.2024 -0.5070
  631POPC   GL1 7563   6.641   6.631   7.071 -0.3363  0.0776 -0.5031
  631POPC   GL2 7564   6.842   6.921   7.162 -0.0843  0.0526 -0.3016
  631POPC   C1A 7565   6.486   6.636   7.483 -0.4035  0.0186 -0.0857
  631POPC   D2A 7566   6.500   6.676   7.922 -0.2304  0.0164 -0.0649
  631POPC   C3A 7567   6.500   7.064   8.118 -0.0574  0.2767 -0.0693
  631POPC   C4A 7568   6.276   7.471   8.175  0.0770 -0.1770 -0.1193
  631POPC   C1B 7569   6.430   7.079   7.252 -0.0448 -0.2056 -0.2008
  631POPC   C2B 7570   6.031   7.291   7.270  0.2114 -0.3136  0.0660
  631POPC   C3B 7571   5.608   7.235   7.363 -0.2438  0.0059  0.0197
  631POPC   C4B 7572   5.258   7.020   7.548 -0.1341 -0.0498 -0.2700
  632POPC   NC3 7573  10.325   4.435  10.349  0.3274 -0.1084 -0.1364
  632POPC   PO4 7574  10.234   4.678  10.038 -0.1975 -0.1094 -0.0465
  632POPC   GL1 7575  10.487   4.397   9.848 -0.0496 -0.1084  0.3554
  632POPC   GL2 7576  10.688   4.414  10.034 -0.1867  0.0381 -0.1395
  632POPC   C1A 7577  10.906   4.392   9.587  0.1368 -0.2539 -0.1128
  632POPC   D2A 7578  11.197   4.092   9.521 -0.2254  0.1164  0.1168
  632POPC   C3A 7579  11.281   3.616   9.568  0.1014  0.0176  0.1683
  632POPC   C4A 7580  11.597   3.308   9.813  0.1253  0.0708  0.0392
  632POPC   C1B 7581  10.752   3.973  10.000  0.2530 -0.0295 -0.0392
  632POPC   C2B 7582  10.777   3.532   9.912  0.2420 -0.0187 -0.0066
  632POPC   C3B 7583  10.701   3.100   9.828  0.0770 -0.0022  0.2924
  632POPC   C4B 7584  10.655   2.640  10.009  0.1012  0.0851  0.0851
  633POPC   NC3 7585  11.512   1.428   5.303  0.1090 -0.0890 -0.0116
  633POPC   PO4 7586  11.436   1.547   5.685  0.0683 -0.0348 -0.0092
  633POPC   GL1 7587  11.484   1.505   6.073 -0.3181 -0.0334  0.1548
  633POPC   GL2 7588  11.282   1.385   6.251 -0.0421  0.0281  0.0173
  633POPC   C1A 7589  11.831   1.572   6.400  0.0018  0.0515 -0.0719
  633POPC   D2A 7590  12.100   1.341   6.729  0.1721 -0.0770  0.1072
  633POPC   C3A 7591  11.871   1.030   7.023  0.3829  0.3992  0.0851
  633POPC   C4A 7592  11.906   0.864   7.488  0.4334 -0.0595  0.2427
  633POPC   C1B 7593  11.516   1.199   6.575 -0.0724 -0.0604  0.1039
  633POPC   C2B 7594  11.380   1.265   7.022 -0.2480 -0.0079 -0.0895
  633POPC   C3B 7595  11.304   0.942   7.310 -0.0408  0.1120 -0.2294
  633POPC   C4B 7596  11.341   0.657   7.632 -0.0859 -0.0011 -0.1377
  634POPC   NC3 7597   2.072  13.219   4.203 -0.4753 -0.0871 -0.1520
  634POPC   PO4 7598   2.312  12.953   4.015 -0.0479  0.0084 -0.0116
  634POPC   GL1 7599   2.322  12.893   4.439 -0.2646  0.5325 -0.2898
  634POPC   GL2 7600   2.004  12.770   4.455  0.0957  0.0703 -0.1447
  634POPC   C1A 7601   2.706  12.696   4.684  0.0606 -0.1979 -0.2686
  634POPC   D2A 7602   2.931  12.828   5.112  0.0821  0.4046 -0.1430
  634POPC   C3A 7603   2.770  13.149   5.444  0.2334  0.2451 -0.1092
  634POPC   C4A 7604   2.440  13.476   5.599 -0.0350 -0.0386 -0.2811
  634POPC   C1B 7605   2.235  12.691   4.875  0.0542 -0.1189  0.0961
  634POPC   C2B 7606   2.288  12.407   5.218  0.0126 -0.1034 -0.0022
  634POPC   C3B 7607   2.494  12.259   5.608 -0.1844  0.4657 -0.2875
  634POPC   C4B 7608   2.771  12.294   5.987 -0.1264 -0.3430 -0.0219
  635POPC   NC3 7609  16.027  11.892   4.535  0.1548  0.0048 -0.0776
  635POPC   PO4 7610  15.917  11.616   4.297  0.1193 -0.2520  0.0561
  635POPC   GL1 7611  16.110  11.440   4.752  0.1765  0.0683 -0.0992
  635POPC   GL2 7612  15.879  11.449   4.765 -0.3468 -0.1127  0.1028
  635POPC   C1A 7613  16.179  11.765   5.028  0.1257 -0.1158 -0.0480
  635POPC   D2A 7614  16.393  11.904   5.432  0.4824  0.2078  0.0022
  635POPC   C3A 7615  16.587  12.359   5.538 -0.0593 -0.2047  0.2306
  635POPC   C4A 7616  16.773  12.673   5.854  0.0125  0.1149  0.2373
  635POPC   C1B 7617  15.722  11.551   5.199  0.1211  0.0849  0.0278
  635POPC   C2B 7618  15.553  11.698   5.563 -0.1093  0.2326  0.0503
  635POPC   C3B 7619  15.581  12.023   5.905 -0.2351  0.1055 -0.0219
  635POPC   C4B 7620  15.585  12.239   6.347  0.1221 -0.0806 -0.0792
  636POPC   NC3 7621   4.292   2.354   5.473 -0.0730  0.0777 -0.1603
  636POPC   PO4 7622   4.294   2.020   5.209 -0.1341  0.0325 -0.0469
  636POPC   GL1 7623   4.120   1.797   5.448  0.0294  0.0162 -0.5398
  636POPC   GL2 7624   4.021   1.988   5.667 -0.2110 -0.1257  0.1002
  636POPC   C1A 7625   3.900   1.455   5.697 -0.1936 -0.2527  0.0248
  636POPC   D2A 7626   3.622   1.137   5.909  0.1786 -0.1060  0.0867
  636POPC   C3A 7627   3.201   1.087   5.741 -0.0009 -0.2237 -0.2629
  636POPC   C4A 7628   2.929   1.426   5.527 -0.1126  0.2496 -0.4229
  636POPC   C1B 7629   3.974   1.807   6.016  0.3088  0.2322 -0.1358
  636POPC   C2B 7630   3.708   1.567   6.375  0.1643  0.1080  0.2992
  636POPC   C3B 7631   3.518   1.768   6.744 -0.3075 -0.2152 -0.1052
  636POPC   C4B 7632   3.536   1.928   7.167 -0.3736  0.0846 -0.2214
  637POPC   NC3 7633   4.061   3.417   5.922 -0.1912 -0.0327  0.2624
  637POPC   PO4 7634   4.244   3.651   5.660 -0.0474  0.0184 -0.2432
  637POPC   GL1 7635   4.294   3.836   6.039 -0.3412  0.1923  0.3479
  637POPC   GL2 7636   3.996   3.913   6.087  0.0922 -0.1509 -0.2567
  637POPC   C1A 7637   4.404   3.974   6.451 -0.0183  0.0395  0.2073
  637POPC   D2A 7638   4.376   4.336   6.728 -0.0346 -0.0854 -0.1040
  637POPC   C3A 7639   4.496   4.503   7.154  0.0209 -0.0837 -0.0973
  637POPC   C4A 7640   4.219   4.656   7.427  0.1386  0.0992  0.0879
  637POPC   C1B 7641   3.747   3.914   6.474  0.3926  0.5969 -0.2845
  637POPC   C2B 7642   3.633   3.837   6.899 -0.0148  0.0240  0.0031
  637POPC   C3B 7643   3.596   3.467   7.184 -0.0820 -0.0181  0.2554
  637POPC   C4B 7644   3.744   3.401   7.608  0.1331  0.1412  0.0687
  638POPC   NC3 7645  12.124   4.240   6.385 -0.2000 -0.2546 -0.0738
  638POPC   PO4 7646  12.364   4.344   6.641 -0.2468 -0.0762 -0.1994
  638POPC   GL1 7647  12.446   3.992   6.831  0.1674  0.1068 -0.0175
  638POPC   GL2 7648  12.338   3.879   7.052  0.2579  0.1582 -0.3756
  638POPC   C1A 7649  12.858   3.958   7.031 -0.0466 -0.1386 -0.2940
  638POPC   D2A 7650  13.027   3.845   7.428 -0.0340  0.1030  0.0680
  638POPC   C3A 7651  13.404   3.841   7.747 -0.1702 -0.0618  0.0749
  638POPC   C4A 7652  13.533   3.925   8.177  0.1127  0.3132 -0.0059
  638POPC   C1B 7653  12.675   3.567   7.225  0.0676  0.4415  0.1032
  638POPC   C2B 7654  13.087   3.379   7.306 -0.0926 -0.0892 -0.0043
  638POPC   C3B 7655  13.437   3.283   7.485 -0.0503  0.1508  0.0754
  638POPC   C4B 7656  13.681   3.437   7.896 -0.0973  0.1602 -0.1297
  639POPC   NC3 7657  13.531   9.643   5.575 -0.1537  0.3633  0.0252
  639POPC   PO4 7658  13.715   9.583   5.243  0.4324  0.0354  0.0566
  639POPC   GL1 7659  13.924   9.893   5.414 -0.1904  0.2830 -0.2435
  639POPC   GL2 7660  13.791  10.125   5.296  0.0537  0.3875 -0.1117
  639POPC   C1A 7661  14.236   9.920   5.784 -0.0397 -0.1876 -0.2291
  639POPC   D2A 7662  14.386  10.326   5.893 -0.2182  0.1747 -0.3100
  639POPC   C3A 7663  14.119  10.538   6.150  0.1394  0.1866 -0.2167
  639POPC   C4A 7664  14.146  10.941   6.412  0.1166  0.1973 -0.4278
  639POPC   C1B 7665  13.732  10.060   5.766 -0.0665  0.1317  0.0097
  639POPC   C2B 7666  13.551   9.979   6.177 -0.0673  0.1013 -0.0371
  639POPC   C3B 7667  13.417  10.012   6.622  0.4918  0.2662 -0.2332
  639POPC   C4B 7668  13.680   9.945   6.985  0.0653 -0.1438 -0.0098
  640POPC   NC3 7669   9.779   9.357   6.826 -0.1054 -0.1344 -0.0069
  640POPC   PO4 7670  10.136   9.281   6.639  0.1885 -0.3381  0.0682
  640POPC   GL1 7671  10.339   9.326   6.852 -0.2611 -0.2208  0.0780
  640POPC   GL2 7672  10.600   9.258   6.845  0.2770  0.0754  0.0452
  640POPC   C1A 7673  10.300   9.745   7.042 -0.2108  0.0415 -0.1135
  640POPC   D2A 7674  10.199   9.891   7.464 -0.0649  0.0737 -0.1219
  640POPC   C3A 7675  10.319  10.018   7.891 -0.1991 -0.0479  0.2427
  640POPC   C4A 7676  10.280  10.277   8.266 -0.2918  0.1662 -0.0711
  640POPC   C1B 7677  10.615   9.424   7.300  0.0139 -0.2048  0.1281
  640POPC   C2B 7678  10.665   9.575   7.738  0.2429  0.0182 -0.1688
  640POPC   C3B 7679  10.466   9.637   8.216 -0.2881 -0.1020 -0.3223
  640POPC   C4B 7680  10.065   9.785   8.414  0.1020 -0.1478 -0.1743
  641POPC   NC3 7681   7.262  16.038   4.750 -0.0058  0.2529 -0.0421
  641POPC   PO4 7682   7.374  16.155   5.114 -0.0802 -0.2662 -0.2314
  641POPC   GL1 7683   7.377  16.546   5.315  0.0535 -0.0554 -0.1166
  641POPC   GL2 7684   7.079  16.470   5.444 -0.3549  0.1153  0.1161
  641POPC   C1A 7685   7.606  16.673   5.691 -0.0520 -0.1429 -0.0594
  641POPC   D2A 7686   8.056  16.677   5.945  0.0111  0.0880 -0.1592
  641POPC   C3A 7687   8.234  16.691   6.381 -0.3274 -0.1029 -0.1932
  641POPC   C4A 7688   8.210  16.722   6.844 -0.0404  0.1510  0.0289
  641POPC   C1B 7689   7.097  16.027   5.681  0.1919  0.1734 -0.0849
  641POPC   C2B 7690   7.258  15.890   6.098 -0.0007 -0.0184  0.0197
  641POPC   C3B 7691   7.377  15.517   6.360  0.0804  0.0231  0.4414
  641POPC   C4B 7692   7.174  15.165   6.115  0.1339  0.2995  0.2688
  642POPC   NC3 7693   8.330   6.723  11.390 -0.1326 -0.2075  0.0059
  642POPC   PO4 7694   8.688   6.696  11.549 -0.0746  0.0921  0.1077
  642POPC   GL1 7695   8.984   6.966  11.565 -0.2363 -0.3617  0.0259
  642POPC   GL2 7696   9.039   7.120  11.778  0.0240 -0.0949 -0.1296
  642POPC   C1A 7697   8.925   7.300  11.264  0.2775 -0.0523  0.2182
  642POPC   D2A 7698   9.149   7.641  11.060  0.2699  0.0399 -0.1874
  642POPC   C3A 7699   9.454   7.938  11.278  0.6265  0.1754 -0.0352
  642POPC   C4A 7700   9.475   8.142  11.665  0.0984  0.0549 -0.1605
  642POPC   C1B 7701   8.765   7.465  11.816 -0.1089  0.3050  0.0911
  642POPC   C2B 7702   8.694   7.868  11.942 -0.0689  0.4506  0.2799
  642POPC   C3B 7703   8.606   8.249  11.579  0.2101  0.0857 -0.4647
  642POPC   C4B 7704   8.624   8.404  11.201  0.2897  0.2290 -0.0088
  643POPC   NC3 7705  10.240  13.772   4.878 -0.1089 -0.2929 -0.1747
  643POPC   PO4 7706  10.472  13.422   4.914 -0.1267  0.2575 -0.1024
  643POPC   GL1 7707  10.366  13.521   5.236 -0.2735 -0.0198 -0.1513
  643POPC   GL2 7708  10.451  13.332   5.447  0.0066  0.0333 -0.1110
  643POPC   C1A 7709  10.149  13.764   5.531  0.2332  0.4121 -0.0368
  643POPC   D2A 7710   9.868  13.900   5.861  0.2932  0.2182  0.4098
  643POPC   C3A 7711   9.800  13.711   6.334 -0.2639 -0.2684 -0.0291
  643POPC   C4A 7712   9.748  13.521   6.739 -0.0178 -0.2064  0.0362
  643POPC   C1B 7713  10.478  12.978   5.711 -0.0108 -0.2061 -0.1078
  643POPC   C2B 7714  10.203  12.865   6.035  0.0880  0.1061  0.0823
  643POPC   C3B 7715   9.965  12.903   6.394 -0.1582  0.2120 -0.3254
  643POPC   C4B 7716   9.649  13.068   6.669 -0.1722  0.0615  0.0762
  644POPC   NC3 7717   9.631   9.430   6.078  0.0306  0.1242  0.0439
  644POPC   PO4 7718   9.758   9.590   6.354 -0.1847  0.0218 -0.1482
  644POPC   GL1 7719   9.827   9.907   6.562  0.0198 -0.2094 -0.1576
  644POPC   GL2 7720   9.915   9.884   6.810 -0.0788  0.0596 -0.0518
  644POPC   C1A 7721  10.017  10.301   6.543 -0.1352 -0.1335  0.0003
  644POPC   D2A 7722  10.037  10.621   6.878  0.2294 -0.0080 -0.1077
  644POPC   C3A 7723   9.747  10.737   7.240  0.0527 -0.1958  0.2639
  644POPC   C4A 7724   9.622  10.785   7.624  0.0139  0.1153 -0.3470
  644POPC   C1B 7725   9.876  10.162   7.174 -0.1056 -0.0792 -0.0155
  644POPC   C2B 7726  10.068  10.447   7.508 -0.1701  0.2309 -0.2449
  644POPC   C3B 7727  10.091  10.932   7.541 -0.0037 -0.0309 -0.2732
  644POPC   C4B 7728  10.190  11.331   7.572  0.0884  0.1540  0.1103
  645POPC   NC3 7729  12.942   7.418   6.034  0.0679 -0.1439 -0.2100
  645POPC   PO4 7730  13.118   7.493   6.405  0.1994  0.1632 -0.1163
  645POPC   GL1 7731  13.280   7.601   6.734 -0.1399  0.0798 -0.2383
  645POPC   GL2 7732  13.011   7.595   6.899  0.0285 -0.1374 -0.0375
  645POPC   C1A 7733  13.529   7.619   7.141  0.0166 -0.0067  0.1954
  645POPC   D2A 7734  13.724   7.673   7.591 -0.2349  0.1626 -0.2397
  645POPC   C3A 7735  14.048   7.324   7.707 -0.1798 -0.2687  0.0732
  645POPC   C4A 7736  14.339   7.111   7.351  0.5212  0.3884 -0.1129
  645POPC   C1B 7737  12.843   7.828   7.256  0.0872 -0.0244  0.0078
  645POPC   C2B 7738  13.034   7.854   7.690  0.2189  0.2507  0.1878
  645POPC   C3B 7739  13.378   7.851   8.036  0.2396  0.2494  0.0875
  645POPC   C4B 7740  13.547   7.686   8.402  0.1881 -0.1359  0.1772
  646POPC   NC3 7741   1.449   2.982   4.758 -0.1954  0.0396  0.0479
  646POPC   PO4 7742   1.808   2.982   4.876  0.0136  0.3295  0.1749
  646POPC   GL1 7743   2.002   3.140   5.207  0.0153 -0.2776  0.0905
  646POPC   GL2 7744   2.297   3.257   5.166  0.0228 -0.2172 -0.0258
  646POPC   C1A 7745   1.922   3.243   5.657  0.1074  0.0930 -0.0539
  646POPC   D2A 7746   2.202   3.091   5.985  0.2273 -0.0609 -0.0031
  646POPC   C3A 7747   2.354   2.718   6.191  0.2029  0.1130 -0.4569
  646POPC   C4A 7748   2.491   2.630   6.600  0.1853  0.2635  0.1767
  646POPC   C1B 7749   2.470   3.118   5.528 -0.2231  0.0660  0.4287
  646POPC   C2B 7750   2.607   2.765   5.798  0.3498  0.2567  0.0490
  646POPC   C3B 7751   2.779   2.482   6.125 -0.0759  0.0526 -0.2323
  646POPC   C4B 7752   2.653   2.142   6.406  0.1655  0.1056 -0.2247
  647POPC   NC3 7753  16.110  14.962   4.178 -0.0513 -0.2782 -0.2036
  647POPC   PO4 7754  16.165  14.623   4.325 -0.3554 -0.2287 -0.1441
  647POPC   GL1 7755  16.216  14.541   4.699  0.0534  0.0108  0.2903
  647POPC   GL2 7756  16.336  14.287   4.716 -0.0615  0.0714 -0.1146
  647POPC   C1A 7757  16.230  14.557   5.142  0.1148 -0.1783 -0.1777
  647POPC   D2A 7758  16.364  14.691   5.571 -0.3345 -0.0752 -0.3300
  647POPC   C3A 7759  16.612  14.427   5.792 -0.2965 -0.2282 -0.1504
  647POPC   C4A 7760  16.901  14.118   5.632 -0.0169  0.1713  0.0342
  647POPC   C1B 7761  16.650  14.057   4.939 -0.0223  0.0794 -0.0846
  647POPC   C2B 7762  16.586  13.924   5.357  0.2205 -0.3396 -0.0190
  647POPC   C3B 7763  16.477  13.980   5.823  0.2557 -0.0264  0.3292
  647POPC   C4B 7764  16.721  14.061   6.187 -0.0005 -0.1058 -0.1189
  648POPC   NC3 7765   5.041  15.580   4.561  0.0489 -0.5371  0.3290
  648POPC   PO4 7766   4.753  15.825   4.641 -0.1121 -0.0498 -0.1391
  648POPC   GL1 7767   4.658  15.573   4.944 -0.1477 -0.2814  0.3277
  648POPC   GL2 7768   4.448  15.727   5.037 -0.0670  0.3024  0.1970
  648POPC   C1A 7769   4.836  15.615   5.359 -0.1240  0.4430  0.0083
  648POPC   D2A 7770   4.596  15.458   5.663  0.0455 -0.4265 -0.0973
  648POPC   C3A 7771   4.194  15.493   5.752  0.1264 -0.0848 -0.0232
  648POPC   C4A 7772   3.748  15.303   5.898 -0.2783  0.1800  0.2828
  648POPC   C1B 7773   4.099  15.653   5.229  0.0133 -0.1194  0.2075
  648POPC   C2B 7774   3.710  15.628   5.410  0.2319  0.0034  0.1222
  648POPC   C3B 7775   3.293  15.692   5.591 -0.0357 -0.0111  0.0719
  648POPC   C4B 7776   2.912  15.958   5.435  0.1603  0.0358  0.1042
  649POPC   NC3 7777   9.289   7.280   8.376  0.0329  0.2127 -0.2655
  649POPC   PO4 7778   9.045   7.437   8.649 -0.1463  0.0160 -0.0799
  649POPC   GL1 7779   9.087   7.772   8.878  0.0790 -0.3629  0.0718
  649POPC   GL2 7780   8.935   7.717   9.135  0.2090  0.1806  0.0970
  649POPC   C1A 7781   8.985   8.186   8.628 -0.1018 -0.0342  0.1623
  649POPC   D2A 7782   8.837   8.621   8.494  0.0855 -0.0137 -0.2902
  649POPC   C3A 7783   8.823   9.048   8.630  0.0551  0.1473  0.0544
  649POPC   C4A 7784   8.839   9.382   9.002 -0.0870  0.2031  0.1371
  649POPC   C1B 7785   9.122   8.138   9.164 -0.5836  0.0187  0.2747
  649POPC   C2B 7786   9.261   8.563   9.204 -0.1091 -0.3320  0.1072
  649POPC   C3B 7787   9.256   8.926   8.890 -0.1697  0.0596  0.1304
  649POPC   C4B 7788   9.276   9.387   8.812 -0.0228 -0.0273 -0.0838
  650POPC   NC3 7789   8.008   5.358   9.904  0.2062 -0.0365 -0.6199
  650POPC   PO4 7790   8.334   5.112  10.025 -0.0109 -0.0705  0.3448
  650POPC   GL1 7791   8.082   4.978  10.313 -0.0421 -0.0213  0.1568
  650POPC   GL2 7792   7.806   4.879  10.167 -0.1311  0.2718  0.3642
  650POPC   C1A 7793   7.802   4.993  10.658  0.2968  0.1188  0.0810
  650POPC   D2A 7794   7.461   4.886  10.944 -0.0613 -0.1973  0.3249
  650POPC   C3A 7795   7.178   4.702  11.226  0.3330 -0.1580  0.2223
  650POPC   C4A 7796   6.904   4.406  11.518 -0.0156 -0.0647  0.0785
  650POPC   C1B 7797   7.327   4.886  10.136 -0.0573 -0.0799  0.0331
  650POPC   C2B 7798   6.877   4.954  10.232 -0.2375 -0.3352  0.0369
  650POPC   C3B 7799   6.384   5.033  10.082 -0.1045 -0.3490 -0.0604
  650POPC   C4B 7800   6.072   5.273  10.183  0.1402  0.3322 -0.1401
  651POPC   NC3 7801   5.785   2.318   5.777  0.2024  0.2452 -0.0709
  651POPC   PO4 7802   5.391   2.409   5.730  0.1479  0.1225  0.1073
  651POPC   GL1 7803   5.369   2.235   6.054  0.2962  0.0420 -0.2555
  651POPC   GL2 7804   5.348   1.961   5.956 -0.1034 -0.1849 -0.1512
  651POPC   C1A 7805   5.409   2.082   6.499 -0.1220 -0.2036  0.0341
  651POPC   D2A 7806   5.385   1.877   6.974  0.2261  0.0332  0.2558
  651POPC   C3A 7807   5.184   1.505   7.147  0.1564  0.0902 -0.0183
  651POPC   C4A 7808   4.738   1.395   7.043 -0.3145  0.0393 -0.0815
  651POPC   C1B 7809   4.951   2.021   6.247 -0.3053  0.1295  0.0028
  651POPC   C2B 7810   4.620   2.060   6.562 -0.2192  0.2701 -0.2040
  651POPC   C3B 7811   4.338   2.059   6.906  0.1315  0.2252  0.1542
  651POPC   C4B 7812   3.907   2.175   6.939  0.0027 -0.0689 -0.0709
  652POPC   NC3 7813  10.087   8.076   7.734  0.1246  0.2579 -0.1144
  652POPC   PO4 7814  10.308   7.795   7.851 -0.4152 -0.0494 -0.0762
  652POPC   GL1 7815  10.301   7.816   8.259 -0.4087 -0.0280 -0.1020
  652POPC   GL2 7816  10.332   7.652   8.503 -0.0276 -0.1347  0.0269
  652POPC   C1A 7817  10.496   8.202   8.439  0.2085 -0.0402 -0.1324
  652POPC   D2A 7818  10.637   8.682   8.342  0.0068  0.2468  0.2130
  652POPC   C3A 7819  10.850   8.770   8.781  0.1085  0.1077  0.3163
  652POPC   C4A 7820  10.846   8.962   9.187 -0.2101  0.1674  0.2394
  652POPC   C1B 7821  10.326   7.669   9.035  0.0862 -0.2274  0.1530
  652POPC   C2B 7822  10.213   7.943   9.360  0.0500 -0.0976 -0.0720
  652POPC   C3B 7823  10.128   8.300   9.600  0.3348  0.0166 -0.0513
  652POPC   C4B 7824  10.080   8.709   9.895  0.0856 -0.0799 -0.1426
  653POPC   NC3 7825   8.095   6.414   8.797 -0.1540  0.0525  0.1141
  653POPC   PO4 7826   8.404   6.569   9.035  0.0694 -0.0467  0.2760
  653POPC   GL1 7827   8.349   6.892   9.231  0.2087 -0.0416  0.3503
  653POPC   GL2 7828   8.138   7.044   9.036  0.0508  0.0675 -0.1253
  653POPC   C1A 7829   8.483   6.952   9.697 -0.0636 -0.0741  0.1596
  653POPC   D2A 7830   8.713   6.900  10.113 -0.0396 -0.0601 -0.0414
  653POPC   C3A 7831   8.401   7.190  10.342 -0.1734 -0.0523 -0.0286
  653POPC   C4A 7832   8.130   7.372  10.711 -0.0010  0.3075  0.1319
  653POPC   C1B 7833   8.126   7.194   9.476  0.2549  0.2263 -0.0442
  653POPC   C2B 7834   8.039   7.066   9.921 -0.1094 -0.1191 -0.2016
  653POPC   C3B 7835   7.839   7.139  10.307 -0.0200  0.0743  0.2051
  653POPC   C4B 7836   7.612   7.185  10.736 -0.2210  0.1191  0.0499
  654POPC   NC3 7837  12.867   0.663   4.387 -0.0662 -0.2276  0.3406
  654POPC   PO4 7838  13.043   0.830   4.687  0.0518  0.0971 -0.0432
  654POPC   GL1 7839  13.096   0.539   4.956  0.1112  0.3250  0.0766
  654POPC   GL2 7840  12.970   0.392   5.160 -0.0485  0.3233  0.0185
  654POPC   C1A 7841  13.289   0.775   5.337  0.1175 -0.2798  0.2218
  654POPC   D2A 7842  13.263   0.874   5.767  0.3375  0.0885  0.0782
  654POPC   C3A 7843  13.247   0.743   6.211 -0.0300 -0.0863 -0.1278
  654POPC   C4A 7844  13.327   0.463   6.609  0.0671  0.0872  0.1958
  654POPC   C1B 7845  12.910   0.397   5.582  0.2533  0.0281  0.0106
  654POPC   C2B 7846  12.808   0.596   6.066 -0.1549 -0.2491 -0.0401
  654POPC   C3B 7847  12.799   0.692   6.553 -0.1639 -0.0663  0.1364
  654POPC   C4B 7848  12.680   0.789   6.978 -0.1918 -0.1591 -0.6314
  655POPC   NC3 7849   4.893  15.008   3.873 -0.1769 -0.0849 -0.1064
  655POPC   PO4 7850   5.030  15.062   4.243  0.0841 -0.2116 -0.0298
  655POPC   GL1 7851   4.800  15.120   4.659 -0.1736  0.2025 -0.1462
  655POPC   GL2 7852   4.693  14.877   4.714 -0.2443 -0.0104 -0.0896
  655POPC   C1A 7853   4.972  15.256   5.039  0.1775 -0.2050 -0.0746
  655POPC   D2A 7854   5.001  15.161   5.505  0.2153 -0.6353 -0.0907
  655POPC   C3A 7855   5.049  15.419   5.905 -0.0197  0.2604  0.0301
  655POPC   C4A 7856   4.939  15.622   6.296 -0.2576  0.2826 -0.0831
  655POPC   C1B 7857   4.920  14.713   5.115  0.1516  0.1789 -0.1373
  655POPC   C2B 7858   5.104  14.670   5.565 -0.0200  0.1234 -0.2684
  655POPC   C3B 7859   5.162  14.971   5.910  0.0668  0.0587  0.0693
  655POPC   C4B 7860   5.023  15.036   6.366 -0.3509 -0.2049 -0.0603
  656POPC   NC3 7861  12.223   0.470   5.054 -0.3711 -0.1975 -0.2340
  656POPC   PO4 7862  12.202   0.848   4.923  0.2761 -0.1052 -0.1833
  656POPC   GL1 7863  11.972   0.837   5.354  0.3496 -0.3290  0.2436
  656POPC   GL2 7864  12.195   1.020   5.454 -0.0630  0.0804  0.1147
  656POPC   C1A 7865  11.778   0.452   5.502 -0.0137 -0.2265 -0.1416
  656POPC   D2A 7866  11.571   0.094   5.735 -0.0601  0.1565  0.2236
  656POPC   C3A 7867  11.879  -0.222   5.706 -0.2231 -0.0583 -0.0916
  656POPC   C4A 7868  12.041  -0.646   5.791 -0.1741 -0.3057  0.1567
  656POPC   C1B 7869  12.322   0.598   5.577 -0.0223 -0.2026  0.0437
  656POPC   C2B 7870  12.438   0.264   5.869 -0.3531 -0.1887 -0.0461
  656POPC   C3B 7871  12.255  -0.073   6.099 -0.1698  0.3566 -0.0284
  656POPC   C4B 7872  12.184  -0.454   6.320 -0.1502 -0.3617  0.1249
  657POPC   NC3 7873   1.352   8.164   4.773  0.1802 -0.1605 -0.0726
  657POPC   PO4 7874   1.349   8.472   5.046  0.0839 -0.0734  0.1539
  657POPC   GL1 7875   1.457   8.781   5.201 -0.4324 -0.0530 -0.1760
  657POPC   GL2 7876   1.239   9.025   5.364 -0.0605  0.0649 -0.3638
  657POPC   C1A 7877   1.691   8.756   5.597  0.1570  0.2052 -0.2231
  657POPC   D2A 7878   2.040   8.604   5.862 -0.1348 -0.2577 -0.2021
  657POPC   C3A 7879   2.065   8.444   6.345  0.1576 -0.2498  0.0054
  657POPC   C4A 7880   1.846   8.494   6.776 -0.1085  0.0227  0.2170
  657POPC   C1B 7881   1.155   8.662   5.686  0.1579 -0.1897 -0.4630
  657POPC   C2B 7882   0.850   8.670   6.066  0.0911  0.0122  0.0960
  657POPC   C3B 7883   0.665   9.001   6.314  0.0994 -0.2517  0.0666
  657POPC   C4B 7884   0.603   9.326   6.643  0.1297 -0.2104 -0.1258
  658POPC   NC3 7885   9.869   2.600   5.878 -0.1030 -0.1744 -0.1960
  658POPC   PO4 7886   9.668   2.828   6.164  0.0503  0.0311 -0.2042
  658POPC   GL1 7887   9.540   2.501   6.419 -0.4175 -0.1314 -0.3779
  658POPC   GL2 7888   9.643   2.394   6.679 -0.0152  0.1513  0.2847
  658POPC   C1A 7889   9.169   2.209   6.345  0.2555  0.0225  0.1612
  658POPC   D2A 7890   8.777   1.946   6.518 -0.3887 -0.0910 -0.0333
  658POPC   C3A 7891   8.808   1.566   6.757  0.1740 -0.0753 -0.1434
  658POPC   C4A 7892   9.091   1.359   7.092  0.3396  0.0187 -0.0541
  658POPC   C1B 7893   9.859   2.157   7.073 -0.1211 -0.1656 -0.0854
  658POPC   C2B 7894  10.062   2.197   7.509 -0.2475 -0.0853 -0.1531
  658POPC   C3B 7895  10.220   1.791   7.765 -0.2018 -0.0031 -0.2732
  658POPC   C4B 7896  10.284   1.373   7.939 -0.0245 -0.2456  0.2209
  659POPC   NC3 7897   2.683   6.605   5.438 -0.1568  0.1742 -0.2176
  659POPC   PO4 7898   2.825   6.242   5.429  0.1557  0.2388 -0.3905
  659POPC   GL1 7899   2.741   6.255   5.841  0.0723  0.0085  0.3557
  659POPC   GL2 7900   2.924   6.576   5.889 -0.0885  0.3451  0.2112
  659POPC   C1A 7901   3.073   6.047   6.101  0.0996 -0.1165 -0.3154
  659POPC   D2A 7902   3.335   6.086   6.562  0.2089  0.1124  0.2203
  659POPC   C3A 7903   3.455   5.811   6.868  0.1005 -0.0321 -0.0272
  659POPC   C4A 7904   3.285   5.555   7.228  0.3372 -0.2901 -0.0061
  659POPC   C1B 7905   2.801   6.443   6.322  0.4244 -0.1638  0.1541
  659POPC   C2B 7906   2.670   6.183   6.706 -0.0625 -0.0266 -0.2088
  659POPC   C3B 7907   2.386   5.829   6.816 -0.2197  0.1212  0.0181
  659POPC   C4B 7908   2.030   5.757   7.135  0.1228 -0.0458  0.0960
  660POPC   NC3 7909   1.852   6.810   5.590 -0.0590  0.0476 -0.3654
  660POPC   PO4 7910   2.182   6.688   5.407  0.0774 -0.0243 -0.0097
  660POPC   GL1 7911   2.288   6.699   5.845  0.2227  0.1291 -0.0794
  660POPC   GL2 7912   2.348   6.448   6.003 -0.2236 -0.3993  0.3619
  660POPC   C1A 7913   2.600   6.916   6.086 -0.4285  0.3128  0.2073
  660POPC   D2A 7914   2.851   6.935   6.473  0.0095  0.3097 -0.0402
  660POPC   C3A 7915   2.988   7.177   6.871 -0.0879  0.1615 -0.0667
  660POPC   C4A 7916   3.343   7.451   6.923  0.0317 -0.1009 -0.2498
  660POPC   C1B 7917   2.342   6.585   6.444 -0.0939  0.1153 -0.0081
  660POPC   C2B 7918   2.284   6.518   6.954  0.3732  0.2310 -0.0011
  660POPC   C3B 7919   2.256   6.764   7.313  0.0269 -0.1147 -0.1231
  660POPC   C4B 7920   2.221   7.244   7.400  0.1072  0.1714 -0.0347
  661POPC   NC3 7921  11.146   9.185   6.993  0.0604  0.0711  0.0071
  661POPC   PO4 7922  11.256   8.793   6.931  0.0673  0.0447  0.1235
  661POPC   GL1 7923  11.368   8.706   7.345 -0.5340 -0.1137  0.0783
  661POPC   GL2 7924  11.692   8.828   7.287  0.2331  0.0799  0.0636
  661POPC   C1A 7925  11.153   8.765   7.773 -0.1138 -0.0017 -0.1795
  661POPC   D2A 7926  11.107   8.762   8.198  0.0022  0.0136  0.1680
  661POPC   C3A 7927  11.233   9.030   8.599  0.1216  0.2389  0.0808
  661POPC   C4A 7928  11.193   9.320   8.946  0.3609  0.1695  0.0789
  661POPC   C1B 7929  11.490   9.187   7.484 -0.0710  0.2306 -0.0786
  661POPC   C2B 7930  11.171   9.252   7.887  0.3144  0.0731 -0.1044
  661POPC   C3B 7931  10.966   9.608   8.075 -0.0071 -0.1898  0.2594
  661POPC   C4B 7932  10.967   9.624   8.552  0.0302  0.0921 -0.2202
  662POPC   NC3 7933  12.034  11.519   5.058 -0.0114 -0.1845 -0.0426
  662POPC   PO4 7934  12.179  11.189   5.212 -0.2960 -0.1720 -0.3215
  662POPC   GL1 7935  12.470  11.260   5.482  0.0135  0.1826 -0.0888
  662POPC   GL2 7936  12.478  11.575   5.315 -0.0019 -0.2006  0.0871
  662POPC   C1A 7937  12.379  11.366   5.928  0.0850 -0.2378 -0.0253
  662POPC   D2A 7938  12.491  11.683   6.249  0.0190  0.1093 -0.3232
  662POPC   C3A 7939  12.647  11.499   6.653  0.1246  0.2823 -0.0385
  662POPC   C4A 7940  13.003  11.637   6.897 -0.0978  0.2369  0.0664
  662POPC   C1B 7941  12.778  11.617   5.678 -0.1514 -0.4228  0.2347
  662POPC   C2B 7942  12.978  11.796   6.064  0.0890  0.0974 -0.0112
  662POPC   C3B 7943  13.132  11.861   6.464 -0.1971 -0.3793  0.2440
  662POPC   C4B 7944  13.499  11.634   6.728  0.1777 -0.0819 -0.2656
  663POPC   NC3 7945  11.686  13.558   4.635 -0.1701 -0.0823  0.0734
  663POPC   PO4 7946  11.897  13.206   4.476 -0.0432 -0.0690 -0.1475
  663POPC   GL1 7947  11.952  13.270   4.811  0.3542  0.1490 -0.1395
  663POPC   GL2 7948  12.232  13.209   4.994 -0.2353  0.2730  0.1082
  663POPC   C1A 7949  11.970  13.609   5.108  0.1507 -0.1158  0.1208
  663POPC   D2A 7950  11.755  13.699   5.564 -0.0853  0.1754  0.0309
  663POPC   C3A 7951  11.740  13.542   5.966  0.1713 -0.4313 -0.3226
  663POPC   C4A 7952  12.005  13.271   6.313 -0.1302  0.1718 -0.0675
  663POPC   C1B 7953  12.117  13.273   5.486 -0.1792 -0.4843  0.0018
  663POPC   C2B 7954  12.216  13.478   5.850 -0.0277 -0.2512 -0.2205
  663POPC   C3B 7955  12.173  13.760   6.177  0.1010 -0.0849 -0.0645
  663POPC   C4B 7956  12.061  13.905   6.569  0.2241 -0.2792 -0.0755
  664POPC   NC3 7957   8.089   7.587   7.585  0.0208  0.1734 -0.2755
  664POPC   PO4 7958   7.710   7.435   7.443  0.1335 -0.0365  0.0861
  664POPC   GL1 7959   7.599   7.550   7.760 -0.0934 -0.1924  0.2176
  664POPC   GL2 7960   7.317   7.500   7.765  0.1475  0.0649  0.1127
  664POPC   C1A 7961   7.567   7.977   8.009  0.3460  0.0587  0.0746
  664POPC   D2A 7962   7.391   8.278   8.271  0.2389  0.2497  0.0769
  664POPC   C3A 7963   7.229   8.074   8.714 -0.0497  0.0205  0.1229
  664POPC   C4A 7964   7.116   7.983   9.195 -0.3804  0.1566  0.1010
  664POPC   C1B 7965   7.108   7.770   8.116 -0.3246 -0.1035 -0.2887
  664POPC   C2B 7966   6.875   8.054   8.256 -0.1483 -0.0473  0.3754
  664POPC   C3B 7967   6.786   8.484   8.520  0.1109  0.1854 -0.0916
  664POPC   C4B 7968   6.456   8.805   8.738  0.1811 -0.0579  0.1035
  665POPC   NC3 7969   8.175  15.168   4.552 -0.1662  0.1308  0.1665
  665POPC   PO4 7970   8.463  15.379   4.687  0.2743  0.0008 -0.0498
  665POPC   GL1 7971   8.466  15.055   4.950  0.2292 -0.2906  0.4552
  665POPC   GL2 7972   8.234  14.975   5.007  0.1680 -0.3503  0.3849
  665POPC   C1A 7973   8.633  15.002   5.382  0.3164  0.1517  0.0995
  665POPC   D2A 7974   8.488  15.325   5.721 -0.1336 -0.1949 -0.1996
  665POPC   C3A 7975   8.105  15.351   5.959 -0.0581  0.0665  0.2667
  665POPC   C4A 7976   7.677  15.230   5.967 -0.0112  0.1013 -0.2772
  665POPC   C1B 7977   8.188  15.191   5.393  0.0940  0.1917  0.3629
  665POPC   C2B 7978   7.814  15.401   5.514 -0.0913 -0.1265 -0.1155
  665POPC   C3B 7979   7.428  15.568   5.726  0.2265 -0.2848 -0.0250
  665POPC   C4B 7980   6.997  15.505   5.774 -0.1142  0.1765 -0.0526
  666POPC   NC3 7981  16.162  11.158   4.393 -0.0800  0.1237 -0.1187
  666POPC   PO4 7982  15.960  10.939   4.644  0.0304  0.1536 -0.0181
  666POPC   GL1 7983  15.917  10.825   5.057  0.2573  0.1066 -0.2997
  666POPC   GL2 7984  15.941  10.528   5.221 -0.0032 -0.1685 -0.0465
  666POPC   C1A 7985  16.245  10.916   5.397 -0.2609 -0.1584 -0.1059
  666POPC   D2A 7986  16.503  10.952   5.781  0.1947  0.3439 -0.2322
  666POPC   C3A 7987  16.682  10.852   6.201  0.1412  0.0344  0.2564
  666POPC   C4A 7988  16.985  10.952   6.513  0.0415  0.0242 -0.1663
  666POPC   C1B 7989  15.712  10.635   5.650 -0.1707  0.1319  0.1380
  666POPC   C2B 7990  15.603  10.688   6.113 -0.1467 -0.0762 -0.0372
  666POPC   C3B 7991  15.437  10.802   6.539  0.1234 -0.0735 -0.0877
  666POPC   C4B 7992  15.573  10.420   6.828  0.0142 -0.2871  0.2073
  667POPC   NC3 7993   6.593  11.995   4.712  0.1960 -0.0029  0.0698
  667POPC   PO4 7994   6.733  11.675   4.824  0.1090  0.0672 -0.0479
  667POPC   GL1 7995   6.766  11.795   5.249 -0.3040  0.0202  0.0897
  667POPC   GL2 7996   6.932  11.953   5.288 -0.0276 -0.3402 -0.1164
  667POPC   C1A 7997   6.765  11.440   5.661  0.0154 -0.0515  0.0189
  667POPC   D2A 7998   6.923  11.527   6.103 -0.0943 -0.1864  0.0256
  667POPC   C3A 7999   6.571  11.558   6.363 -0.1246  0.5500  0.1245
  667POPC   C4A 8000   6.256  11.597   6.695 -0.2503  0.1970  0.0577
  667POPC   C1B 8001   6.992  11.903   5.734  0.3697  0.0348 -0.1923
  667POPC   C2B 8002   6.871  12.138   6.114 -0.1724 -0.2880 -0.1578
  667POPC   C3B 8003   6.909  12.294   6.524 -0.2708 -0.0896  0.2255
  667POPC   C4B 8004   6.906  12.336   7.023 -0.0544  0.2082 -0.1237
  668POPC   NC3 8005  11.350   9.321   5.773 -0.2611 -0.1170 -0.0134
  668POPC   PO4 8006  11.202   9.278   6.131 -0.1583 -0.1086 -0.1156
  668POPC   GL1 8007  11.192   9.553   6.373  0.0766 -0.0861 -0.0026
  668POPC   GL2 8008  10.990   9.545   6.584 -0.1498  0.0011  0.1364
  668POPC   C1A 8009  11.580   9.779   6.474  0.0207 -0.2505 -0.2165
  668POPC   D2A 8010  11.984   9.725   6.670  0.3241 -0.4153 -0.2922
  668POPC   C3A 8011  11.763   9.972   6.992 -0.2618 -0.1653  0.0201
  668POPC   C4A 8012  11.657  10.273   7.364 -0.2928  0.2992  0.0265
  668POPC   C1B 8013  10.800   9.688   6.953 -0.0230  0.0571  0.2070
  668POPC   C2B 8014  10.701   9.933   7.373  0.0513  0.0701  0.0434
  668POPC   C3B 8015  10.842  10.023   7.793 -0.0614  0.0129  0.0995
  668POPC   C4B 8016  10.807  10.058   8.251 -0.2877  0.0335 -0.1602
  669POPC   NC3 8017  11.236   5.257   9.208  0.0120 -0.2578  0.1092
  669POPC   PO4 8018  10.870   5.300   9.178 -0.1625 -0.1720 -0.0294
  669POPC   GL1 8019  10.917   4.948   9.366  0.0141  0.0965 -0.1124
  669POPC   GL2 8020  10.735   4.753   9.223  0.1739  0.1755 -0.0311
  669POPC   C1A 8021  11.350   4.768   9.428  0.0352  0.1878  0.2479
  669POPC   D2A 8022  11.569   4.383   9.241  0.3138  0.3272  0.1591
  669POPC   C3A 8023  11.578   3.903   9.265 -0.1623 -0.1438 -0.4393
  669POPC   C4A 8024  11.614   3.472   9.282 -0.3009  0.1251  0.3731
  669POPC   C1B 8025  11.037   4.448   9.096 -0.1514  0.0673  0.1350
  669POPC   C2B 8026  11.072   3.989   9.075 -0.2312 -0.0123 -0.0979
  669POPC   C3B 8027  11.144   3.524   9.041  0.0350  0.0949 -0.0073
  669POPC   C4B 8028  11.283   3.229   8.738 -0.1240 -0.0802 -0.1570
  670POPC   NC3 8029   7.430   3.781   7.488  0.2074  0.4133 -0.0448
  670POPC   PO4 8030   7.785   3.617   7.393  0.3753 -0.2286  0.0516
  670POPC   GL1 8031   7.747   3.587   7.784  0.2337 -0.1427 -0.5101
  670POPC   GL2 8032   7.763   3.894   7.890 -0.1646  0.3889  0.0129
  670POPC   C1A 8033   7.322   3.460   8.002  0.1768 -0.0950 -0.1912
  670POPC   D2A 8034   6.982   3.238   8.151  0.0185  0.0900 -0.4020
  670POPC   C3A 8035   6.781   2.867   8.392 -0.1342 -0.3363  0.0702
  670POPC   C4A 8036   6.388   2.796   8.545  0.0733  0.1852  0.0280
  670POPC   C1B 8037   7.317   3.948   8.082 -0.1456  0.1983  0.2366
  670POPC   C2B 8038   7.040   3.799   8.392 -0.0050  0.0545 -0.0775
  670POPC   C3B 8039   6.633   3.579   8.331 -0.1335 -0.1250 -0.3144
  670POPC   C4B 8040   6.353   3.401   8.585 -0.0802  0.3005  0.1782
  671POPC   NC3 8041  10.833   5.120  10.208  0.1500 -0.1658  0.0920
  671POPC   PO4 8042  10.602   4.868  10.388 -0.1259 -0.5096 -0.1913
  671POPC   GL1 8043  10.796   4.629  10.639 -0.1267  0.0499  0.3918
  671POPC   GL2 8044  10.982   4.535  10.406 -0.3341 -0.0858  0.0820
  671POPC   C1A 8045  11.001   4.238  10.896 -0.2213 -0.0617 -0.3906
  671POPC   D2A 8046  11.023   3.804  10.920 -0.2404 -0.0079 -0.0563
  671POPC   C3A 8047  10.641   3.598  10.877  0.1371 -0.1275 -0.3006
  671POPC   C4A 8048  10.375   3.251  11.097 -0.0575 -0.1834 -0.2153
  671POPC   C1B 8049  10.676   4.171  10.461 -0.1960  0.0023 -0.0032
  671POPC   C2B 8050  10.510   3.750  10.441  0.3796  0.1043  0.2218
  671POPC   C3B 8051  10.341   3.504  10.081  0.1581 -0.2431 -0.0161
  671POPC   C4B 8052  10.413   3.455   9.617 -0.1291 -0.1676  0.3665
  672POPC   NC3 8053  10.399   2.384   6.494 -0.2929 -0.0934 -0.0008
  672POPC   PO4 8054  10.031   2.470   6.327  0.2443 -0.2786 -0.1640
  672POPC   GL1 8055  10.019   2.177   6.692 -0.4353  0.2687  0.1580
  672POPC   GL2 8056  10.103   1.871   6.636  0.0244 -0.4056  0.1247
  672POPC   C1A 8057  10.395   2.079   6.989 -0.1653  0.1497 -0.1163
  672POPC   D2A 8058  10.485   1.968   7.398  0.3795 -0.1239 -0.0828
  672POPC   C3A 8059  10.368   1.504   7.384  0.3707 -0.2102  0.0685
  672POPC   C4A 8060  10.306   1.055   7.446  0.1778 -0.3527  0.1997
  672POPC   C1B 8061   9.698   1.764   6.874  0.0235  0.3189 -0.0696
  672POPC   C2B 8062   9.613   1.611   7.260  0.1211 -0.0390 -0.2137
  672POPC   C3B 8063   9.778   1.671   7.671 -0.1709 -0.3039 -0.4118
  672POPC   C4B 8064   9.835   1.860   8.110  0.0918 -0.0153 -0.0554
  673POPC   NC3 8065   6.287   3.672   6.501 -0.1168  0.1217  0.1014
  673POPC   PO4 8066   6.594   3.437   6.581  0.0445 -0.0308  0.2222
  673POPC   GL1 8067   6.385   3.073   6.507 -0.3363  0.2114  0.3749
  673POPC   GL2 8068   6.252   3.136   6.795  0.1868  0.2041  0.3400
  673POPC   C1A 8069   6.127   2.667   6.626 -0.2752  0.4596  0.0010
  673POPC   D2A 8070   5.814   2.632   6.937 -0.0337  0.0980  0.0197
  673POPC   C3A 8071   5.442   2.452   6.811 -0.0038 -0.0119  0.0482
  673POPC   C4A 8072   5.015   2.306   6.749  0.0089  0.0377 -0.1753
  673POPC   C1B 8073   6.187   2.865   7.173  0.1387 -0.2422  0.1824
  673POPC   C2B 8074   5.821   2.755   7.554 -0.0268 -0.1078  0.0157
  673POPC   C3B 8075   5.441   2.589   7.336  0.3304 -0.4258  0.0636
  673POPC   C4B 8076   5.129   2.245   7.246  0.1277 -0.0698  0.1034
  674POPC   NC3 8077  14.664   0.154   4.941 -0.3471 -0.0221 -0.1104
  674POPC   PO4 8078  14.950   0.298   4.682 -0.2084  0.4005 -0.3981
  674POPC   GL1 8079  15.338   0.126   4.885 -0.4123 -0.1586  0.1440
  674POPC   GL2 8080  15.143  -0.033   5.005 -0.0225 -0.0536  0.0151
  674POPC   C1A 8081  15.519   0.230   5.278 -0.0564  0.2931 -0.1260
  674POPC   D2A 8082  15.604  -0.110   5.617  0.1099  0.0971 -0.3326
  674POPC   C3A 8083  16.024  -0.073   5.850 -0.1537 -0.3615  0.0981
  674POPC   C4A 8084  16.301  -0.249   6.096  0.0074 -0.1849 -0.2783
  674POPC   C1B 8085  14.912   0.045   5.401 -0.0591  0.1453 -0.1313
  674POPC   C2B 8086  15.034  -0.057   5.884  0.0062  0.1265  0.0823
  674POPC   C3B 8087  15.119  -0.266   6.329  0.1450 -0.2475 -0.0865
  674POPC   C4B 8088  15.238  -0.583   6.578  0.1083  0.1266  0.2362
  675POPC   NC3 8089  15.800   9.160   4.857  0.1711  0.0414  0.1264
  675POPC   PO4 8090  16.199   9.147   4.898 -0.0598 -0.1100 -0.1134
  675POPC   GL1 8091  16.155   9.275   5.255  0.2506 -0.0282  0.1209
  675POPC   GL2 8092  16.332   9.452   5.371 -0.0541 -0.1403 -0.2167
  675POPC   C1A 8093  16.074   9.264   5.744 -0.1264 -0.1700 -0.0116
  675POPC   D2A 8094  16.175   9.116   6.146  0.1434  0.2705 -0.2191
  675POPC   C3A 8095  16.324   9.304   6.560  0.0707 -0.2938 -0.0495
  675POPC   C4A 8096  16.577   9.477   6.944  0.0785  0.2957 -0.1756
  675POPC   C1B 8097  16.517   9.720   5.721 -0.3140 -0.1853  0.0429
  675POPC   C2B 8098  16.632  10.135   5.852  0.1153  0.0939 -0.0552
  675POPC   C3B 8099  16.910  10.513   5.846  0.0905 -0.1666  0.2090
  675POPC   C4B 8100  17.371  10.564   5.781  0.1561 -0.0850 -0.1207
  676POPC   NC3 8101   4.432   1.613   4.912 -0.3787 -0.2804  0.0173
  676POPC   PO4 8102   4.649   1.306   4.979  0.0238  0.0651  0.1867
  676POPC   GL1 8103   4.614   1.090   5.238  0.1405 -0.4140  0.1444
  676POPC   GL2 8104   4.918   0.929   5.253 -0.0167 -0.0779 -0.3548
  676POPC   C1A 8105   4.799   1.287   5.650 -0.0062 -0.4247 -0.0431
  676POPC   D2A 8106   5.221   1.272   5.841  0.0623  0.0970 -0.2355
  676POPC   C3A 8107   5.192   1.017   6.261  0.3800 -0.0773  0.1230
  676POPC   C4A 8108   5.308   0.789   6.649 -0.0871  0.2391  0.0190
  676POPC   C1B 8109   4.950   0.854   5.732  0.1655  0.0418 -0.2390
  676POPC   C2B 8110   4.883   0.677   6.131  0.0012 -0.0681 -0.2288
  676POPC   C3B 8111   5.079   0.403   6.529 -0.1488 -0.0313  0.0437
  676POPC   C4B 8112   5.451   0.311   6.777  0.0249 -0.0130  0.0492
  677POPC   NC3 8113   2.055  10.737   3.890 -0.0206  0.0832  0.0046
  677POPC   PO4 8114   1.984  11.090   4.068 -0.1035  0.0556  0.1176
  677POPC   GL1 8115   1.776  11.092   4.362 -0.1857 -0.5053  0.2075
  677POPC   GL2 8116   2.036  11.176   4.530 -0.4054  0.2718 -0.1259
  677POPC   C1A 8117   1.619  11.028   4.823  0.2086  0.2154 -0.0981
  677POPC   D2A 8118   1.252  11.223   5.040 -0.4054  0.0147 -0.4935
  677POPC   C3A 8119   1.544  11.381   5.373  0.1872 -0.2710  0.0771
  677POPC   C4A 8120   1.481  11.465   5.775  0.2670 -0.0382  0.3634
  677POPC   C1B 8121   1.907  11.459   4.873 -0.4756 -0.0218 -0.0323
  677POPC   C2B 8122   1.994  11.765   5.203  0.1578 -0.0408  0.1573
  677POPC   C3B 8123   2.019  11.921   5.617  0.0086 -0.1404  0.1789
  677POPC   C4B 8124   1.959  12.130   5.982  0.3000  0.1303 -0.2185
  678POPC   NC3 8125   9.003   6.689  11.111 -0.0012 -0.0941  0.1757
  678POPC   PO4 8126   9.198   6.598  10.740  0.1284 -0.0102 -0.1435
  678POPC   GL1 8127   8.836   6.769  10.626 -0.3523  0.4559 -0.2202
  678POPC   GL2 8128   8.669   6.599  10.502 -0.0559 -0.0903  0.2652
  678POPC   C1A 8129   8.505   7.006  10.852  0.0420  0.0348 -0.0324
  678POPC   D2A 8130   8.318   7.251  11.144  0.0746 -0.0561 -0.1911
  678POPC   C3A 8131   8.232   7.257  11.613 -0.2077  0.0212 -0.1471
  678POPC   C4A 8132   8.188   7.656  11.820  0.0579  0.1942  0.0269
  678POPC   C1B 8133   8.233   6.698  10.510  0.3952 -0.0449 -0.1352
  678POPC   C2B 8134   7.765   6.757  10.559 -0.0079  0.2987 -0.0982
  678POPC   C3B 8135   7.422   6.666  10.827 -0.1126 -0.4690 -0.1138
  678POPC   C4B 8136   7.241   6.342  11.088  0.0540  0.1234 -0.0719
  679POPC   NC3 8137   3.853   3.166   5.036  0.0847 -0.2090 -0.0087
  679POPC   PO4 8138   3.912   3.270   5.439 -0.1339 -0.2090 -0.0302
  679POPC   GL1 8139   3.941   2.913   5.677  0.1093  0.0462  0.2793
  679POPC   GL2 8140   3.874   2.635   5.622  0.1631  0.2972 -0.0412
  679POPC   C1A 8141   4.189   2.946   6.079 -0.1335  0.1277  0.1185
  679POPC   D2A 8142   4.394   2.860   6.418 -0.3580 -0.1278  0.1160
  679POPC   C3A 8143   4.258   3.036   6.830  0.0319  0.1353 -0.0195
  679POPC   C4A 8144   4.036   3.179   7.188  0.0029 -0.1545 -0.3084
  679POPC   C1B 8145   3.860   2.549   6.081 -0.1421  0.0414  0.2270
  679POPC   C2B 8146   3.928   2.738   6.481  0.0150 -0.0105 -0.0782
  679POPC   C3B 8147   3.789   2.899   6.870 -0.0715  0.1294  0.0859
  679POPC   C4B 8148   3.580   2.957   7.312  0.3744  0.0087 -0.2345
  680POPC   NC3 8149  12.944  10.282   5.144  0.1500  0.2602 -0.0749
  680POPC   PO4 8150  13.100  10.613   5.261  0.2810  0.1711  0.2170
  680POPC   GL1 8151  13.345  10.703   5.547  0.3600  0.0063 -0.3569
  680POPC   GL2 8152  13.571  10.570   5.462 -0.3421  0.0430 -0.1662
  680POPC   C1A 8153  13.347  10.633   6.006 -0.1039 -0.3227  0.0039
  680POPC   D2A 8154  13.442  10.482   6.419 -0.1781 -0.2940  0.1763
  680POPC   C3A 8155  13.469  10.441   6.912 -0.0815  0.1193 -0.3883
  680POPC   C4A 8156  13.085  10.291   7.123 -0.3668  0.0467 -0.0393
  680POPC   C1B 8157  13.814  10.816   5.803  0.1259  0.1831  0.1210
  680POPC   C2B 8158  13.675  10.978   6.184 -0.2471  0.1028  0.2702
  680POPC   C3B 8159  13.488  11.002   6.620  0.5059 -0.0429  0.1844
  680POPC   C4B 8160  13.119  10.759   6.880 -0.1774 -0.0155  0.1782
  681POPC   NC3 8161   4.941  12.343   4.191 -0.0668  0.1163  0.1511
  681POPC   PO4 8162   5.166  11.989   4.264  0.1961  0.0672 -0.0228
  681POPC   GL1 8163   5.282  11.912   4.584 -0.0686 -0.5505  0.2789
  681POPC   GL2 8164   5.556  12.086   4.658  0.0275 -0.1081 -0.1159
  681POPC   C1A 8165   5.017  11.796   4.926 -0.3960  0.1471 -0.0092
  681POPC   D2A 8166   4.808  12.034   5.248 -0.2305 -0.1732  0.0901
  681POPC   C3A 8167   4.772  12.229   5.662  0.2606  0.0477  0.1733
  681POPC   C4A 8168   4.863  12.183   6.093 -0.0428  0.0628 -0.1934
  681POPC   C1B 8169   5.700  12.339   5.044  0.0390 -0.2086  0.3086
  681POPC   C2B 8170   5.624  12.520   5.436  0.0130  0.0598  0.1610
  681POPC   C3B 8171   5.774  12.650   5.840  0.1997 -0.2496 -0.0597
  681POPC   C4B 8172   6.135  12.829   6.091 -0.1896 -0.4043 -0.0150
  682POPC   NC3 8173   0.661   7.372   5.095 -0.0824 -0.0412  0.0173
  682POPC   PO4 8174   0.599   7.559   5.405 -0.2360  0.2716 -0.0317
  682POPC   GL1 8175   0.491   7.686   5.692 -0.3828  0.1878  0.1595
  682POPC   GL2 8176   0.221   7.844   5.644 -0.3571  0.1442  0.0136
  682POPC   C1A 8177   0.469   7.953   6.108  0.2694 -0.0194 -0.0944
  682POPC   D2A 8178   0.391   7.958   6.545 -0.1737 -0.0450  0.0825
  682POPC   C3A 8179   0.410   7.721   6.909  0.0229  0.1506 -0.4449
  682POPC   C4A 8180   0.356   7.382   7.246  0.4308 -0.0387 -0.1527
  682POPC   C1B 8181   0.167   7.530   5.967 -0.1553  0.0206 -0.0923
  682POPC   C2B 8182   0.098   7.496   6.423  0.1004 -0.0584 -0.1108
  682POPC   C3B 8183  -0.015   7.247   6.799 -0.0579  0.3084  0.0218
  682POPC   C4B 8184  -0.267   6.865   6.907 -0.1209 -0.0393 -0.2537
  683POPC   NC3 8185   1.459   1.220   4.615 -0.1929 -0.2075  0.1166
  683POPC   PO4 8186   1.510   1.576   4.509 -0.1345 -0.0237 -0.1878
  683POPC   GL1 8187   1.342   1.584   4.894 -0.2595 -0.3053 -0.1659
  683POPC   GL2 8188   1.133   1.372   4.977 -0.0327 -0.0561  0.0736
  683POPC   C1A 8189   1.339   1.718   5.365  0.1050 -0.1505  0.3263
  683POPC   D2A 8190   1.116   1.676   5.775 -0.2407 -0.1035  0.0460
  683POPC   C3A 8191   0.715   1.427   5.843 -0.0375 -0.2476 -0.3461
  683POPC   C4A 8192   0.586   1.018   6.038  0.0911 -0.1485  0.2306
  683POPC   C1B 8193   1.121   1.135   5.371 -0.0832 -0.0237 -0.1229
  683POPC   C2B 8194   1.243   1.208   5.814  0.1231  0.1197  0.1451
  683POPC   C3B 8195   1.057   1.267   6.254  0.0601 -0.1842 -0.1420
  683POPC   C4B 8196   1.142   1.003   6.620  0.2812 -0.4565  0.0953
  684POPC   NC3 8197   1.933   6.321   5.263  0.0397  0.0527 -0.0148
  684POPC   PO4 8198   1.602   6.218   5.245  0.3758  0.1713  0.0287
  684POPC   GL1 8199   1.529   6.429   5.590 -0.1830  0.3197 -0.1856
  684POPC   GL2 8200   1.291   6.244   5.668 -0.0222  0.1056 -0.0368
  684POPC   C1A 8201   1.556   6.670   6.005 -0.2957 -0.2893 -0.1572
  684POPC   D2A 8202   1.368   6.714   6.469 -0.4444 -0.1741  0.0002
  684POPC   C3A 8203   1.059   6.409   6.717  0.0915  0.0310  0.0321
  684POPC   C4A 8204   0.795   6.285   7.067  0.0015 -0.0125 -0.1418
  684POPC   C1B 8205   1.342   6.223   6.197  0.0200 -0.0686 -0.0838
  684POPC   C2B 8206   1.494   6.114   6.669  0.2917  0.0472 -0.0208
  684POPC   C3B 8207   1.348   6.145   7.131  0.1355  0.3448  0.0913
  684POPC   C4B 8208   1.393   5.857   7.460 -0.0047  0.0561  0.0460
  685POPC   NC3 8209  14.641   4.079   5.027 -0.0695 -0.0379 -0.2397
  685POPC   PO4 8210  14.861   3.806   5.199 -0.0109 -0.2212  0.0283
  685POPC   GL1 8211  14.804   3.829   5.548 -0.0503  0.0462 -0.0414
  685POPC   GL2 8212  14.935   3.876   5.781  0.2771 -0.0077 -0.2134
  685POPC   C1A 8213  14.484   3.705   5.879 -0.1275 -0.1634 -0.0676
  685POPC   D2A 8214  14.186   3.781   6.173  0.2164 -0.0799  0.3024
  685POPC   C3A 8215  14.431   3.978   6.524  0.0519 -0.2374 -0.2007
  685POPC   C4A 8216  14.570   4.216   6.875 -0.1600  0.0361 -0.1375
  685POPC   C1B 8217  14.826   3.859   6.219 -0.0195 -0.2062  0.2909
  685POPC   C2B 8218  14.881   3.667   6.652 -0.1124 -0.0020  0.1104
  685POPC   C3B 8219  14.971   3.469   7.119  0.1375 -0.0544  0.3273
  685POPC   C4B 8220  14.824   3.500   7.550  0.2113 -0.0054  0.2210
  686POPC   NC3 8221  11.894  16.629   4.597  0.0607 -0.2794 -0.1815
  686POPC   PO4 8222  12.263  16.645   4.722  0.1451 -0.3922 -0.0650
  686POPC   GL1 8223  12.516  16.621   5.035 -0.2972  0.0496  0.2364
  686POPC   GL2 8224  12.591  16.915   5.085  0.1844  0.1377 -0.0282
  686POPC   C1A 8225  12.675  16.435   5.448  0.1793 -0.1520  0.1943
  686POPC   D2A 8226  12.713  16.284   5.872 -0.0751  0.1497  0.0101
  686POPC   C3A 8227  12.602  16.065   6.252 -0.0604 -0.2824  0.0018
  686POPC   C4A 8228  12.414  16.009   6.689 -0.0781  0.0366  0.0567
  686POPC   C1B 8229  12.816  16.901   5.448  0.2435  0.1015 -0.2737
  686POPC   C2B 8230  13.087  16.791   5.807 -0.2546 -0.1186  0.1417
  686POPC   C3B 8231  13.359  16.701   6.151 -0.0628 -0.0469  0.0916
  686POPC   C4B 8232  13.508  16.317   6.348  0.1914 -0.0247  0.3032
  687POPC   NC3 8233  13.521  15.078   4.315  0.3468  0.2301 -0.0839
  687POPC   PO4 8234  13.779  14.866   4.177 -0.0046 -0.0179 -0.1823
  687POPC   GL1 8235  13.855  14.747   4.577 -0.1031  0.1712 -0.1054
  687POPC   GL2 8236  13.629  14.713   4.667  0.1591 -0.2447  0.0195
  687POPC   C1A 8237  14.240  14.949   4.709  0.0446  0.0954 -0.0274
  687POPC   D2A 8238  14.693  14.735   4.787 -0.0359  0.2278 -0.3252
  687POPC   C3A 8239  14.674  14.334   4.977 -0.2025 -0.0861  0.1495
  687POPC   C4A 8240  14.600  14.035   5.277 -0.0845 -0.0943  0.1506
  687POPC   C1B 8241  13.394  14.688   5.101 -0.0530  0.0381 -0.0499
  687POPC   C2B 8242  12.957  14.653   5.219  0.1972 -0.0553  0.0093
  687POPC   C3B 8243  12.485  14.641   5.284  0.1152  0.0021 -0.2014
  687POPC   C4B 8244  12.130  14.463   5.092  0.0047 -0.3077 -0.0299
  688POPC   NC3 8245  11.255   7.387   7.609 -0.5464  0.0214 -0.3663
  688POPC   PO4 8246  11.273   7.652   7.914  0.1742 -0.1283  0.4125
  688POPC   GL1 8247  11.324   7.774   8.309  0.2447 -0.1993  0.1709
  688POPC   GL2 8248  11.613   7.698   8.290 -0.1549 -0.2316  0.2463
  688POPC   C1A 8249  11.489   8.165   8.445  0.2213 -0.0519 -0.1167
  688POPC   D2A 8250  11.434   8.569   8.616  0.0628  0.0755 -0.0859
  688POPC   C3A 8251  11.355   8.744   9.069 -0.1648  0.3814  0.0710
  688POPC   C4A 8252  11.180   8.641   9.510 -0.1223 -0.0002 -0.2468
  688POPC   C1B 8253  11.638   7.475   8.710  0.1911  0.0269 -0.0318
  688POPC   C2B 8254  11.698   7.144   8.996  0.0039  0.4438 -0.3280
  688POPC   C3B 8255  11.677   6.887   9.410 -0.1340  0.2188 -0.1725
  688POPC   C4B 8256  11.657   6.947   9.906 -0.0479  0.2111 -0.0188
  689POPC   NC3 8257  11.317   0.635   4.746 -0.0888 -0.3830 -0.0371
  689POPC   PO4 8258  11.294   0.246   4.837 -0.0556 -0.0939 -0.0190
  689POPC   GL1 8259  11.451   0.225   5.188 -0.0115 -0.1128 -0.1937
  689POPC   GL2 8260  11.322   0.310   5.357 -0.2504 -0.0264 -0.1086
  689POPC   C1A 8261  11.883   0.025   5.241 -0.0437 -0.1312 -0.1148
  689POPC   D2A 8262  12.304   0.113   5.366 -0.0722  0.0379 -0.1608
  689POPC   C3A 8263  12.666  -0.078   5.583 -0.1773 -0.1007 -0.2081
  689POPC   C4A 8264  12.806   0.042   6.015  0.1230  0.0718 -0.0678
  689POPC   C1B 8265  11.038   0.245   5.746 -0.0598 -0.1076  0.0418
  689POPC   C2B 8266  10.891   0.569   6.076 -0.0680  0.0488 -0.3568
  689POPC   C3B 8267  10.655   0.655   6.486 -0.0937  0.1237 -0.1449
  689POPC   C4B 8268  10.646   0.363   6.868 -0.4287 -0.1612 -0.1626
  690POPC   NC3 8269   6.049   8.226   5.776 -0.4335 -0.1019  0.0238
  690POPC   PO4 8270   6.398   8.230   5.998 -0.2016  0.1031  0.1975
  690POPC   GL1 8271   6.291   8.513   6.323 -0.2773  0.1192  0.1481
  690POPC   GL2 8272   6.450   8.506   6.593 -0.1975  0.0904  0.1550
  690POPC   C1A 8273   6.110   8.945   6.413  0.1291  0.0418 -0.2280
  690POPC   D2A 8274   5.868   9.001   6.745  0.1101  0.0208 -0.2244
  690POPC   C3A 8275   5.756   9.243   7.157  0.2121  0.1439  0.0972
  690POPC   C4A 8276   5.621   9.546   7.441  0.6161  0.4016  0.2419
  690POPC   C1B 8277   6.260   8.691   6.990  0.0989 -0.2172  0.2944
  690POPC   C2B 8278   6.172   8.917   7.399 -0.0133  0.0338  0.1902
  690POPC   C3B 8279   6.043   9.237   7.683 -0.1155 -0.0834 -0.1224
  690POPC   C4B 8280   6.363   9.590   7.832  0.0900  0.0842  0.2337
  691POPC   NC3 8281   8.591  11.279   5.339 -0.2198 -0.1566 -0.0293
  691POPC   PO4 8282   8.307  11.439   5.141 -0.1298  0.1058 -0.1313
  691POPC   GL1 8283   8.213  11.587   5.539 -0.1464 -0.1260  0.1288
  691POPC   GL2 8284   8.269  11.398   5.720 -0.0635 -0.0401 -0.3163
  691POPC   C1A 8285   7.963  11.712   5.913 -0.2011  0.1198  0.0971
  691POPC   D2A 8286   7.911  11.832   6.358 -0.2105 -0.0915 -0.2439
  691POPC   C3A 8287   7.798  11.612   6.698 -0.0479 -0.1617  0.1566
  691POPC   C4A 8288   7.847  11.284   7.024  0.5167 -0.0273 -0.1783
  691POPC   C1B 8289   8.369  11.552   6.180 -0.0491  0.0064 -0.0694
  691POPC   C2B 8290   8.359  11.772   6.578  0.0103 -0.0357  0.0003
  691POPC   C3B 8291   8.165  11.862   7.004  0.0180 -0.0594  0.3328
  691POPC   C4B 8292   8.102  11.988   7.443 -0.0569 -0.2208 -0.1160
  692POPC   NC3 8293  11.226   5.438  10.951 -0.4883  0.4486  0.1093
  692POPC   PO4 8294  11.152   5.490  11.333  0.2997 -0.1537  0.0214
  692POPC   GL1 8295  11.453   5.589  11.542  0.2213  0.2057 -0.0319
  692POPC   GL2 8296  11.524   5.665  11.826  0.0805 -0.2142 -0.1493
  692POPC   C1A 8297  11.900   5.643  11.513  0.2169 -0.2175 -0.0389
  692POPC   D2A 8298  12.239   5.932  11.527 -0.1383  0.1781 -0.2767
  692POPC   C3A 8299  12.555   5.867  11.174  0.0376  0.0248  0.1749
  692POPC   C4A 8300  12.819   5.686  10.832 -0.1025  0.4191 -0.1809
  692POPC   C1B 8301  11.589   5.772  12.260 -0.2737 -0.0866 -0.1356
  692POPC   C2B 8302  11.704   6.188  12.496 -0.2190 -0.2396  0.1652
  692POPC   C3B 8303  12.057   6.396  12.667  0.0616  0.0512  0.1439
  692POPC   C4B 8304  12.366   6.742  12.621  0.0380 -0.1553  0.3213
  693POPC   NC3 8305   4.476   7.510   5.609  0.1335  0.0487  0.2794
  693POPC   PO4 8306   4.666   7.777   5.435 -0.3047 -0.2366  0.1812
  693POPC   GL1 8307   4.484   8.141   5.658 -0.0987 -0.1701  0.4232
  693POPC   GL2 8308   4.334   8.000   5.846  0.0709 -0.1299  0.0305
  693POPC   C1A 8309   4.227   8.502   5.777 -0.3884  0.2587 -0.2037
  693POPC   D2A 8310   4.459   8.843   5.997 -0.1499 -0.0308  0.0589
  693POPC   C3A 8311   4.488   9.074   6.389  0.5234  0.1786  0.2153
  693POPC   C4A 8312   4.556   9.192   6.837 -0.3624  0.2804 -0.2548
  693POPC   C1B 8313   4.548   8.015   6.270 -0.1359  0.4214  0.2800
  693POPC   C2B 8314   4.591   8.029   6.734  0.0996 -0.0367 -0.1290
  693POPC   C3B 8315   4.623   8.234   7.216  0.1370 -0.0036 -0.1277
  693POPC   C4B 8316   4.360   8.179   7.548 -0.1014  0.4894  0.0417
  694POPC   NC3 8317   3.098   9.598   4.559  0.1750  0.3256  0.0080
  694POPC   PO4 8318   3.458   9.773   4.617  0.2947 -0.1341  0.0501
  694POPC   GL1 8319   3.643   9.956   4.864  0.0227 -0.1818  0.2935
  694POPC   GL2 8320   3.975   9.860   4.873  0.2106  0.0611  0.0394
  694POPC   C1A 8321   3.762  10.085   5.311  0.1376 -0.0061  0.1993
  694POPC   D2A 8322   4.127  10.348   5.540  0.2858  0.1862 -0.2088
  694POPC   C3A 8323   4.204  10.467   5.961 -0.2854 -0.0958 -0.0105
  694POPC   C4A 8324   4.010  10.563   6.321  0.1025  0.0799  0.2753
  694POPC   C1B 8325   4.153   9.801   5.364  0.1603  0.1940  0.0480
  694POPC   C2B 8326   3.938   9.750   5.750  0.1140 -0.0515 -0.0339
  694POPC   C3B 8327   3.804   9.759   6.233 -0.1272 -0.0543  0.1152
  694POPC   C4B 8328   3.839  10.112   6.550  0.2891  0.2376 -0.1655
  695POPC   NC3 8329   8.187   2.136   5.764 -0.0137 -0.0445 -0.0101
  695POPC   PO4 8330   8.455   2.402   5.959  0.1347 -0.2441 -0.0195
  695POPC   GL1 8331   8.434   2.273   6.192 -0.0621 -0.0703  0.1827
  695POPC   GL2 8332   8.325   2.030   6.287  0.1791  0.2892 -0.2580
  695POPC   C1A 8333   8.383   2.371   6.663 -0.2563 -0.0583  0.0823
  695POPC   D2A 8334   8.020   2.220   6.878 -0.1083  0.0062 -0.3377
  695POPC   C3A 8335   8.136   1.942   7.267 -0.0510  0.4123  0.0189
  695POPC   C4A 8336   8.272   1.780   7.715  0.0565 -0.0739 -0.1533
  695POPC   C1B 8337   8.291   1.848   6.657 -0.2154  0.0972 -0.2757
  695POPC   C2B 8338   8.323   1.503   6.982  0.2748 -0.1261  0.0797
  695POPC   C3B 8339   8.175   1.158   7.188 -0.0231  0.1624 -0.1718
  695POPC   C4B 8340   7.883   0.853   7.333  0.0946  0.1487 -0.1777
  696POPC   NC3 8341   9.107   6.582   9.730  0.0027  0.3234  0.1116
  696POPC   PO4 8342   9.514   6.555   9.786 -0.1452 -0.2875  0.0322
  696POPC   GL1 8343   9.724   6.946  10.028  0.0828 -0.0452  0.0363
  696POPC   GL2 8344   9.455   7.102   9.963  0.0730  0.1542 -0.0881
  696POPC   C1A 8345   9.861   7.400   9.895 -0.1032 -0.2292  0.0785
  696POPC   D2A 8346   9.790   7.823   9.687  0.2048  0.0901 -0.0015
  696POPC   C3A 8347   9.419   8.061   9.778 -0.1027 -0.0568 -0.0541
  696POPC   C4A 8348   9.072   8.215  10.008  0.1906  0.0531  0.2249
  696POPC   C1B 8349   9.150   7.136  10.263 -0.2069  0.2625  0.1136
  696POPC   C2B 8350   8.828   7.209  10.578 -0.2305 -0.0705  0.0333
  696POPC   C3B 8351   8.695   7.547  10.885 -0.0426 -0.1740 -0.1378
  696POPC   C4B 8352   8.558   7.999  10.849  0.0233  0.0240  0.0771
  697POPC   NC3 8353  13.844  12.049   4.698 -0.2433 -0.0035  0.0788
  697POPC   PO4 8354  13.517  12.096   4.535 -0.2361  0.0983 -0.1821
  697POPC   GL1 8355  13.425  11.977   4.930  0.4199  0.1416  0.1550
  697POPC   GL2 8356  13.190  12.163   5.063 -0.0648 -0.1037 -0.0878
  697POPC   C1A 8357  13.625  12.142   5.309 -0.1830  0.0458 -0.1257
  697POPC   D2A 8358  13.910  12.424   5.512 -0.0761 -0.2600 -0.1652
  697POPC   C3A 8359  14.216  12.316   5.805 -0.0323  0.1025 -0.0867
  697POPC   C4A 8360  14.442  11.931   6.004 -0.2287  0.0995  0.1040
  697POPC   C1B 8361  13.119  12.139   5.540  0.3203  0.0520 -0.0648
  697POPC   C2B 8362  13.488  11.990   5.853 -0.0644  0.0797  0.0912
  697POPC   C3B 8363  13.742  12.181   6.235  0.1625 -0.0317  0.0533
  697POPC   C4B 8364  14.133  12.217   6.400  0.0499 -0.1739  0.0221
  698POPC   NC3 8365  10.398  11.125   5.218  0.0135 -0.2237 -0.1972
  698POPC   PO4 8366  10.741  11.231   5.089 -0.5271 -0.1748  0.1640
  698POPC   GL1 8367  10.838  11.453   5.427 -0.0485  0.0035  0.4126
  698POPC   GL2 8368  10.592  11.555   5.568  0.1371  0.2641 -0.2751
  698POPC   C1A 8369  11.245  11.390   5.624 -0.2125  0.1231 -0.2748
  698POPC   D2A 8370  11.636  11.579   5.818 -0.0834  0.2836  0.0187
  698POPC   C3A 8371  11.738  11.499   6.286  0.0521 -0.1457 -0.3079
  698POPC   C4A 8372  11.735  11.291   6.702 -0.0581 -0.0694 -0.2128
  698POPC   C1B 8373  10.947  11.816   5.664 -0.0825 -0.0031 -0.1618
  698POPC   C2B 8374  11.159  12.227   5.681 -0.1282  0.0788 -0.1094
  698POPC   C3B 8375  11.251  12.602   5.951 -0.0207 -0.1314  0.0603
  698POPC   C4B 8376  11.124  12.860   6.309  0.0412 -0.1997 -0.0431
  699POPC   NC3 8377  10.791   6.680  12.444  0.2258 -0.1616  0.0456
  699POPC   PO4 8378  10.438   6.469  12.522  0.0718 -0.0156 -0.1167
  699POPC   GL1 8379  10.362   6.826  12.617  0.1833  0.1681 -0.3964
  699POPC   GL2 8380  10.267   6.888  12.330  0.0752  0.0149  0.1389
  699POPC   C1A 8381  10.672   7.101  12.744 -0.0450 -0.0341  0.0764
  699POPC   D2A 8382  10.797   7.355  13.123 -0.2162  0.0527  0.1573
  699POPC   C3A 8383  10.982   7.766  13.157  0.1234  0.2264  0.0615
  699POPC   C4A 8384  11.256   8.103  13.188 -0.0753 -0.1571  0.0678
  699POPC   C1B 8385  10.123   7.345  12.362 -0.1001  0.0133  0.0057
  699POPC   C2B 8386   9.743   7.596  12.329  0.1442  0.0999  0.0317
  699POPC   C3B 8387   9.449   7.932  12.120 -0.0662  0.1131  0.1348
  699POPC   C4B 8388   9.085   8.166  12.002 -0.0214 -0.2481  0.1722
  700POPC   NC3 8389  14.857  32.820   4.343  0.0312 -0.3504  0.1139
  700POPC   PO4 8390  14.861  32.419   4.330 -0.1139 -0.1902 -0.2377
  700POPC   GL1 8391  14.943  32.491   4.688  0.2412  0.3093  0.0451
  700POPC   GL2 8392  15.167  32.275   4.819  0.1865  0.0659 -0.2743
  700POPC   C1A 8393  14.694  32.468   5.029  0.0070  0.0768  0.1353
  700POPC   D2A 8394  14.486  32.238   5.385  0.1874 -0.3791 -0.0615
  700POPC   C3A 8395  14.376  31.968   5.663 -0.0005  0.2959 -0.1204
  700POPC   C4A 8396  14.445  31.679   5.956  0.3325 -0.0378 -0.0267
  700POPC   C1B 8397  15.102  32.364   5.323  0.1655  0.3679 -0.1493
  700POPC   C2B 8398  14.822  32.343   5.724 -0.1526 -0.0400 -0.1463
  700POPC   C3B 8399  14.701  32.174   6.149  0.1592  0.2471 -0.2199
  700POPC   C4B 8400  14.773  32.220   6.629  0.2422  0.2622  0.2698
  701POPC   NC3 8401  15.650   7.916   5.305 -0.0950 -0.3724  0.2042
  701POPC   PO4 8402  15.398   7.671   5.458  0.1046 -0.2565  0.1473
  701POPC   GL1 8403  15.539   7.731   5.883  0.0584  0.0548  0.2288
  701POPC   GL2 8404  15.735   7.608   5.978 -0.3120  0.4455 -0.0278
  701POPC   C1A 8405  15.485   7.734   6.393  0.2419 -0.2396 -0.1954
  701POPC   D2A 8406  15.556   7.614   6.810  0.0488  0.0288 -0.1420
  701POPC   C3A 8407  15.807   7.704   7.166  0.2469 -0.0328  0.2182
  701POPC   C4A 8408  16.004   8.027   7.382  0.2616 -0.0326 -0.1642
  701POPC   C1B 8409  16.042   7.665   6.336 -0.1927  0.1723 -0.0984
  701POPC   C2B 8410  16.089   7.623   6.802 -0.2104  0.0339 -0.0795
  701POPC   C3B 8411  16.357   7.670   7.199 -0.2097  0.0434 -0.1025
  701POPC   C4B 8412  16.487   7.804   7.628  0.0785 -0.1053 -0.1924
  702POPC   NC3 8413   0.796  11.823   4.093 -0.1064 -0.0398 -0.2992
  702POPC   PO4 8414   0.451  11.661   3.929  0.0153 -0.1200  0.2391
  702POPC   GL1 8415   0.432  11.626   4.308  0.0581  0.3948  0.1907
  702POPC   GL2 8416   0.153  11.496   4.491  0.1667  0.0944  0.4000
  702POPC   C1A 8417   0.761  11.691   4.607  0.2094  0.0353 -0.0350
  702POPC   D2A 8418   1.100  11.793   4.920 -0.2660  0.0194  0.1544
  702POPC   C3A 8419   1.072  11.612   5.345 -0.0070 -0.2832  0.0379
  702POPC   C4A 8420   0.991  11.724   5.821  0.1182  0.1136  0.0820
  702POPC   C1B 8421   0.294  11.589   4.979  0.0252  0.0236 -0.0143
  702POPC   C2B 8422   0.442  11.828   5.333  0.4892  0.1769 -0.0361
  702POPC   C3B 8423   0.533  11.937   5.745 -0.2310  0.1617  0.1636
  702POPC   C4B 8424   0.470  11.821   6.186  0.1949 -0.3299 -0.2646
  703POPC   NC3 8425   2.555  11.165   4.504  0.0800  0.0440 -0.1166
  703POPC   PO4 8426   2.797  11.397   4.334 -0.1855 -0.0862 -0.4087
  703POPC   GL1 8427   2.954  11.606   4.588 -0.0563 -0.1409  0.2782
  703POPC   GL2 8428   3.158  11.591   4.799 -0.0886  0.0331  0.1576
  703POPC   C1A 8429   2.716  11.453   5.001 -0.1532  0.1510  0.2550
  703POPC   D2A 8430   2.445  11.572   5.307 -0.1184  0.2094 -0.1805
  703POPC   C3A 8431   2.614  11.770   5.645  0.0915  0.0556  0.0778
  703POPC   C4A 8432   2.449  11.963   5.999 -0.0351  0.2587 -0.0527
  703POPC   C1B 8433   3.203  11.695   5.241  0.0446 -0.1250 -0.0803
  703POPC   C2B 8434   3.376  11.677   5.665 -0.1212  0.1451 -0.5480
  703POPC   C3B 8435   3.584  11.521   6.088  0.0194  0.1982 -0.0483
  703POPC   C4B 8436   4.035  11.564   6.156  0.1935 -0.0164 -0.1854
  704POPC   NC3 8437   8.802  17.442   5.066 -0.1996  0.0482 -0.1112
  704POPC   PO4 8438   8.924  17.063   5.131 -0.1435  0.4675 -0.1399
  704POPC   GL1 8439   9.062  16.844   5.439 -0.1400 -0.0199 -0.0612
  704POPC   GL2 8440   9.056  17.015   5.689 -0.0537 -0.0260 -0.1301
  704POPC   C1A 8441   8.960  16.569   5.820  0.2595  0.2375 -0.0850
  704POPC   D2A 8442   8.533  16.384   5.994 -0.1869 -0.0587 -0.0693
  704POPC   C3A 8443   8.533  16.278   6.509  0.1912 -0.0039  0.3205
  704POPC   C4A 8444   8.724  16.526   6.815 -0.0510  0.1014 -0.1508
  704POPC   C1B 8445   9.078  17.198   6.150 -0.1302  0.0805  0.1865
  704POPC   C2B 8446   9.061  17.082   6.564 -0.1846 -0.1499 -0.1669
  704POPC   C3B 8447   9.122  16.772   6.940 -0.2782 -0.2712 -0.4255
  704POPC   C4B 8448   9.262  16.663   7.375 -0.1730 -0.2604 -0.0946
  705POPC   NC3 8449   3.781   9.477   4.402  0.0321  0.0943 -0.2362
  705POPC   PO4 8450   3.839   9.218   4.724 -0.0908 -0.1285  0.2865
  705POPC   GL1 8451   3.546   9.388   4.960  0.1059 -0.0221  0.3040
  705POPC   GL2 8452   3.564   9.522   5.131 -0.3053 -0.1530 -0.0230
  705POPC   C1A 8453   3.300   9.175   5.338 -0.1710 -0.3186  0.3263
  705POPC   D2A 8454   3.100   9.222   5.727  0.1310  0.1013 -0.0871
  705POPC   C3A 8455   3.262   9.429   6.083 -0.3060  0.1202  0.2340
  705POPC   C4A 8456   3.389   9.678   6.405  0.1081  0.0670 -0.1300
  705POPC   C1B 8457   3.759   9.320   5.507 -0.2784 -0.0717 -0.0794
  705POPC   C2B 8458   3.712   9.381   5.916 -0.0118  0.3075  0.1445
  705POPC   C3B 8459   3.778   9.292   6.376  0.1881 -0.0509  0.0545
  705POPC   C4B 8460   3.972   9.230   6.736  0.1369  0.0843 -0.2413
  706POPC   NC3 8461  11.303   6.163   8.333  0.0588  0.0494  0.0898
  706POPC   PO4 8462  11.340   5.930   8.685 -0.3504  0.1586 -0.2338
  706POPC   GL1 8463  11.654   5.847   8.676 -0.1270 -0.1279 -0.0708
  706POPC   GL2 8464  11.849   5.895   8.507 -0.2315  0.0842  0.0229
  706POPC   C1A 8465  11.927   6.030   8.978 -0.0737  0.1655  0.0718
  706POPC   D2A 8466  12.272   6.296   9.145 -0.0439 -0.1130  0.3481
  706POPC   C3A 8467  12.380   6.223   9.576  0.0029 -0.0340 -0.1213
  706POPC   C4A 8468  12.609   6.194   9.969 -0.2150  0.1871 -0.0344
  706POPC   C1B 8469  12.139   5.613   8.654  0.1495  0.2138  0.2446
  706POPC   C2B 8470  12.348   5.444   9.035  0.1311 -0.2737 -0.1162
  706POPC   C3B 8471  12.277   5.332   9.476 -0.1788  0.0954  0.1104
  706POPC   C4B 8472  12.279   4.930   9.694  0.0055  0.0077 -0.0278
  707POPC   NC3 8473   3.900  12.615   4.256 -0.0697  0.0428 -0.0027
  707POPC   PO4 8474   3.552  12.751   4.161  0.0527 -0.3521 -0.0808
  707POPC   GL1 8475   3.370  12.886   4.482  0.1951 -0.0032 -0.2306
  707POPC   GL2 8476   3.526  12.860   4.732  0.3548 -0.2295 -0.1273
  707POPC   C1A 8477   3.206  13.228   4.773 -0.0112 -0.0214 -0.0671
  707POPC   D2A 8478   3.179  13.349   5.256 -0.2672  0.2660  0.1885
  707POPC   C3A 8479   3.209  13.074   5.698  0.2477 -0.3213 -0.1568
  707POPC   C4A 8480   3.245  13.003   6.169 -0.1302 -0.0330  0.1271
  707POPC   C1B 8481   3.478  12.548   5.000 -0.1803 -0.0589  0.0405
  707POPC   C2B 8482   3.430  12.524   5.450  0.0280  0.0790 -0.0719
  707POPC   C3B 8483   3.119  12.585   5.808  0.1001 -0.1571 -0.0787
  707POPC   C4B 8484   2.719  12.846   5.951  0.1575  0.2956 -0.0933
  708POPC   NC3 8485   9.104   5.804  13.022  0.0256 -0.2146 -0.1438
  708POPC   PO4 8486   8.867   5.606  12.791  0.0819  0.3262  0.1137
  708POPC   GL1 8487   8.708   6.002  12.884 -0.2334 -0.2670  0.0126
  708POPC   GL2 8488   8.585   5.883  13.134 -0.0772  0.5868  0.4454
  708POPC   C1A 8489   8.341   6.244  12.927 -0.1946  0.2805 -0.0741
  708POPC   D2A 8490   8.043   6.602  12.827 -0.2160  0.0541 -0.0481
  708POPC   C3A 8491   8.062   6.911  12.459  0.1843 -0.1457 -0.1207
  708POPC   C4A 8492   7.976   7.007  12.014  0.0585 -0.0417  0.2539
  708POPC   C1B 8493   8.127   5.887  13.246  0.3988 -0.0352 -0.1744
  708POPC   C2B 8494   7.775   6.171  13.122 -0.0312  0.0019 -0.1880
  708POPC   C3B 8495   7.565   6.470  12.808 -0.0817  0.2114  0.1703
  708POPC   C4B 8496   7.333   6.386  12.474 -0.4359  0.1180 -0.1715
  709POPC   NC3 8497  11.351   2.016   5.836  0.0892  0.2367  0.2259
  709POPC   PO4 8498  11.272   2.144   6.197 -0.0872  0.3426  0.0648
  709POPC   GL1 8499  11.548   1.893   6.310 -0.0952  0.0839 -0.2431
  709POPC   GL2 8500  11.695   2.136   6.488  0.1088 -0.0551  0.2408
  709POPC   C1A 8501  11.423   1.719   6.702 -0.2451 -0.1524  0.0095
  709POPC   D2A 8502  11.332   1.723   7.178 -0.0727 -0.3701 -0.1656
  709POPC   C3A 8503  11.239   1.381   7.501 -0.0964 -0.4054 -0.1347
  709POPC   C4A 8504  11.006   1.170   7.812 -0.1840  0.2803 -0.2018
  709POPC   C1B 8505  11.789   1.988   6.889  0.1756 -0.0588  0.3347
  709POPC   C2B 8506  11.825   1.565   7.065  0.1044 -0.1456 -0.3013
  709POPC   C3B 8507  11.709   1.417   7.469 -0.0282  0.0920  0.1770
  709POPC   C4B 8508  11.584   1.114   7.777  0.3600  0.0567 -0.1600
  710POPC   NC3 8509   4.660   9.659   4.819 -0.0399 -0.1668  0.0673
  710POPC   PO4 8510   5.019   9.421   4.808 -0.1008  0.1256 -0.2135
  710POPC   GL1 8511   5.043   9.758   5.130  0.0878  0.1291  0.2102
  710POPC   GL2 8512   5.229   9.668   5.206 -0.0501 -0.0383 -0.0326
  710POPC   C1A 8513   4.983  10.142   5.421 -0.0981 -0.0077  0.1779
  710POPC   D2A 8514   4.913  10.074   5.813 -0.1428 -0.0999  0.4591
  710POPC   C3A 8515   4.783  10.374   6.095 -0.0381 -0.1434 -0.0417
  710POPC   C4A 8516   4.517  10.750   6.278 -0.1217  0.0603 -0.2318
  710POPC   C1B 8517   5.152   9.654   5.683 -0.1876  0.0462 -0.0913
  710POPC   C2B 8518   5.228   9.682   6.155  0.0023  0.2321  0.1250
  710POPC   C3B 8519   5.328   9.784   6.565 -0.4082  0.0978  0.0181
  710POPC   C4B 8520   5.313   9.824   7.039  0.0645 -0.4122  0.0672
  711POPC   NC3 8521   8.511   5.886  11.091 -0.2806 -0.1874 -0.1175
  711POPC   PO4 8522   8.582   6.160  11.377 -0.0116 -0.2783 -0.2757
  711POPC   GL1 8523   8.188   6.016  11.384  0.0861 -0.2505  0.0634
  711POPC   GL2 8524   8.197   5.971  11.644 -0.0515 -0.0922 -0.0551
  711POPC   C1A 8525   7.773   5.837  11.533  0.1605 -0.0154 -0.0114
  711POPC   D2A 8526   7.351   5.888  11.736  0.2358 -0.0040  0.0233
  711POPC   C3A 8527   7.208   5.504  11.946 -0.1328  0.0652  0.0571
  711POPC   C4A 8528   7.031   5.032  12.008 -0.3266  0.0844  0.1377
  711POPC   C1B 8529   7.881   6.201  11.840  0.1016 -0.0506  0.1292
  711POPC   C2B 8530   7.841   6.525  12.154 -0.0595 -0.1758 -0.1553
  711POPC   C3B 8531   7.612   6.866  12.253  0.1775  0.0080 -0.0049
  711POPC   C4B 8532   7.242   6.976  12.518 -0.0642  0.0732  0.0407
  712POPC   NC3 8533  10.023   2.924   6.518  0.1692 -0.1694 -0.0784
  712POPC   PO4 8534  10.047   3.066   6.894 -0.2937  0.1195 -0.3085
  712POPC   GL1 8535   9.662   3.006   7.079 -0.0667 -0.3608 -0.0389
  712POPC   GL2 8536   9.683   2.692   7.095  0.0736  0.0255 -0.1932
  712POPC   C1A 8537   9.807   2.992   7.530  0.0373 -0.0890 -0.0887
  712POPC   D2A 8538  10.096   3.198   7.858 -0.0984 -0.0231  0.0599
  712POPC   C3A 8539  10.037   3.313   8.297  0.0766 -0.2390  0.0585
  712POPC   C4A 8540  10.083   3.522   8.720  0.1567 -0.0585  0.1555
  712POPC   C1B 8541  10.086   2.677   7.325  0.2068  0.2945 -0.0586
  712POPC   C2B 8542  10.380   2.785   7.665 -0.2646 -0.2008  0.0541
  712POPC   C3B 8543  10.342   2.813   8.115 -0.2356  0.1821 -0.1851
  712POPC   C4B 8544  10.436   2.615   8.482 -0.5763 -0.2175 -0.1623
  713POPC   NC3 8545  14.850   8.843   5.160 -0.0189 -0.0918 -0.1086
  713POPC   PO4 8546  15.168   8.580   5.120 -0.2030 -0.3262 -0.3701
  713POPC   GL1 8547  15.264   8.420   5.477 -0.3736  0.1057  0.0594
  713POPC   GL2 8548  15.200   8.176   5.640  0.1437  0.1144 -0.0507
  713POPC   C1A 8549  15.408   8.486   5.976  0.1336 -0.1537  0.1069
  713POPC   D2A 8550  15.648   8.693   6.305  0.0152  0.1123  0.3078
  713POPC   C3A 8551  15.857   8.916   6.623  0.1830 -0.0134  0.1587
  713POPC   C4A 8552  15.894   9.344   6.772 -0.1241 -0.0753  0.0381
  713POPC   C1B 8553  15.248   8.014   6.089  0.3702  0.1211  0.0507
  713POPC   C2B 8554  15.206   8.081   6.563 -0.0329  0.0056  0.0858
  713POPC   C3B 8555  15.042   8.128   6.953 -0.1376  0.4190 -0.0836
  713POPC   C4B 8556  14.840   8.468   7.226 -0.1029  0.0630 -0.2685
  714POPC   NC3 8557   1.951   4.613   4.777  0.2484 -0.0351  0.3367
  714POPC   PO4 8558   2.247   4.478   4.995  0.0597  0.1113 -0.4555
  714POPC   GL1 8559   2.406   4.534   5.371  0.1355 -0.0766  0.4455
  714POPC   GL2 8560   2.130   4.440   5.516 -0.1604 -0.0347 -0.0044
  714POPC   C1A 8561   2.478   4.546   5.838  0.3448 -0.0045  0.1131
  714POPC   D2A 8562   2.357   4.383   6.249  0.2260  0.0256 -0.0787
  714POPC   C3A 8563   2.079   4.589   6.568 -0.0383  0.1724 -0.0182
  714POPC   C4A 8564   2.117   4.710   6.971 -0.0426 -0.1031 -0.1960
  714POPC   C1B 8565   2.042   4.797   5.756  0.1000 -0.1901 -0.4678
  714POPC   C2B 8566   1.937   4.981   6.175 -0.3557  0.1288  0.0319
  714POPC   C3B 8567   1.980   5.059   6.618  0.1434 -0.2869 -0.1527
  714POPC   C4B 8568   1.724   5.029   7.020  0.2512 -0.0505 -0.0246
  715POPC   NC3 8569  10.295   6.547  11.726  0.0461 -0.0519 -0.1919
  715POPC   PO4 8570  10.453   6.637  11.371  0.0685  0.3189  0.0498
  715POPC   GL1 8571  10.608   7.055  11.477  0.1673  0.0022  0.1147
  715POPC   GL2 8572  10.781   7.042  11.152 -0.1327 -0.1172  0.0345
  715POPC   C1A 8573  10.731   7.509  11.245  0.0364 -0.2687  0.1198
  715POPC   D2A 8574  10.861   7.976  11.292 -0.0511  0.1774 -0.1321
  715POPC   C3A 8575  10.774   8.412  11.097  0.1885 -0.0541  0.0655
  715POPC   C4A 8576  10.600   8.852  11.109  0.2221 -0.1169  0.0197
  715POPC   C1B 8577  11.119   7.265  11.080  0.3801  0.1168 -0.4296
  715POPC   C2B 8578  11.592   7.304  11.093 -0.0956 -0.1081 -0.0240
  715POPC   C3B 8579  12.002   7.388  11.355  0.0059 -0.0829  0.3628
  715POPC   C4B 8580  12.272   7.393  11.698  0.3722 -0.0304 -0.0425
  716POPC   NC3 8581   5.223  13.236   4.616 -0.0491  0.3099  0.0206
  716POPC   PO4 8582   5.281  13.337   4.255 -0.0079  0.4590  0.0816
  716POPC   GL1 8583   5.383  13.672   4.475  0.3246  0.2676 -0.1128
  716POPC   GL2 8584   5.079  13.715   4.500  0.2606  0.0358 -0.1212
  716POPC   C1A 8585   5.759  13.587   4.773 -0.2867 -0.2761 -0.0942
  716POPC   D2A 8586   5.953  13.688   5.212 -0.1210 -0.3420 -0.1941
  716POPC   C3A 8587   5.696  13.899   5.568 -0.0370  0.1768 -0.0002
  716POPC   C4A 8588   5.466  14.291   5.649 -0.3192 -0.1902 -0.2122
  716POPC   C1B 8589   5.125  13.778   4.974  0.1752  0.0584 -0.0722
  716POPC   C2B 8590   5.085  13.867   5.459  0.1174 -0.0738  0.0759
  716POPC   C3B 8591   5.152  13.891   5.913 -0.1703 -0.1546 -0.2120
  716POPC   C4B 8592   5.572  14.013   6.091 -0.2114  0.2117 -0.1585
  717POPC   NC3 8593   4.520  17.096   4.829  0.2727 -0.3172 -0.0248
  717POPC   PO4 8594   4.567  16.772   5.048 -0.1199  0.3076  0.1859
  717POPC   GL1 8595   4.496  16.557   5.322 -0.0476 -0.1986 -0.1100
  717POPC   GL2 8596   4.522  16.755   5.531 -0.0472  0.2788  0.0619
  717POPC   C1A 8597   4.859  16.396   5.529  0.2423 -0.1040  0.2817
  717POPC   D2A 8598   5.244  16.208   5.750 -0.0671  0.1024  0.0084
  717POPC   C3A 8599   5.267  16.056   6.212  0.2510  0.1481  0.1930
  717POPC   C4A 8600   5.251  15.941   6.621  0.0207  0.1674  0.1283
  717POPC   C1B 8601   4.525  16.369   5.870 -0.2836  0.1488  0.0677
  717POPC   C2B 8602   4.690  16.209   6.244  0.4096  0.2853  0.0793
  717POPC   C3B 8603   4.779  16.028   6.671 -0.0047  0.0447 -0.0580
  717POPC   C4B 8604   4.953  15.796   7.018 -0.0327  0.2855 -0.0166
  718POPC   NC3 8605   0.666   9.110   4.916 -0.1569  0.1867  0.1265
  718POPC   PO4 8606   0.296   9.224   4.759  0.1837 -0.0025 -0.0900
  718POPC   GL1 8607   0.262   9.384   5.106 -0.1717 -0.0584 -0.1106
  718POPC   GL2 8608   0.216   9.082   5.226 -0.3333  0.1309 -0.1614
  718POPC   C1A 8609   0.504   9.511   5.515  0.0192  0.1862  0.0827
  718POPC   D2A 8610   0.973   9.527   5.580 -0.2926 -0.0397  0.1428
  718POPC   C3A 8611   1.164   9.748   5.965  0.1127  0.2564 -0.2492
  718POPC   C4A 8612   1.139  10.178   6.204 -0.1700  0.2400  0.1865
  718POPC   C1B 8613   0.092   9.117   5.686  0.0130 -0.1195  0.0815
  718POPC   C2B 8614   0.217   9.375   6.074  0.4290 -0.0575  0.1938
  718POPC   C3B 8615   0.222   9.735   6.369  0.3587 -0.0655  0.0915
  718POPC   C4B 8616   0.544   9.794   6.739 -0.1133  0.4272  0.1069
  719POPC   NC3 8617   9.462  12.311   5.183 -0.1149  0.0868 -0.2512
  719POPC   PO4 8618   9.271  12.632   5.055 -0.1079 -0.0153 -0.1426
  719POPC   GL1 8619   9.326  12.667   5.492 -0.3787 -0.2145  0.2733
  719POPC   GL2 8620   9.551  12.524   5.644 -0.3590 -0.2395 -0.1356
  719POPC   C1A 8621   9.437  13.000   5.803 -0.0212 -0.0724 -0.1402
  719POPC   D2A 8622   9.707  13.212   6.154  0.1780  0.1605  0.1509
  719POPC   C3A 8623   9.347  13.378   6.384  0.2980  0.1311 -0.1267
  719POPC   C4A 8624   9.154  13.518   6.792 -0.1392  0.2337  0.1366
  719POPC   C1B 8625   9.716  12.645   6.066 -0.0522 -0.1024  0.0485
  719POPC   C2B 8626   9.568  12.583   6.485 -0.0456  0.0354 -0.0861
  719POPC   C3B 8627   9.440  12.356   6.874  0.0407 -0.0934  0.1525
  719POPC   C4B 8628   9.536  11.909   6.944 -0.0270  0.1314 -0.0846
  720POPC   NC3 8629  11.172   3.664   7.223 -0.2297 -0.0452  0.1931
  720POPC   PO4 8630  11.197   3.945   7.470 -0.0640 -0.2586 -0.0132
  720POPC   GL1 8631  11.235   3.832   7.855 -0.1148  0.4458  0.0899
  720POPC   GL2 8632  11.496   3.797   8.024 -0.4032 -0.0107 -0.0035
  720POPC   C1A 8633  11.051   3.573   8.180  0.3498  0.3920 -0.0416
  720POPC   D2A 8634  10.783   3.206   8.345  0.1108 -0.1670 -0.2853
  720POPC   C3A 8635  10.965   2.814   8.570 -0.0340 -0.2310  0.3452
  720POPC   C4A 8636  11.219   2.676   8.906 -0.1185 -0.4812 -0.0829
  720POPC   C1B 8637  11.789   3.448   8.064  0.1734 -0.0541  0.1084
  720POPC   C2B 8638  12.172   3.217   7.969 -0.0450  0.3830 -0.2475
  720POPC   C3B 8639  12.369   2.861   8.164  0.1830 -0.0896  0.0141
  720POPC   C4B 8640  12.631   2.633   8.435  0.2857  0.0975  0.1333
  721POPC   NC3 8641   1.640  11.960   4.051  0.2209  0.1249  0.2655
  721POPC   PO4 8642   1.306  11.858   4.201  0.4409  0.0901  0.2540
  721POPC   GL1 8643   1.437  11.796   4.508 -0.3645 -0.0708 -0.1002
  721POPC   GL2 8644   1.401  11.492   4.572 -0.4288  0.2001 -0.2244
  721POPC   C1A 8645   1.804  11.953   4.737 -0.0014  0.1440  0.1514
  721POPC   D2A 8646   2.019  12.282   4.721  0.0495  0.2800  0.0569
  721POPC   C3A 8647   2.418  12.103   4.838  0.2931 -0.2367 -0.1861
  721POPC   C4A 8648   2.739  11.950   5.118 -0.2291 -0.0944  0.0669
  721POPC   C1B 8649   1.513  11.657   4.997  0.1037 -0.0098 -0.1214
  721POPC   C2B 8650   1.506  11.904   5.416  0.0683  0.1314 -0.5471
  721POPC   C3B 8651   1.491  12.003   5.859 -0.2393 -0.1634  0.1255
  721POPC   C4B 8652   1.594  11.754   6.208  0.0603 -0.0290 -0.0557
  722POPC   NC3 8653   1.683   2.056   4.659  0.0575  0.1811 -0.0897
  722POPC   PO4 8654   1.695   2.457   4.644  0.1305  0.3215 -0.1154
  722POPC   GL1 8655   1.653   2.541   5.057  0.2014  0.1416  0.3772
  722POPC   GL2 8656   1.572   2.735   5.238  0.0093 -0.0719 -0.2906
  722POPC   C1A 8657   1.732   2.296   5.480 -0.2670 -0.0533  0.0623
  722POPC   D2A 8658   1.977   1.987   5.623 -0.1880  0.3597 -0.0182
  722POPC   C3A 8659   1.731   1.621   5.758  0.2762  0.1893 -0.2971
  722POPC   C4A 8660   1.575   1.348   6.161 -0.1328 -0.2577  0.0823
  722POPC   C1B 8661   1.434   2.651   5.651 -0.1012 -0.1204 -0.3778
  722POPC   C2B 8662   1.354   2.492   6.127 -0.2324 -0.0352  0.1068
  722POPC   C3B 8663   1.398   2.173   6.471 -0.0616  0.2262 -0.1828
  722POPC   C4B 8664   1.685   1.889   6.680  0.0500  0.2790  0.4052
  723POPC   NC3 8665   1.986   3.421   4.852  0.1696  0.1170 -0.2164
  723POPC   PO4 8666   2.108   3.762   4.999  0.0426  0.0646 -0.0951
  723POPC   GL1 8667   1.971   3.810   5.384 -0.0941  0.1770 -0.1963
  723POPC   GL2 8668   2.150   3.621   5.599 -0.0154 -0.0018  0.0248
  723POPC   C1A 8669   1.855   3.979   5.787 -0.2364 -0.2881 -0.2343
  723POPC   D2A 8670   1.933   4.324   6.082 -0.0227  0.0891  0.3780
  723POPC   C3A 8671   1.634   4.372   6.418 -0.1886 -0.2814 -0.0129
  723POPC   C4A 8672   1.557   4.549   6.816 -0.0138 -0.1369  0.2778
  723POPC   C1B 8673   1.921   3.571   6.042  0.1940  0.4253 -0.0391
  723POPC   C2B 8674   1.782   3.171   6.266 -0.0104 -0.3879  0.0597
  723POPC   C3B 8675   1.839   2.698   6.397 -0.2477 -0.0167 -0.1064
  723POPC   C4B 8676   1.631   2.508   6.751  0.2032  0.1993  0.0536
  724POPC   NC3 8677   2.054   2.764   4.493  0.1178 -0.0544  0.0008
  724POPC   PO4 8678   2.276   3.010   4.725  0.2796 -0.2213 -0.0842
  724POPC   GL1 8679   2.255   2.840   5.028  0.0550  0.2538 -0.3243
  724POPC   GL2 8680   2.131   2.579   4.950  0.0175  0.1958 -0.1827
  724POPC   C1A 8681   2.067   2.703   5.476  0.2341  0.0546 -0.1332
  724POPC   D2A 8682   1.937   2.636   5.910  0.0435 -0.3581  0.1035
  724POPC   C3A 8683   1.799   2.246   6.153  0.0813 -0.1199 -0.0385
  724POPC   C4A 8684   1.526   1.878   6.092  0.1789 -0.0748  0.2275
  724POPC   C1B 8685   2.065   2.163   5.137 -0.0461 -0.0661  0.0083
  724POPC   C2B 8686   1.755   1.863   5.130  0.2750  0.0344 -0.0656
  724POPC   C3B 8687   1.701   1.386   5.255 -0.2083  0.2043 -0.1197
  724POPC   C4B 8688   1.672   1.056   5.623  0.1368 -0.2481 -0.1115
  725POPC   NC3 8689  14.518  13.633   4.119  0.0474  0.2060 -0.0292
  725POPC   PO4 8690  14.845  13.637   4.312  0.1543 -0.0128 -0.0470
  725POPC   GL1 8691  14.774  13.792   4.642 -0.2633  0.1402  0.0390
  725POPC   GL2 8692  14.599  14.017   4.608 -0.0748 -0.2441  0.0785
  725POPC   C1A 8693  14.994  13.844   5.084 -0.0119 -0.1064  0.1825
  725POPC   D2A 8694  15.392  14.017   5.176  0.1532 -0.3993  0.1182
  725POPC   C3A 8695  15.534  14.247   5.556  0.2609  0.0541 -0.3055
  725POPC   C4A 8696  15.686  14.346   5.967 -0.2737  0.0489  0.0662
  725POPC   C1B 8697  14.268  13.930   4.865  0.2576 -0.0924  0.2320
  725POPC   C2B 8698  14.030  13.828   5.242  0.0863  0.2833 -0.3015
  725POPC   C3B 8699  13.691  13.949   5.587  0.2539  0.0868 -0.1107
  725POPC   C4B 8700  13.252  14.084   5.818 -0.1383  0.2655 -0.3089
  726POPC   NC3 8701   6.874   2.737   5.740  0.0244  0.0391 -0.0873
  726POPC   PO4 8702   7.147   2.664   6.016  0.0960  0.3525 -0.1207
  726POPC   GL1 8703   7.001   2.536   6.351  0.0833  0.1855 -0.3628
  726POPC   GL2 8704   7.061   2.550   6.658 -0.0864  0.0860  0.1735
  726POPC   C1A 8705   6.869   2.091   6.481 -0.2107 -0.0629  0.0169
  726POPC   D2A 8706   6.645   1.769   6.715 -0.1001  0.1336  0.0354
  726POPC   C3A 8707   6.633   1.297   6.653  0.1908  0.0435  0.1209
  726POPC   C4A 8708   6.707   0.847   6.688  0.1269 -0.3633 -0.1045
  726POPC   C1B 8709   7.022   2.130   6.953 -0.0362 -0.0871 -0.3123
  726POPC   C2B 8710   7.001   1.697   7.086  0.0874 -0.1320 -0.3530
  726POPC   C3B 8711   6.633   1.433   7.123 -0.0192  0.3264 -0.0827
  726POPC   C4B 8712   6.442   0.996   7.139  0.2119  0.3149  0.3063
  727POPC   NC3 8713  10.165  14.581   5.069 -0.1988  0.0411  0.1793
  727POPC   PO4 8714  10.266  14.264   4.841 -0.0289  0.0681 -0.1448
  727POPC   GL1 8715  10.518  14.274   5.195  0.1477 -0.2453  0.0113
  727POPC   GL2 8716  10.658  14.049   5.178 -0.0754 -0.0267  0.2082
  727POPC   C1A 8717  10.883  14.355   5.468 -0.0588 -0.0961 -0.0884
  727POPC   D2A 8718  10.954  14.495   5.922  0.1265  0.1376 -0.0050
  727POPC   C3A 8719  11.270  14.501   6.253 -0.0669 -0.4258 -0.1447
  727POPC   C4A 8720  11.658  14.257   6.421  0.1509  0.0515 -0.3079
  727POPC   C1B 8721  10.703  13.862   5.577 -0.2767 -0.1443 -0.0440
  727POPC   C2B 8722  10.809  13.954   6.071  0.1732  0.0996  0.2765
  727POPC   C3B 8723  10.951  13.983   6.525  0.0015 -0.1394  0.2220
  727POPC   C4B 8724  11.111  14.183   6.916 -0.0734  0.0387  0.0841
  728POPC   NC3 8725   2.559  10.332   4.573 -0.0788  0.1329  0.2335
  728POPC   PO4 8726   2.658   9.971   4.561  0.0275  0.2734  0.0097
  728POPC   GL1 8727   2.877  10.047   4.917 -0.2033 -0.1513 -0.1157
  728POPC   GL2 8728   3.136  10.221   4.819 -0.1070  0.0312  0.0957
  728POPC   C1A 8729   2.800  10.372   5.255 -0.0273 -0.1390 -0.0595
  728POPC   D2A 8730   3.008  10.212   5.629  0.0940 -0.2108  0.2077
  728POPC   C3A 8731   3.084  10.217   6.028  0.0514 -0.1861  0.0702
  728POPC   C4A 8732   3.218  10.107   6.441 -0.2722 -0.2051  0.0832
  728POPC   C1B 8733   3.297  10.126   5.227 -0.1320 -0.3029  0.0808
  728POPC   C2B 8734   3.493  10.304   5.640  0.0878  0.2486  0.1319
  728POPC   C3B 8735   3.737  10.612   5.867 -0.1854  0.2841  0.0157
  728POPC   C4B 8736   3.665  10.945   6.146  0.1327 -0.2488 -0.0379
  729POPC   NC3 8737   8.988   4.891  11.789 -0.1943 -0.0592 -0.2396
  729POPC   PO4 8738   8.656   4.945  11.561  0.3871  0.1033 -0.3086
  729POPC   GL1 8739   8.421   4.738  11.636 -0.1884  0.0782 -0.0068
  729POPC   GL2 8740   8.425   4.682  11.943  0.2968 -0.2717 -0.3452
  729POPC   C1A 8741   8.145   4.373  11.487 -0.0435 -0.0742 -0.2981
  729POPC   D2A 8742   7.912   4.038  11.401  0.1328 -0.0469  0.0375
  729POPC   C3A 8743   7.963   3.653  11.630 -0.0663  0.0623 -0.1254
  729POPC   C4A 8744   8.182   3.285  11.479 -0.3143  0.1977 -0.5415
  729POPC   C1B 8745   8.282   4.533  12.408 -0.3049 -0.0174  0.0491
  729POPC   C2B 8746   8.108   4.208  12.668  0.0828 -0.1254  0.2701
  729POPC   C3B 8747   8.060   3.820  12.888 -0.2095 -0.2492 -0.1080
  729POPC   C4B 8748   8.164   3.371  13.021  0.1561 -0.0445 -0.0502
  730POPC   NC3 8749  13.645   7.519   6.499  0.3472  0.1073 -0.0932
  730POPC   PO4 8750  13.917   7.314   6.301 -0.1414 -0.1317 -0.1681
  730POPC   GL1 8751  14.125   7.579   6.620  0.0902  0.6745  0.0528
  730POPC   GL2 8752  14.397   7.628   6.499  0.1319  0.2157  0.0723
  730POPC   C1A 8753  14.175   7.692   7.090  0.1002  0.1454  0.3109
  730POPC   D2A 8754  14.239   7.776   7.502  0.1816 -0.2974  0.0623
  730POPC   C3A 8755  14.012   7.940   7.930  0.0725  0.3593  0.5049
  730POPC   C4A 8756  13.993   7.924   8.432 -0.1584 -0.0938  0.3560
  730POPC   C1B 8757  14.619   7.677   6.926  0.2120 -0.0752  0.0994
  730POPC   C2B 8758  14.766   7.878   7.304  0.1602  0.1838 -0.0702
  730POPC   C3B 8759  14.967   7.775   7.641  0.2615  0.0812 -0.0762
  730POPC   C4B 8760  15.235   7.740   7.964  0.2576  0.0447  0.0405
  731POPC   NC3 8761   7.508  13.334   4.109 -0.0201 -0.1787  0.0850
  731POPC   PO4 8762   7.566  13.346   4.510 -0.0923  0.2914  0.0557
  731POPC   GL1 8763   7.517  13.356   4.889  0.1150  0.0523 -0.0373
  731POPC   GL2 8764   7.163  13.279   4.858 -0.0732  0.0182 -0.0270
  731POPC   C1A 8765   7.668  13.417   5.324  0.1043 -0.0753 -0.1401
  731POPC   D2A 8766   7.975  13.367   5.689  0.2458 -0.1119  0.0230
  731POPC   C3A 8767   8.231  13.476   6.001 -0.3134 -0.2448  0.0860
  731POPC   C4A 8768   8.525  13.792   6.009  0.1720 -0.3680  0.1302
  731POPC   C1B 8769   6.755  13.454   5.033 -0.0456 -0.1183 -0.0243
  731POPC   C2B 8770   6.522  13.644   5.365  0.2756  0.0844  0.1997
  731POPC   C3B 8771   6.225  13.743   5.739 -0.0688 -0.3828  0.0282
  731POPC   C4B 8772   6.109  13.766   6.143  0.0688 -0.1927  0.0036
  732POPC   NC3 8773   5.888   4.788   5.921 -0.1076  0.0091  0.3544
  732POPC   PO4 8774   5.878   4.675   6.310 -0.1958  0.2576  0.1593
  732POPC   GL1 8775   5.801   4.660   6.669 -0.0966 -0.1271 -0.1541
  732POPC   GL2 8776   5.629   4.898   6.726 -0.0471  0.1387 -0.1246
  732POPC   C1A 8777   5.478   4.373   6.967  0.1497  0.2537  0.2400
  732POPC   D2A 8778   5.302   4.101   7.300 -0.1156 -0.0960  0.2902
  732POPC   C3A 8779   4.879   4.209   7.418 -0.1646 -0.1289  0.0211
  732POPC   C4A 8780   4.424   4.132   7.548  0.0632 -0.3766  0.2675
  732POPC   C1B 8781   5.536   4.852   7.155 -0.1433  0.2162 -0.0396
  732POPC   C2B 8782   5.330   4.577   7.508 -0.0059  0.1008 -0.2859
  732POPC   C3B 8783   5.336   4.351   7.929 -0.0071 -0.0871 -0.2157
  732POPC   C4B 8784   5.425   4.000   8.264 -0.0876 -0.1267  0.2130
  733POPC   NC3 8785  12.791   2.471   5.645 -0.2057 -0.1154 -0.1468
  733POPC   PO4 8786  12.534   2.199   5.604  0.0601 -0.3592  0.4003
  733POPC   GL1 8787  12.748   2.080   5.880  0.2173 -0.0748 -0.2575
  733POPC   GL2 8788  12.665   2.233   6.114 -0.1937  0.0868 -0.1381
  733POPC   C1A 8789  12.742   1.711   6.198  0.0095 -0.0327 -0.0246
  733POPC   D2A 8790  12.726   1.584   6.657  0.0175 -0.0631  0.0429
  733POPC   C3A 8791  12.567   1.277   6.926 -0.1376 -0.5472  0.1155
  733POPC   C4A 8792  12.301   1.050   7.218  0.0752 -0.0499 -0.1350
  733POPC   C1B 8793  12.633   2.102   6.569  0.1430  0.0615  0.0923
  733POPC   C2B 8794  12.684   2.095   7.032 -0.0729 -0.2974 -0.0041
  733POPC   C3B 8795  12.817   1.630   7.156 -0.4290  0.0212 -0.1764
  733POPC   C4B 8796  13.019   1.233   7.014 -0.3610 -0.0318 -0.2130
  734POPC   NC3 8797   4.896  12.223   4.666  0.0125  0.3679 -0.0061
  734POPC   PO4 8798   4.646  12.501   4.604  0.1263 -0.1106  0.0060
  734POPC   GL1 8799   4.668  12.521   4.985  0.2966 -0.0579  0.0900
  734POPC   GL2 8800   4.417  12.404   5.106 -0.1237  0.1706  0.0511
  734POPC   C1A 8801   4.880  12.664   5.417 -0.1573 -0.0371 -0.2030
  734POPC   D2A 8802   4.763  12.681   5.879 -0.3780  0.0272 -0.0089
  734POPC   C3A 8803   4.997  12.979   6.156 -0.0974 -0.1912  0.1365
  734POPC   C4A 8804   5.018  13.397   6.456  0.0312  0.2646  0.1510
  734POPC   C1B 8805   4.395  12.538   5.543 -0.2262  0.0908 -0.0329
  734POPC   C2B 8806   4.224  12.534   5.991  0.2015 -0.4480 -0.0586
  734POPC   C3B 8807   3.953  12.823   6.295  0.0112  0.1071  0.1646
  734POPC   C4B 8808   4.056  13.047   6.735  0.1340 -0.2604 -0.0519
  735POPC   NC3 8809   8.260   3.439   7.101 -0.1579  0.1191 -0.4905
  735POPC   PO4 8810   8.436   3.205   6.841  0.1296 -0.0594  0.0803
  735POPC   GL1 8811   8.283   2.978   7.088 -0.1387 -0.0258 -0.1319
  735POPC   GL2 8812   8.133   2.781   6.917  0.1235 -0.1056 -0.1226
  735POPC   C1A 8813   7.962   2.968   7.415  0.0858 -0.2146  0.1697
  735POPC   D2A 8814   7.798   2.821   7.864 -0.1026 -0.0378  0.2490
  735POPC   C3A 8815   7.499   2.454   7.830 -0.0503  0.2519  0.2154
  735POPC   C4A 8816   7.388   2.047   7.932 -0.0543 -0.1939 -0.2779
  735POPC   C1B 8817   8.316   2.483   7.202 -0.1821 -0.0118 -0.3152
  735POPC   C2B 8818   8.446   2.261   7.560  0.0667  0.0508  0.0567
  735POPC   C3B 8819   8.787   2.045   7.719 -0.0205  0.1324  0.0635
  735POPC   C4B 8820   8.876   1.654   7.908 -0.1037  0.1628 -0.2137
  736POPC   NC3 8821   0.390  12.767   4.136  0.1279 -0.2001  0.1257
  736POPC   PO4 8822   0.151  12.478   4.306  0.1382 -0.1889 -0.0179
  736POPC   GL1 8823   0.046  12.261   4.654  0.2251  0.0075  0.1876
  736POPC   GL2 8824   0.338  12.128   4.674  0.1200  0.3602  0.1698
  736POPC   C1A 8825  -0.081  12.266   5.073  0.3134 -0.2759  0.3634
  736POPC   D2A 8826  -0.280  12.547   5.399 -0.3628 -0.2659 -0.2147
  736POPC   C3A 8827  -0.600  12.404   5.705  0.0150 -0.1439 -0.0625
  736POPC   C4A 8828  -0.942  12.532   5.951  0.0358 -0.0771 -0.4345
  736POPC   C1B 8829   0.514  12.251   5.087  0.2683 -0.0928  0.0494
  736POPC   C2B 8830   0.687  12.322   5.510  0.1979 -0.1257  0.0161
  736POPC   C3B 8831   0.722  12.347   5.937 -0.1237 -0.3819 -0.1381
  736POPC   C4B 8832   0.554  12.410   6.369 -0.1741 -0.1503  0.0434
  737POPC   NC3 8833   7.774   5.530   8.427 -0.0479 -0.3127 -0.1680
  737POPC   PO4 8834   7.939   5.242   8.605 -0.3107 -0.1901 -0.1829
  737POPC   GL1 8835   7.790   4.988   8.918  0.0468 -0.1898 -0.2368
  737POPC   GL2 8836   7.546   4.934   8.872  0.0473 -0.0499 -0.2350
  737POPC   C1A 8837   7.553   5.180   9.282 -0.2148 -0.0245 -0.1055
  737POPC   D2A 8838   7.299   5.494   9.420 -0.1201 -0.0251 -0.1236
  737POPC   C3A 8839   7.154   5.766   9.051 -0.1165  0.0546 -0.1333
  737POPC   C4A 8840   7.145   5.701   8.579  0.1924  0.0020  0.0207
  737POPC   C1B 8841   7.171   4.767   9.051  0.1613  0.1312 -0.2003
  737POPC   C2B 8842   6.938   4.410   9.212 -0.3328 -0.3221 -0.1372
  737POPC   C3B 8843   6.848   4.079   9.472 -0.0642  0.1015 -0.1037
  737POPC   C4B 8844   6.653   3.671   9.422  0.1267  0.0356  0.0618
  738POPC   NC3 8845  14.025   5.716   5.907 -0.0901 -0.3746 -0.0276
  738POPC   PO4 8846  14.247   6.027   5.860  0.1311 -0.0484 -0.2086
  738POPC   GL1 8847  14.591   5.991   6.053  0.1520  0.2372 -0.2415
  738POPC   GL2 8848  14.628   6.196   6.161  0.3221 -0.0852 -0.3155
  738POPC   C1A 8849  14.810   5.723   6.367  0.1952 -0.4488 -0.0832
  738POPC   D2A 8850  14.833   5.664   6.808  0.1639 -0.0753 -0.2666
  738POPC   C3A 8851  15.271   5.665   6.957  0.0445 -0.1546  0.0944
  738POPC   C4A 8852  15.624   5.411   7.023  0.0582 -0.0436 -0.3966
  738POPC   C1B 8853  14.808   6.167   6.628  0.2616  0.1535  0.0308
  738POPC   C2B 8854  15.018   6.066   7.026  0.0438  0.0106  0.2373
  738POPC   C3B 8855  15.281   6.084   7.405 -0.0455 -0.0356 -0.2749
  738POPC   C4B 8856  15.502   6.137   7.774  0.0612 -0.0845 -0.0330
  739POPC   NC3 8857   3.730   6.146   5.181  0.0743  0.2701 -0.2338
  739POPC   PO4 8858   3.630   5.970   5.553  0.0479 -0.1310 -0.2333
  739POPC   GL1 8859   3.583   6.144   5.978 -0.0002  0.2363 -0.3434
  739POPC   GL2 8860   3.588   5.871   6.073 -0.1762  0.0906  0.0375
  739POPC   C1A 8861   3.741   6.327   6.373  0.2264  0.0344  0.1881
  739POPC   D2A 8862   3.827   6.653   6.655  0.0133  0.1029  0.1939
  739POPC   C3A 8863   3.978   6.774   7.076  0.1011 -0.1865 -0.0718
  739POPC   C4A 8864   4.192   6.761   7.494 -0.0508 -0.0338  0.1479
  739POPC   C1B 8865   3.795   5.710   6.466 -0.2463  0.3672 -0.1413
  739POPC   C2B 8866   4.089   5.771   6.882  0.3068  0.1650 -0.1753
  739POPC   C3B 8867   4.344   5.809   7.291  0.2106  0.0981 -0.2349
  739POPC   C4B 8868   4.650   5.816   7.618  0.1538 -0.1772  0.2250
  740POPC   NC3 8869   0.469   4.893   4.683 -0.2868 -0.0536  0.2047
  740POPC   PO4 8870   0.593   4.634   4.957  0.2618  0.1909  0.1299
  740POPC   GL1 8871   0.727   4.592   5.326  0.2592 -0.2638 -0.2917
  740POPC   GL2 8872   0.637   4.321   5.344  0.1006  0.0548  0.1032
  740POPC   C1A 8873   0.834   4.555   5.792  0.0488  0.0945 -0.0144
  740POPC   D2A 8874   1.115   4.332   6.065 -0.1965 -0.5436 -0.2506
  740POPC   C3A 8875   1.156   4.169   6.497  0.0612 -0.1967 -0.1355
  740POPC   C4A 8876   1.019   4.267   6.941  0.3836  0.3002  0.3078
  740POPC   C1B 8877   0.797   4.017   5.656 -0.1285  0.1987  0.3044
  740POPC   C2B 8878   0.922   3.853   6.106 -0.0905  0.0077  0.0654
  740POPC   C3B 8879   0.952   3.680   6.574  0.0773 -0.1256 -0.0892
  740POPC   C4B 8880   1.148   3.428   6.870 -0.2257  0.3023  0.1057
  741POPC   NC3 8881  13.256   5.363   6.310 -0.1085  0.0263 -0.3402
  741POPC   PO4 8882  13.032   5.535   6.592  0.0880  0.0076 -0.1254
  741POPC   GL1 8883  13.286   5.548   6.739 -0.2696 -0.3162  0.2322
  741POPC   GL2 8884  13.265   5.868   6.869  0.5260 -0.1651 -0.0878
  741POPC   C1A 8885  13.637   5.562   7.036 -0.2159 -0.0402 -0.0914
  741POPC   D2A 8886  13.714   5.385   7.434  0.0028 -0.0285  0.0138
  741POPC   C3A 8887  13.865   5.094   7.751 -0.0512 -0.3823 -0.0372
  741POPC   C4A 8888  13.980   4.876   8.137  0.2310  0.0530  0.2008
  741POPC   C1B 8889  13.165   5.563   7.208  0.2150 -0.0427 -0.2904
  741POPC   C2B 8890  13.184   5.324   7.646  0.2454  0.3002  0.2532
  741POPC   C3B 8891  13.369   4.996   7.900  0.0091  0.1385 -0.1697
  741POPC   C4B 8892  13.454   4.692   8.278  0.0175 -0.1098  0.2655
  742POPC   NC3 8893   7.949  11.110   5.321 -0.2724 -0.1743 -0.0596
  742POPC   PO4 8894   7.993  10.751   5.418 -0.1429 -0.0050  0.0717
  742POPC   GL1 8895   7.998  10.983   5.778 -0.0462  0.3312  0.1763
  742POPC   GL2 8896   7.742  11.180   5.837  0.3213 -0.0686 -0.0275
  742POPC   C1A 8897   7.794  10.846   6.203  0.0069  0.0846  0.2113
  742POPC   D2A 8898   7.709  11.072   6.571  0.0435 -0.1080  0.1173
  742POPC   C3A 8899   7.782  10.780   6.901  0.4265  0.0083 -0.0549
  742POPC   C4A 8900   8.106  10.472   6.996  0.0208 -0.1532 -0.0995
  742POPC   C1B 8901   7.837  11.365   6.222 -0.1251  0.4030 -0.1579
  742POPC   C2B 8902   8.124  11.249   6.558  0.1778 -0.0358  0.0651
  742POPC   C3B 8903   8.254  10.980   6.948  0.1387 -0.0997  0.0397
  742POPC   C4B 8904   8.638  11.031   7.274  0.1138  0.1663  0.0656
  743POPC   NC3 8905  14.472   6.544   5.614  0.1454 -0.0670 -0.1172
  743POPC   PO4 8906  14.524   6.821   5.888 -0.0669 -0.3270  0.2448
  743POPC   GL1 8907  14.528   6.732   6.336  0.0696  0.1736 -0.1836
  743POPC   GL2 8908  14.839   6.603   6.332  0.1225 -0.2599 -0.0718
  743POPC   C1A 8909  14.522   6.804   6.812  0.1957 -0.2148  0.1725
  743POPC   D2A 8910  14.755   6.674   7.192 -0.0684  0.0365  0.0836
  743POPC   C3A 8911  15.064   6.877   7.434 -0.3917 -0.1806 -0.0582
  743POPC   C4A 8912  15.429   7.148   7.332 -0.1847 -0.0814  0.2229
  743POPC   C1B 8913  15.162   6.557   6.711 -0.0982  0.1123  0.0005
  743POPC   C2B 8914  15.289   6.471   7.138 -0.3632 -0.0877  0.1575
  743POPC   C3B 8915  15.467   6.542   7.533 -0.2038  0.0288  0.0839
  743POPC   C4B 8916  15.874   6.502   7.724 -0.1237 -0.3260  0.0361
  744POPC   NC3 8917   5.205  12.790   4.067  0.0706 -0.0293 -0.0329
  744POPC   PO4 8918   4.974  12.856   4.371  0.1654 -0.1273 -0.1259
  744POPC   GL1 8919   5.085  12.759   4.706 -0.1563 -0.2861 -0.3239
  744POPC   GL2 8920   4.952  12.898   4.958  0.2081 -0.2697  0.0579
  744POPC   C1A 8921   5.205  12.432   5.017 -0.1257  0.1173 -0.0768
  744POPC   D2A 8922   5.220  12.312   5.490 -0.0264  0.2983 -0.0798
  744POPC   C3A 8923   5.357  12.383   5.937  0.3527  0.2233 -0.0937
  744POPC   C4A 8924   5.454  12.407   6.397  0.2157  0.1469 -0.0591
  744POPC   C1B 8925   5.313  12.954   5.262 -0.1169  0.2635  0.0508
  744POPC   C2B 8926   5.378  12.898   5.710 -0.0739  0.1956 -0.3790
  744POPC   C3B 8927   5.475  12.880   6.185  0.1903  0.2091 -0.1888
  744POPC   C4B 8928   5.391  12.914   6.622  0.4084  0.3093  0.0620
  745POPC   NC3 8929   5.294   1.920   5.070  0.0406  0.2684  0.0506
  745POPC   PO4 8930   5.200   2.039   5.442 -0.1727 -0.1470  0.1570
  745POPC   GL1 8931   4.857   1.769   5.676  0.2986 -0.3177  0.1472
  745POPC   GL2 8932   4.539   1.852   5.649  0.1395  0.0074 -0.0242
  745POPC   C1A 8933   4.836   1.545   6.097 -0.1899 -0.1727 -0.1146
  745POPC   D2A 8934   4.689   1.376   6.465 -0.1889  0.0818 -0.1296
  745POPC   C3A 8935   4.287   1.284   6.680  0.1078 -0.2281 -0.0351
  745POPC   C4A 8936   3.861   1.259   6.700  0.0372  0.0214 -0.2626
  745POPC   C1B 8937   4.384   1.511   5.962 -0.1599  0.3667  0.2060
  745POPC   C2B 8938   4.072   1.242   6.198 -0.2031  0.1272 -0.0090
  745POPC   C3B 8939   3.765   0.925   6.340 -0.1940 -0.1992  0.0390
  745POPC   C4B 8940   3.614   0.509   6.391 -0.0196  0.0797  0.0626
  746POPC   NC3 8941   3.335  12.114   3.843  0.2754  0.1151  0.2149
  746POPC   PO4 8942   3.368  12.273   4.174  0.3391  0.2935 -0.1141
  746POPC   GL1 8943   3.167  12.067   4.535 -0.2329  0.0146  0.1598
  746POPC   GL2 8944   2.994  12.193   4.687 -0.3164 -0.2377  0.0230
  746POPC   C1A 8945   3.350  12.017   4.959 -0.1929  0.1376  0.0502
  746POPC   D2A 8946   3.551  12.034   5.410  0.0224  0.1946 -0.2781
  746POPC   C3A 8947   3.465  12.078   5.908 -0.1907 -0.0862 -0.1168
  746POPC   C4A 8948   3.765  12.226   6.181 -0.0837 -0.0465 -0.1333
  746POPC   C1B 8949   3.056  12.335   5.171 -0.1721 -0.0085  0.0827
  746POPC   C2B 8950   3.042  12.100   5.603  0.0860 -0.3410  0.0125
  746POPC   C3B 8951   2.994  11.821   5.971  0.3091 -0.2769 -0.1201
  746POPC   C4B 8952   3.022  11.445   6.161 -0.0514  0.2123 -0.0162
  747POPC   NC3 8953   2.193   5.537   4.877  0.0648 -0.0359  0.1334
  747POPC   PO4 8954   1.861   5.353   4.963  0.1119 -0.1782  0.0155
  747POPC   GL1 8955   1.679   5.370   5.318  0.0375 -0.1507  0.1463
  747POPC   GL2 8956   1.744   5.211   5.582  0.1827  0.1531  0.3094
  747POPC   C1A 8957   1.296   5.427   5.538 -0.1382 -0.2388  0.0496
  747POPC   D2A 8958   1.064   5.309   5.904  0.2789  0.0143  0.1375
  747POPC   C3A 8959   1.108   5.521   6.271  0.1284 -0.0759 -0.0548
  747POPC   C4A 8960   1.344   5.538   6.683 -0.0382  0.1526  0.2331
  747POPC   C1B 8961   2.076   5.384   5.876 -0.2767  0.2242 -0.0850
  747POPC   C2B 8962   2.284   5.442   6.313 -0.3256 -0.1402 -0.0054
  747POPC   C3B 8963   2.476   5.207   6.692 -0.2226 -0.0408  0.2688
  747POPC   C4B 8964   2.854   5.270   6.903  0.1085 -0.2068 -0.6315
  748POPC   NC3 8965   6.138   5.237   6.212  0.1774 -0.0445 -0.1032
  748POPC   PO4 8966   5.940   5.282   6.563 -0.0392  0.2142 -0.0057
  748POPC   GL1 8967   5.623   5.459   6.561 -0.2317  0.1530  0.2582
  748POPC   GL2 8968   5.737   5.754   6.624  0.1226 -0.1157  0.1111
  748POPC   C1A 8969   5.220   5.621   6.446 -0.1419 -0.2809 -0.3116
  748POPC   D2A 8970   4.842   5.740   6.725 -0.3053  0.3313  0.1501
  748POPC   C3A 8971   4.618   5.509   7.026 -0.0804 -0.1459  0.1863
  748POPC   C4A 8972   4.879   5.480   7.352 -0.1580 -0.1195  0.0649
  748POPC   C1B 8973   5.464   5.586   6.954  0.3302 -0.0527  0.0970
  748POPC   C2B 8974   5.358   5.666   7.406  0.2410  0.2034 -0.1686
  748POPC   C3B 8975   5.270   5.667   7.830 -0.1933 -0.0913 -0.0573
  748POPC   C4B 8976   5.248   5.838   8.315 -0.2117 -0.1410 -0.0420
  749POPC   NC3 8977  13.740  11.105   4.303  0.0157  0.0825  0.0276
  749POPC   PO4 8978  13.788  11.052   4.699 -0.2523  0.0919 -0.1313
  749POPC   GL1 8979  13.918  11.359   4.956  0.0669  0.2696  0.2365
  749POPC   GL2 8980  14.009  11.529   4.806  0.0170  0.2220  0.0174
  749POPC   C1A 8981  14.245  11.277   5.256  0.1226  0.1326 -0.2405
  749POPC   D2A 8982  14.541  10.886   5.260  0.1563 -0.0498 -0.0993
  749POPC   C3A 8983  14.935  10.715   5.176  0.0040  0.3518 -0.1160
  749POPC   C4A 8984  15.325  10.759   5.415 -0.0116 -0.0944  0.2487
  749POPC   C1B 8985  13.967  11.691   5.246  0.1178 -0.0959 -0.1618
  749POPC   C2B 8986  13.958  11.853   5.701  0.0518  0.0054 -0.1437
  749POPC   C3B 8987  13.997  11.728   6.119  0.3038 -0.2578  0.5044
  749POPC   C4B 8988  14.030  11.742   6.631  0.2408 -0.0782 -0.1982
  750POPC   NC3 8989  15.553  10.035   4.984  0.1100 -0.1655  0.0630
  750POPC   PO4 8990  15.144  10.098   4.891  0.0242  0.2370  0.0593
  750POPC   GL1 8991  15.182  10.005   5.318 -0.1319 -0.2745 -0.2895
  750POPC   GL2 8992  15.191  10.272   5.372  0.0258  0.4785  0.2404
  750POPC   C1A 8993  15.098   9.923   5.798 -0.1961  0.1542  0.2181
  750POPC   D2A 8994  15.256   9.900   6.252 -0.0569  0.0177  0.2681
  750POPC   C3A 8995  15.267  10.343   6.393  0.2595  0.0141 -0.5068
  750POPC   C4A 8996  14.904  10.616   6.593 -0.0358  0.2224 -0.0028
  750POPC   C1B 8997  15.237  10.459   5.792  0.2715 -0.0633 -0.1467
  750POPC   C2B 8998  15.114  10.751   6.102 -0.1530 -0.0556  0.0217
  750POPC   C3B 8999  15.174  11.192   6.181  0.4462 -0.1299 -0.3089
  750POPC   C4B 9000  15.221  11.532   5.943 -0.1064 -0.1081 -0.0592
  751POPC   NC3 9001   8.648  13.228   4.945 -0.0741  0.0083 -0.4182
  751POPC   PO4 9002   8.460  13.580   4.995  0.1255  0.0067 -0.1645
  751POPC   GL1 9003   8.514  13.699   5.279 -0.1447 -0.2268 -0.0347
  751POPC   GL2 9004   8.682  13.830   5.413  0.2228  0.1570 -0.2222
  751POPC   C1A 9005   8.585  13.407   5.586 -0.2720  0.0212 -0.2055
  751POPC   D2A 9006   8.475  12.994   5.778 -0.0317  0.1234  0.2895
  751POPC   C3A 9007   8.357  13.065   6.240  0.0373 -0.0106  0.2007
  751POPC   C4A 9008   8.416  12.841   6.701 -0.1512 -0.0660 -0.1400
  751POPC   C1B 9009   8.224  13.842   5.649  0.0013  0.1022  0.0505
  751POPC   C2B 9010   8.027  14.061   6.005 -0.4252 -0.3761  0.0771
  751POPC   C3B 9011   8.335  14.065   6.386 -0.0878  0.1227  0.1032
  751POPC   C4B 9012   8.219  14.235   6.792  0.0985  0.0018  0.3104
  752POPC   NC3 9013   0.305   8.765   4.884  0.2022  0.0482 -0.2056
  752POPC   PO4 9014   0.136   8.517   5.150  0.0539  0.0493  0.0234
  752POPC   GL1 9015   0.202   8.297   5.465 -0.1409 -0.0821 -0.1296
  752POPC   GL2 9016  -0.033   8.326   5.584  0.2244 -0.1120  0.1714
  752POPC   C1A 9017   0.612   8.194   5.611 -0.1628  0.0886  0.0986
  752POPC   D2A 9018   0.924   8.217   5.954 -0.2036  0.0074  0.0342
  752POPC   C3A 9019   0.806   8.247   6.400  0.0394  0.2275 -0.1348
  752POPC   C4A 9020   0.731   8.630   6.622 -0.0109  0.0131  0.3713
  752POPC   C1B 9021   0.174   8.414   5.965 -0.1322 -0.2734  0.0480
  752POPC   C2B 9022   0.163   8.380   6.402  0.0510  0.1783 -0.2872
  752POPC   C3B 9023   0.311   8.392   6.834 -0.0534 -0.2658 -0.1757
  752POPC   C4B 9024   0.205   8.104   7.153 -0.1997 -0.0099  0.1595
  753POPC   NC3 9025   3.040   8.678   4.579 -0.1301 -0.0402  0.0698
  753POPC   PO4 9026   3.166   8.577   4.896  0.1616  0.1523 -0.0167
  753POPC   GL1 9027   3.318   8.721   5.217  0.1085  0.3059 -0.0771
  753POPC   GL2 9028   3.521   8.670   5.441  0.0158 -0.2752 -0.2475
  753POPC   C1A 9029   3.078   8.730   5.605  0.1903 -0.0562  0.0357
  753POPC   D2A 9030   2.930   8.879   6.046  0.1677  0.1990 -0.1795
  753POPC   C3A 9031   3.014   8.678   6.447  0.1029  0.1653 -0.3835
  753POPC   C4A 9032   3.205   8.486   6.796 -0.1105  0.3397  0.2573
  753POPC   C1B 9033   3.496   8.988   5.773 -0.0561 -0.3894  0.2255
  753POPC   C2B 9034   3.459   8.997   6.244  0.0328  0.3510 -0.0399
  753POPC   C3B 9035   3.488   8.995   6.649 -0.0990  0.4392 -0.3074
  753POPC   C4B 9036   3.685   8.648   6.915  0.0735 -0.2378 -0.2011
  754POPC   NC3 9037  12.954   3.379   5.876 -0.0131  0.4444  0.1288
  754POPC   PO4 9038  13.271   3.503   5.688  0.0690  0.0446  0.1971
  754POPC   GL1 9039  13.495   3.474   6.053 -0.1396  0.0480 -0.1407
  754POPC   GL2 9040  13.410   3.186   6.089  0.0274  0.4362  0.2942
  754POPC   C1A 9041  13.917   3.344   6.199  0.1772  0.1286  0.0155
  754POPC   D2A 9042  14.372   3.363   6.345 -0.2272 -0.1585  0.0675
  754POPC   C3A 9043  14.526   3.291   6.695 -0.1399  0.0707 -0.1421
  754POPC   C4A 9044  14.746   2.999   7.059 -0.2718 -0.0961 -0.1651
  754POPC   C1B 9045  13.647   2.921   6.352  0.2799 -0.0807 -0.1133
  754POPC   C2B 9046  13.925   2.612   6.489 -0.1049  0.0889 -0.0939
  754POPC   C3B 9047  14.141   2.411   6.830  0.2387  0.1098 -0.1684
  754POPC   C4B 9048  14.147   2.208   7.266 -0.2607  0.4584 -0.4733
  755POPC   NC3 9049   8.099   4.602   8.770 -0.0763  0.1523  0.1299
  755POPC   PO4 9050   7.875   4.723   8.452 -0.1007 -0.1722 -0.2891
  755POPC   GL1 9051   7.535   4.518   8.443  0.1715  0.0632 -0.2733
  755POPC   GL2 9052   7.629   4.168   8.402  0.1486 -0.1792 -0.0184
  755POPC   C1A 9053   7.232   4.380   8.728  0.3162 -0.0491 -0.0805
  755POPC   D2A 9054   6.977   4.024   8.894 -0.1543 -0.0439 -0.2932
  755POPC   C3A 9055   6.616   3.728   8.893 -0.0295  0.2257 -0.0098
  755POPC   C4A 9056   6.350   3.412   9.106 -0.2124 -0.3249 -0.3026
  755POPC   C1B 9057   7.552   3.688   8.407  0.1562  0.0805 -0.1534
  755POPC   C2B 9058   7.448   3.299   8.720 -0.0495 -0.0368  0.1270
  755POPC   C3B 9059   7.372   3.088   9.072 -0.1012  0.0613 -0.0737
  755POPC   C4B 9060   7.162   2.743   9.266  0.2354  0.0456 -0.0602
  756POPC   NC3 9061   0.459   4.142   4.919 -0.2625 -0.0993 -0.0940
  756POPC   PO4 9062   0.124   3.999   5.074  0.1179 -0.2797 -0.0860
  756POPC   GL1 9063   0.005   3.993   5.384  0.0303  0.1683  0.2470
  756POPC   GL2 9064  -0.168   3.851   5.547 -0.1908  0.2141 -0.0074
  756POPC   C1A 9065   0.248   4.070   5.777 -0.2000  0.0648 -0.0685
  756POPC   D2A 9066   0.557   4.218   6.141 -0.0225 -0.1167  0.3799
  756POPC   C3A 9067   0.496   3.971   6.549 -0.0655 -0.1232  0.1446
  756POPC   C4A 9068   0.708   3.850   6.969 -0.1601 -0.1759 -0.0403
  756POPC   C1B 9069  -0.063   3.571   5.845  0.2423  0.0676 -0.1538
  756POPC   C2B 9070   0.036   3.250   6.103  0.1455 -0.2552  0.1466
  756POPC   C3B 9071  -0.040   3.097   6.528 -0.0865  0.2218 -0.0217
  756POPC   C4B 9072  -0.048   3.047   7.001  0.0975  0.0304  0.0518
  757POPC   NC3 9073  11.508   6.410   8.670 -0.0564  0.0584  0.0457
  757POPC   PO4 9074  11.712   6.461   8.380  0.0869  0.0165  0.0542
  757POPC   GL1 9075  11.990   6.331   8.610  0.0646  0.0255 -0.3470
  757POPC   GL2 9076  12.132   6.600   8.605 -0.2768 -0.0452 -0.1270
  757POPC   C1A 9077  12.422   6.189   8.707  0.1095 -0.2468  0.2233
  757POPC   D2A 9078  12.914   6.076   8.703  0.0866 -0.1529 -0.0941
  757POPC   C3A 9079  13.197   6.421   8.818 -0.1354  0.2377  0.1149
  757POPC   C4A 9080  13.407   6.750   8.936  0.2257 -0.5306 -0.3455
  757POPC   C1B 9081  12.511   6.708   8.748 -0.0166  0.2367  0.1055
  757POPC   C2B 9082  12.707   6.699   9.172  0.0963 -0.0785 -0.1949
  757POPC   C3B 9083  13.118   6.547   9.404  0.3712  0.0764 -0.1512
  757POPC   C4B 9084  13.465   6.468   9.652  0.0343  0.4194  0.3693
  758POPC   NC3 9085  11.749   7.391   7.921 -0.2439  0.2691 -0.0934
  758POPC   PO4 9086  11.741   7.665   7.662  0.0957 -0.2484  0.1125
  758POPC   GL1 9087  11.689   8.022   7.744  0.0886 -0.0707  0.2342
  758POPC   GL2 9088  11.439   8.157   7.931 -0.0316 -0.2220  0.0519
  758POPC   C1A 9089  11.877   8.071   8.134 -0.1549  0.2765 -0.1234
  758POPC   D2A 9090  11.944   7.935   8.588 -0.0027 -0.1790  0.0773
  758POPC   C3A 9091  12.053   8.090   9.052 -0.1158  0.0668  0.3862
  758POPC   C4A 9092  12.177   8.401   9.365  0.0944  0.1133  0.2166
  758POPC   C1B 9093  11.588   8.542   8.098 -0.1806 -0.2225  0.0429
  758POPC   C2B 9094  11.829   8.793   8.401 -0.2740 -0.1970 -0.0805
  758POPC   C3B 9095  12.238   8.826   8.640  0.0234 -0.0258  0.2260
  758POPC   C4B 9096  12.666   9.037   8.639  0.0029 -0.2162  0.1615
  759POPC   NC3 9097  14.867   5.118   5.177 -0.2230  0.0828 -0.1097
  759POPC   PO4 9098  14.641   5.159   5.512  0.1429 -0.4569  0.0452
  759POPC   GL1 9099  14.838   5.219   5.907  0.0919  0.1616 -0.0384
  759POPC   GL2 9100  14.729   5.294   6.167 -0.1430  0.1421  0.0488
  759POPC   C1A 9101  15.197   5.472   6.063  0.1656  0.1714  0.0732
  759POPC   D2A 9102  15.177   5.944   6.108 -0.3862 -0.2526  0.0903
  759POPC   C3A 9103  15.256   6.034   6.540 -0.0454 -0.0790 -0.3314
  759POPC   C4A 9104  15.591   6.070   6.886 -0.0613 -0.1710  0.1362
  759POPC   C1B 9105  14.917   5.169   6.582 -0.5317 -0.1122 -0.1254
  759POPC   C2B 9106  15.154   5.134   6.982 -0.0746 -0.2834 -0.2421
  759POPC   C3B 9107  15.018   4.870   7.352  0.3649 -0.3930  0.3726
  759POPC   C4B 9108  15.350   4.797   7.701  0.0632 -0.2963 -0.1451
  760POPC   NC3 9109  15.290  32.813   3.870  0.4728  0.0690 -0.4588
  760POPC   PO4 9110  15.675  32.838   3.904  0.0427  0.3129 -0.1861
  760POPC   GL1 9111  15.769  32.749   4.358  0.1988  0.1318  0.3364
  760POPC   GL2 9112  15.896  32.510   4.533 -0.3269  0.1093 -0.0153
  760POPC   C1A 9113  15.820  33.009   4.718  0.1947  0.0366 -0.1794
  760POPC   D2A 9114  16.040  32.960   5.126  0.1323  0.0632 -0.2946
  760POPC   C3A 9115  15.944  33.119   5.553  0.2992 -0.1151 -0.1700
  760POPC   C4A 9116  15.715  33.401   5.868 -0.0985  0.0339  0.1948
  760POPC   C1B 9117  15.642  32.606   4.900 -0.1917 -0.0033  0.2647
  760POPC   C2B 9118  15.588  32.356   5.282  0.1067 -0.1020  0.0463
  760POPC   C3B 9119  15.355  32.328   5.729 -0.3525 -0.2062  0.0205
  760POPC   C4B 9120  15.186  32.064   6.072  0.0936  0.2229 -0.1248
  761POPC   NC3 9121   4.921  14.190   4.654  0.0289  0.2164  0.1535
  761POPC   PO4 9122   4.749  14.088   4.330  0.1601  0.1391  0.1363
  761POPC   GL1 9123   4.419  14.280   4.553 -0.0781  0.1667 -0.1328
  761POPC   GL2 9124   4.314  14.569   4.529 -0.0588  0.1526 -0.1535
  761POPC   C1A 9125   4.432  14.367   4.995  0.0251 -0.0211 -0.3359
  761POPC   D2A 9126   4.725  14.231   5.341  0.2367  0.0098 -0.0702
  761POPC   C3A 9127   4.883  14.250   5.790 -0.3979  0.2387 -0.0549
  761POPC   C4A 9128   4.921  14.485   6.179  0.1095 -0.0615  0.0828
  761POPC   C1B 9129   3.980  14.361   4.741  0.1679  0.1745 -0.0185
  761POPC   C2B 9130   3.850  14.234   5.135  0.1647 -0.0964 -0.0294
  761POPC   C3B 9131   3.408  14.295   5.264  0.2387  0.0789 -0.1490
  761POPC   C4B 9132   2.983  14.248   5.348 -0.2088  0.4186 -0.2727
  762POPC   NC3 9133  10.438   8.940   6.445  0.2579 -0.1853 -0.1033
  762POPC   PO4 9134  10.155   8.645   6.504  0.0394 -0.1406  0.3779
  762POPC   GL1 9135   9.990   8.925   6.810  0.0630 -0.0726 -0.0410
  762POPC   GL2 9136   9.682   8.859   6.766 -0.1622 -0.3750  0.0318
  762POPC   C1A 9137  10.030   9.144   7.200  0.2381 -0.0988 -0.1637
  762POPC   D2A 9138   9.862   9.513   7.373 -0.2456 -0.0320 -0.1897
  762POPC   C3A 9139   9.472   9.514   7.625  0.1385 -0.0152  0.1653
  762POPC   C4A 9140   9.071   9.758   7.698  0.1525  0.1208  0.2531
  762POPC   C1B 9141   9.525   9.038   7.139  0.0752  0.2211 -0.0915
  762POPC   C2B 9142   9.666   9.059   7.581 -0.2083  0.1523  0.1411
  762POPC   C3B 9143   9.728   9.187   7.998 -0.0822  0.1182  0.1618
  762POPC   C4B 9144   9.685   9.473   8.372  0.0265  0.1329  0.2014
  763POPC   NC3 9145   8.717   1.949   6.019 -0.0569 -0.1498 -0.1561
  763POPC   PO4 9146   8.881   1.816   5.698  0.0207  0.3236  0.3106
  763POPC   GL1 9147   8.876   1.502   5.909 -0.4336  0.0627 -0.2164
  763POPC   GL2 9148   9.155   1.457   6.131  0.0330 -0.1035  0.3002
  763POPC   C1A 9149   8.589   1.464   6.297 -0.0344  0.2571 -0.1017
  763POPC   D2A 9150   8.714   1.157   6.587 -0.0429  0.5026 -0.0326
  763POPC   C3A 9151   8.660   1.046   7.078  0.0618 -0.0425  0.0969
  763POPC   C4A 9152   8.973   0.995   7.461 -0.0171 -0.2453  0.2031
  763POPC   C1B 9153   9.255   1.296   6.554  0.0654  0.2048  0.1806
  763POPC   C2B 9154   9.135   0.917   6.747  0.0137  0.2822  0.0820
  763POPC   C3B 9155   9.009   0.631   7.108  0.3388 -0.1895 -0.2864
  763POPC   C4B 9156   8.660   0.474   7.359  0.1606  0.0601 -0.0344
  764POPC   NC3 9157   0.938   7.762   5.043  0.0113 -0.2177  0.0725
  764POPC   PO4 9158   1.162   7.460   4.987 -0.0712 -0.1600  0.0261
  764POPC   GL1 9159   1.194   7.542   5.462 -0.2496  0.1147  0.1372
  764POPC   GL2 9160   1.012   7.744   5.615  0.1766 -0.3229 -0.1930
  764POPC   C1A 9161   1.467   7.701   5.806  0.0444  0.0467  0.2249
  764POPC   D2A 9162   1.499   8.000   6.123  0.0150 -0.0486 -0.0736
  764POPC   C3A 9163   1.662   8.037   6.504 -0.1464  0.1479  0.0389
  764POPC   C4A 9164   1.625   7.995   6.973 -0.0684 -0.0315 -0.2915
  764POPC   C1B 9165   1.051   7.694   6.059  0.2870 -0.1255  0.1964
  764POPC   C2B 9166   1.343   7.562   6.414  0.2054 -0.0546 -0.1742
  764POPC   C3B 9167   1.380   7.586   6.898 -0.3448 -0.1367 -0.2393
  764POPC   C4B 9168   1.259   7.286   7.269 -0.1393 -0.1071  0.2305
  765POPC   NC3 9169  12.228   7.696   6.593 -0.1558 -0.0549  0.0871
  765POPC   PO4 9170  12.371   8.044   6.589  0.1425 -0.0894  0.0882
  765POPC   GL1 9171  12.631   8.302   6.639  0.0788  0.0931  0.1244
  765POPC   GL2 9172  12.571   8.471   6.864 -0.2684  0.1675  0.1304
  765POPC   C1A 9173  13.016   8.253   6.942  0.0418  0.2683  0.2521
  765POPC   D2A 9174  13.276   8.001   7.209  0.2116  0.2093 -0.0803
  765POPC   C3A 9175  13.517   8.103   7.561  0.1842  0.2635  0.1696
  765POPC   C4A 9176  13.627   8.253   8.003 -0.1979  0.1654  0.1442
  765POPC   C1B 9177  12.613   8.676   7.247  0.2168 -0.0135 -0.1648
  765POPC   C2B 9178  12.643   8.616   7.728  0.2604  0.0128  0.1060
  765POPC   C3B 9179  12.640   8.472   8.173 -0.0556  0.1410  0.0754
  765POPC   C4B 9180  12.670   8.565   8.606  0.0121 -0.0001 -0.3022
  766POPC   NC3 9181   7.891  17.194   5.226 -0.0321  0.1235 -0.3013
  766POPC   PO4 9182   7.547  17.404   5.306 -0.3088  0.0644 -0.1467
  766POPC   GL1 9183   7.469  17.429   5.650  0.0681 -0.1376 -0.2275
  766POPC   GL2 9184   7.667  17.245   5.761 -0.2204 -0.1003  0.3683
  766POPC   C1A 9185   7.241  17.306   6.041 -0.0526  0.1516  0.0898
  766POPC   D2A 9186   6.830  17.398   6.296 -0.0400  0.1384 -0.1413
  766POPC   C3A 9187   6.813  17.330   6.726  0.0228 -0.1189 -0.4251
  766POPC   C4A 9188   6.668  17.220   7.115 -0.0544  0.0389  0.1197
  766POPC   C1B 9189   7.643  16.960   6.132 -0.1287  0.0924 -0.1123
  766POPC   C2B 9190   7.626  16.581   6.431  0.0195 -0.3041 -0.2125
  766POPC   C3B 9191   7.625  16.090   6.375  0.3588  0.0996  0.0415
  766POPC   C4B 9192   7.768  15.739   6.128 -0.1111  0.0567  0.0412
  767POPC   NC3 9193  14.055   1.708   4.973  0.1346 -0.1343  0.1569
  767POPC   PO4 9194  13.877   1.720   5.317  0.0496  0.2035 -0.1461
  767POPC   GL1 9195  13.871   1.703   5.639 -0.0522  0.0814 -0.0014
  767POPC   GL2 9196  13.977   1.905   5.837  0.0108  0.2110  0.3049
  767POPC   C1A 9197  13.995   1.445   6.021 -0.0624  0.1092  0.3027
  767POPC   D2A 9198  14.286   1.573   6.417  0.0498 -0.1129 -0.1521
  767POPC   C3A 9199  14.392   1.344   6.759 -0.2369 -0.0497  0.2877
  767POPC   C4A 9200  14.542   1.144   7.134  0.1881 -0.3620 -0.0358
  767POPC   C1B 9201  14.341   2.078   5.956 -0.2699 -0.0356  0.1503
  767POPC   C2B 9202  14.719   1.902   6.122 -0.3374  0.4496  0.4184
  767POPC   C3B 9203  14.778   1.747   6.525  0.1230  0.0275 -0.0800
  767POPC   C4B 9204  15.016   1.496   6.856  0.1410 -0.0099 -0.0580
  768POPC   NC3 9205  10.793   6.549  10.153  0.1975  0.1746  0.2480
  768POPC   PO4 9206  10.458   6.648  10.023 -0.0675 -0.0382 -0.0326
  768POPC   GL1 9207  10.637   6.989  10.023  0.1409  0.0828 -0.0076
  768POPC   GL2 9208  10.851   6.988   9.881  0.2484 -0.0201 -0.1447
  768POPC   C1A 9209  10.462   7.391  10.146  0.2967  0.0413  0.1731
  768POPC   D2A 9210  10.426   7.742  10.393 -0.2564  0.1793 -0.1576
  768POPC   C3A 9211  10.091   7.889  10.692  0.0993 -0.0091  0.2878
  768POPC   C4A 9212   9.665   7.913  10.849 -0.2296 -0.1516 -0.1972
  768POPC   C1B 9213  11.004   7.310  10.164  0.0565 -0.2155  0.2034
  768POPC   C2B 9214  11.344   7.638  10.215 -0.0084  0.0614  0.1108
  768POPC   C3B 9215  11.660   8.001  10.173 -0.1048  0.1683  0.3786
  768POPC   C4B 9216  11.809   8.413  10.382  0.0401 -0.0484  0.0314
  769POPC   NC3 9217   8.692   3.504   7.630  0.0763  0.0341  0.2308
  769POPC   PO4 9218   8.316   3.589   7.671 -0.3762 -0.2720 -0.1329
  769POPC   GL1 9219   8.141   3.388   8.018  0.0863  0.1101  0.1678
  769POPC   GL2 9220   8.208   3.157   8.004 -0.0951 -0.0572  0.0419
  769POPC   C1A 9221   7.719   3.241   8.176  0.1201 -0.0998  0.0613
  769POPC   D2A 9222   7.441   2.916   8.229 -0.0549 -0.0162 -0.3717
  769POPC   C3A 9223   7.229   2.788   8.637 -0.4850  0.2038 -0.0574
  769POPC   C4A 9224   6.855   2.684   8.889  0.0279  0.4051 -0.0302
  769POPC   C1B 9225   8.021   2.924   8.317 -0.0077 -0.1105  0.1253
  769POPC   C2B 9226   7.736   2.806   8.679 -0.1351  0.0878  0.1541
  769POPC   C3B 9227   7.516   2.499   8.992 -0.1898 -0.0444  0.2573
  769POPC   C4B 9228   7.521   2.476   9.460  0.0857  0.0096  0.0491
  770POPC   NC3 9229   2.381  14.382   4.107  0.1732 -0.0226  0.2695
  770POPC   PO4 9230   2.717  14.606   4.063  0.5425  0.2120  0.0934
  770POPC   GL1 9231   2.627  14.842   4.334  0.0899 -0.0642  0.0868
  770POPC   GL2 9232   2.517  14.647   4.568 -0.2453 -0.2192 -0.3095
  770POPC   C1A 9233   2.867  14.947   4.752 -0.1518  0.1086  0.1636
  770POPC   D2A 9234   3.057  14.637   5.057 -0.3911 -0.0247  0.0065
  770POPC   C3A 9235   3.112  14.739   5.529  0.1266 -0.0177  0.0918
  770POPC   C4A 9236   2.900  14.990   5.907 -0.1022  0.1682 -0.0498
  770POPC   C1B 9237   2.593  14.570   5.009  0.1951 -0.1330  0.3587
  770POPC   C2B 9238   2.616  14.549   5.454  0.2027 -0.0247 -0.0482
  770POPC   C3B 9239   2.768  14.403   5.889 -0.2411  0.0847  0.1223
  770POPC   C4B 9240   2.617  14.258   6.344 -0.1992  0.1387  0.0367
  771POPC   NC3 9241  13.924   0.526   4.624  0.0731 -0.0375 -0.0076
  771POPC   PO4 9242  13.861   0.920   4.673 -0.0375  0.1230  0.0840
  771POPC   GL1 9243  13.833   0.692   5.120  0.1015  0.4105 -0.0461
  771POPC   GL2 9244  14.021   0.761   5.182 -0.1679 -0.2198 -0.1517
  771POPC   C1A 9245  13.748   0.876   5.542 -0.1421 -0.3200 -0.1822
  771POPC   D2A 9246  13.850   0.945   5.972  0.4463 -0.0490 -0.0142
  771POPC   C3A 9247  13.685   0.601   6.214 -0.0944 -0.1299  0.1392
  771POPC   C4A 9248  13.794   0.350   6.577 -0.3060  0.1487 -0.3128
  771POPC   C1B 9249  13.984   0.449   5.514 -0.1549 -0.0864  0.2490
  771POPC   C2B 9250  14.018   0.148   5.900  0.0042  0.2177 -0.0332
  771POPC   C3B 9251  14.194   0.182   6.312  0.0675 -0.1488  0.0376
  771POPC   C4B 9252  14.307   0.411   6.712  0.1885 -0.1824 -0.0803
  772POPC   NC3 9253   4.059   9.390   5.095 -0.0384 -0.0226 -0.0239
  772POPC   PO4 9254   4.379   9.248   4.921 -0.1454 -0.0156  0.1922
  772POPC   GL1 9255   4.593   9.201   5.250 -0.2680 -0.0278  0.2381
  772POPC   GL2 9256   4.809   9.391   5.318  0.1319 -0.0037 -0.2525
  772POPC   C1A 9257   4.380   9.328   5.612 -0.0047 -0.1260  0.1346
  772POPC   D2A 9258   4.219   9.293   5.980  0.1258 -0.2854  0.2220
  772POPC   C3A 9259   4.301   9.529   6.398 -0.1691 -0.2348  0.0456
  772POPC   C4A 9260   4.211   9.729   6.776  0.0408  0.0833  0.0295
  772POPC   C1B 9261   4.624   9.773   5.501  0.0192  0.1283  0.1340
  772POPC   C2B 9262   4.402  10.022   5.817  0.0636 -0.3435 -0.0650
  772POPC   C3B 9263   4.308  10.053   6.275  0.3338 -0.2996  0.0048
  772POPC   C4B 9264   4.635  10.060   6.558  0.2302 -0.0323 -0.2213
  773POPC   NC3 9265   8.607  13.916   4.634 -0.1686 -0.0731  0.2853
  773POPC   PO4 9266   8.851  13.966   4.937 -0.1605  0.0881 -0.1139
  773POPC   GL1 9267   8.852  14.325   5.163 -0.1691 -0.3365  0.1800
  773POPC   GL2 9268   9.045  14.264   5.400 -0.0274 -0.1075  0.0855
  773POPC   C1A 9269   8.630  14.514   5.547  0.1795 -0.0488  0.1484
  773POPC   D2A 9270   8.426  14.301   5.878 -0.0990  0.2164  0.1045
  773POPC   C3A 9271   8.407  14.567   6.265  0.2877  0.0884 -0.0160
  773POPC   C4A 9272   8.267  14.753   6.636  0.0240  0.0727  0.1391
  773POPC   C1B 9273   9.273  14.295   5.820  0.0308 -0.1129 -0.0163
  773POPC   C2B 9274   9.265  14.496   6.194 -0.1019  0.2790 -0.0110
  773POPC   C3B 9275   9.230  14.768   6.561 -0.0523 -0.0674 -0.0644
  773POPC   C4B 9276   9.251  15.177   6.855  0.0378 -0.3184 -0.2426
  774POPC   NC3 9277   8.240   5.454  10.965 -0.2115 -0.2007 -0.0951
  774POPC   PO4 9278   8.357   5.705  10.697 -0.3093  0.1173 -0.0759
  774POPC   GL1 9279   8.005   5.840  10.685  0.1320 -0.1453  0.0940
  774POPC   GL2 9280   7.943   5.904  11.024  0.5113 -0.0090 -0.0645
  774POPC   C1A 9281   7.536   5.749  10.617  0.1329 -0.3984 -0.1435
  774POPC   D2A 9282   7.109   5.698  10.784  0.0836  0.0335 -0.0733
  774POPC   C3A 9283   6.869   6.047  11.067  0.0123  0.1543  0.0944
  774POPC   C4A 9284   6.519   6.219  11.233 -0.0112  0.3205  0.0258
  774POPC   C1B 9285   7.479   5.957  11.131 -0.0553 -0.0231 -0.0349
  774POPC   C2B 9286   7.234   5.659  11.256 -0.1117 -0.0832  0.1382
  774POPC   C3B 9287   7.332   5.357  11.476 -0.1175  0.0095 -0.0315
  774POPC   C4B 9288   7.488   4.991  11.683 -0.0383  0.2542 -0.0336
  775POPC   NC3 9289   7.627   2.814   6.085  0.0995  0.0068  0.0740
  775POPC   PO4 9290   7.610   2.463   5.873 -0.1041  0.1327 -0.0319
  775POPC   GL1 9291   7.308   2.167   5.929 -0.1010 -0.7053  0.0365
  775POPC   GL2 9292   7.302   2.123   6.269 -0.1222 -0.0123  0.0227
  775POPC   C1A 9293   6.965   1.851   6.060  0.1812 -0.1423  0.1032
  775POPC   D2A 9294   6.608   1.592   6.251  0.0480  0.1816 -0.0125
  775POPC   C3A 9295   6.562   1.125   6.176  0.1986 -0.0712  0.1328
  775POPC   C4A 9296   6.572   0.748   5.866  0.0315  0.0888  0.0056
  775POPC   C1B 9297   7.281   1.799   6.615  0.1388 -0.1373 -0.1594
  775POPC   C2B 9298   7.406   1.469   6.931  0.1470 -0.1119  0.1658
  775POPC   C3B 9299   7.359   1.220   7.315  0.1956 -0.0978  0.2073
  775POPC   C4B 9300   7.422   0.773   7.456  0.0147 -0.1178 -0.0753
  776POPC   NC3 9301   1.084   4.747   4.949  0.0618  0.0199  0.1870
  776POPC   PO4 9302   0.940   5.102   5.018 -0.4562 -0.0338  0.1067
  776POPC   GL1 9303   0.916   4.943   5.388 -0.2007 -0.4035 -0.1232
  776POPC   GL2 9304   0.833   5.230   5.471 -0.2467  0.3329  0.0735
  776POPC   C1A 9305   1.272   4.955   5.682  0.2224 -0.0899 -0.1477
  776POPC   D2A 9306   1.538   5.253   5.977  0.0183  0.2271  0.0166
  776POPC   C3A 9307   1.503   5.167   6.425  0.0556  0.0496 -0.2989
  776POPC   C4A 9308   1.305   4.984   6.758  0.5639  0.1517 -0.0694
  776POPC   C1B 9309   0.667   5.044   5.842  0.0480  0.0256 -0.1604
  776POPC   C2B 9310   0.595   4.777   6.204  0.1382 -0.1227 -0.1454
  776POPC   C3B 9311   0.661   4.461   6.579  0.1085  0.0438 -0.2008
  776POPC   C4B 9312   0.521   4.348   6.975 -0.0467  0.0656 -0.0837
  777POPC   NC3 9313  12.207   1.386   5.058  0.0848 -0.2101  0.0164
  777POPC   PO4 9314  12.572   1.310   5.268 -0.0627 -0.2146  0.1462
  777POPC   GL1 9315  12.813   1.240   5.618  0.2275 -0.1150 -0.0093
  777POPC   GL2 9316  12.801   0.951   5.593  0.1727 -0.2571  0.2454
  777POPC   C1A 9317  12.926   1.093   6.055 -0.3551 -0.1512 -0.2474
  777POPC   D2A 9318  12.942   1.153   6.509  0.0144 -0.2452  0.0406
  777POPC   C3A 9319  13.195   1.541   6.560  0.3326 -0.0634 -0.3092
  777POPC   C4A 9320  13.447   1.605   6.972 -0.2767  0.0236 -0.1115
  777POPC   C1B 9321  12.447   0.942   5.905  0.0222 -0.1197 -0.2213
  777POPC   C2B 9322  12.304   0.604   6.207 -0.0926 -0.0151 -0.0938
  777POPC   C3B 9323  12.486   0.336   6.614 -0.1000 -0.0904 -0.2608
  777POPC   C4B 9324  12.552  -0.065   6.658  0.0240  0.1103  0.0226
  778POPC   NC3 9325  15.357   2.458   4.964  0.1920 -0.2248 -0.1261
  778POPC   PO4 9326  15.123   2.139   4.850  0.1543 -0.2951 -0.0716
  778POPC   GL1 9327  15.012   1.842   5.129  0.2048 -0.0888  0.1009
  778POPC   GL2 9328  15.336   1.853   5.266  0.2726  0.3261 -0.3975
  778POPC   C1A 9329  14.934   1.876   5.602  0.0852 -0.0413 -0.2217
  778POPC   D2A 9330  15.142   1.715   5.987  0.2881  0.2995 -0.0547
  778POPC   C3A 9331  15.288   1.800   6.427  0.1857 -0.1044  0.2153
  778POPC   C4A 9332  15.209   1.955   6.872 -0.0429 -0.1275 -0.4136
  778POPC   C1B 9333  15.456   2.069   5.627 -0.2557  0.1826 -0.1655
  778POPC   C2B 9334  15.494   2.212   6.076  0.0087 -0.0697 -0.2034
  778POPC   C3B 9335  15.432   2.316   6.544 -0.2332  0.3317 -0.0311
  778POPC   C4B 9336  15.648   2.358   6.918 -0.0887 -0.2729 -0.2972
  779POPC   NC3 9337   0.323   3.164   4.475  0.0563 -0.0882 -0.0900
  779POPC   PO4 9338   0.393   3.197   4.850 -0.3626 -0.0471 -0.2307
  779POPC   GL1 9339   0.493   3.280   5.193 -0.0973  0.3967 -0.2016
  779POPC   GL2 9340   0.627   3.102   5.390 -0.0914 -0.0002  0.2108
  779POPC   C1A 9341   0.357   3.515   5.604  0.2001  0.0085 -0.1006
  779POPC   D2A 9342   0.449   3.678   6.081 -0.0428 -0.1226 -0.0661
  779POPC   C3A 9343   0.411   3.372   6.431 -0.0708  0.0379 -0.2920
  779POPC   C4A 9344   0.495   3.390   6.885  0.2128 -0.1298  0.2616
  779POPC   C1B 9345   0.611   2.980   5.831 -0.0198  0.2252 -0.2647
  779POPC   C2B 9346   0.413   2.923   6.239 -0.1917 -0.0134 -0.0667
  779POPC   C3B 9347   0.426   2.898   6.722  0.0208  0.2201 -0.3878
  779POPC   C4B 9348   0.191   2.579   6.956 -0.1079 -0.1430  0.1776
  780POPC   NC3 9349  15.514   5.001   5.511 -0.1290 -0.2279 -0.0129
  780POPC   PO4 9350  15.289   4.721   5.324  0.0011 -0.1505 -0.2645
  780POPC   GL1 9351  15.264   4.381   5.644  0.3503  0.1589 -0.0118
  780POPC   GL2 9352  15.386   4.568   5.798 -0.0699 -0.2279  0.0590
  780POPC   C1A 9353  15.010   4.341   6.022  0.1128  0.0376 -0.0369
  780POPC   D2A 9354  14.903   4.748   6.148 -0.0151 -0.3178  0.1445
  780POPC   C3A 9355  15.317   4.992   6.071 -0.0231  0.0240 -0.0115
  780POPC   C4A 9356  15.619   5.353   5.882 -0.3107 -0.0249 -0.0494
  780POPC   C1B 9357  15.571   4.512   6.230  0.0437  0.0993 -0.1460
  780POPC   C2B 9358  15.740   4.718   6.584 -0.1919  0.3420 -0.0944
  780POPC   C3B 9359  16.110   4.664   6.849  0.0837 -0.1649 -0.0237
  780POPC   C4B 9360  16.586   4.689   6.763 -0.1978  0.0572  0.0184
  781POPC   NC3 9361  10.797   6.553  10.992 -0.1815 -0.0335  0.2496
  781POPC   PO4 9362  10.918   6.231  10.769 -0.1488  0.3898  0.3653
  781POPC   GL1 9363  11.262   6.251  10.935 -0.1328 -0.0760 -0.0461
  781POPC   GL2 9364  11.394   5.974  10.915  0.0187 -0.0897  0.1044
  781POPC   C1A 9365  11.701   6.297  10.849 -0.0215 -0.2119  0.1382
  781POPC   D2A 9366  12.099   6.341  10.629  0.2394 -0.0677  0.1707
  781POPC   C3A 9367  12.353   6.656  10.519 -0.1047 -0.2854 -0.0464
  781POPC   C4A 9368  12.722   6.829  10.661  0.1850 -0.1285  0.0575
  781POPC   C1B 9369  11.705   6.049  11.275 -0.3366 -0.2168  0.0100
  781POPC   C2B 9370  11.860   6.382  11.468 -0.4002 -0.1140  0.0538
  781POPC   C3B 9371  12.153   6.633  11.719 -0.2741  0.2908  0.2149
  781POPC   C4B 9372  12.447   6.936  11.854 -0.0179 -0.0219  0.1345
  782POPC   NC3 9373  15.336   3.983   5.381  0.0510  0.0478 -0.0425
  782POPC   PO4 9374  15.576   4.267   5.246 -0.0542  0.0057 -0.1529
  782POPC   GL1 9375  15.771   4.347   5.537  0.4143 -0.3259  0.0160
  782POPC   GL2 9376  15.851   4.136   5.663 -0.2424 -0.1790 -0.1783
  782POPC   C1A 9377  15.891   4.725   5.816  0.0368 -0.1660  0.0005
  782POPC   D2A 9378  15.984   5.064   6.152  0.1305  0.0142 -0.4287
  782POPC   C3A 9379  16.006   5.209   6.550 -0.3113 -0.0532 -0.3323
  782POPC   C4A 9380  16.046   5.667   6.687  0.1863 -0.3198 -0.0335
  782POPC   C1B 9381  15.484   4.097   5.973 -0.0723  0.0040  0.0880
  782POPC   C2B 9382  15.389   3.928   6.425  0.0791  0.0455 -0.0572
  782POPC   C3B 9383  15.540   3.722   6.844  0.0520 -0.3166  0.0427
  782POPC   C4B 9384  15.739   3.445   7.232 -0.0870 -0.2175  0.3893
  783POPC   NC3 9385  15.211  12.736   4.204 -0.2564  0.0932 -0.1530
  783POPC   PO4 9386  15.061  12.414   4.020 -0.0817  0.1525 -0.2365
  783POPC   GL1 9387  15.264  12.179   4.320 -0.1791  0.0224 -0.1997
  783POPC   GL2 9388  15.474  12.391   4.516  0.0669 -0.3177  0.3056
  783POPC   C1A 9389  15.008  12.096   4.686  0.1720 -0.2925 -0.0487
  783POPC   D2A 9390  14.785  12.398   4.980  0.4583  0.0241  0.0802
  783POPC   C3A 9391  14.474  12.528   5.326 -0.0106 -0.3566  0.0546
  783POPC   C4A 9392  14.618  12.767   5.739  0.0870  0.0902  0.1433
  783POPC   C1B 9393  15.343  12.449   4.942  0.2242 -0.3671 -0.0354
  783POPC   C2B 9394  15.124  12.828   5.067 -0.1393 -0.0414 -0.1997
  783POPC   C3B 9395  14.831  13.072   5.365 -0.0601  0.1595  0.1578
  783POPC   C4B 9396  14.741  13.356   5.697 -0.3094 -0.1846  0.0110
  784POPC   NC3 9397  15.590   6.129   5.280  0.2388 -0.0292 -0.0276
  784POPC   PO4 9398  15.236   5.993   5.379 -0.2021 -0.3049 -0.0929
  784POPC   GL1 9399  15.393   6.200   5.778  0.1601  0.1770  0.1301
  784POPC   GL2 9400  15.683   6.309   5.824 -0.0459 -0.0803 -0.1375
  784POPC   C1A 9401  15.238   6.441   6.159 -0.0644  0.1041 -0.1043
  784POPC   D2A 9402  15.640   6.422   6.502 -0.0278 -0.2690  0.1215
  784POPC   C3A 9403  15.601   6.719   6.867 -0.1612  0.1249  0.1894
  784POPC   C4A 9404  15.818   6.712   7.261 -0.0582  0.1395  0.0521
  784POPC   C1B 9405  16.079   6.205   5.978  0.3522  0.1786  0.1144
  784POPC   C2B 9406  16.457   6.305   6.081  0.1543 -0.1623  0.1033
  784POPC   C3B 9407  16.723   6.494   6.335 -0.0965 -0.0043 -0.1682
  784POPC   C4B 9408  16.937   6.334   6.688  0.0877 -0.0193 -0.0661
  785POPC   NC3 9409  12.091   2.208   5.246  0.0288  0.0106  0.0330
  785POPC   PO4 9410  11.970   2.075   5.581 -0.0790 -0.0414 -0.0363
  785POPC   GL1 9411  12.240   1.882   5.828 -0.0427  0.0326  0.0337
  785POPC   GL2 9412  12.236   1.972   6.104  0.0250  0.1310  0.1486
  785POPC   C1A 9413  12.253   1.525   6.170 -0.2361 -0.0286  0.0302
  785POPC   D2A 9414  12.447   1.172   6.399  0.2073  0.3302 -0.1379
  785POPC   C3A 9415  12.248   0.856   6.706 -0.2762 -0.1986 -0.4445
  785POPC   C4A 9416  12.145   0.528   6.920  0.1981 -0.0959  0.0366
  785POPC   C1B 9417  12.131   1.920   6.567  0.0391  0.0783 -0.1274
  785POPC   C2B 9418  12.255   1.883   7.008  0.0667  0.0783  0.1451
  785POPC   C3B 9419  12.346   1.521   7.315 -0.3964 -0.4590 -0.4144
  785POPC   C4B 9420  12.701   1.409   7.675 -0.1896 -0.1697 -0.0936
  786POPC   NC3 9421  14.328   1.133   4.786 -0.0601  0.2224 -0.2609
  786POPC   PO4 9422  14.419   0.714   4.774  0.0515 -0.0816 -0.0854
  786POPC   GL1 9423  14.418   0.509   5.043  0.3057  0.0207 -0.0752
  786POPC   GL2 9424  14.142   0.297   4.998 -0.0750  0.1751  0.0895
  786POPC   C1A 9425  14.567   0.471   5.471 -0.0312  0.2101 -0.3708
  786POPC   D2A 9426  14.619   0.384   5.887  0.0867 -0.3187 -0.2553
  786POPC   C3A 9427  14.852   0.322   6.285  0.1148  0.3018  0.0626
  786POPC   C4A 9428  15.087   0.137   6.630 -0.1717  0.0941  0.2208
  786POPC   C1B 9429  14.285   0.107   5.368 -0.1813  0.1080 -0.0028
  786POPC   C2B 9430  14.494  -0.095   5.679  0.1933 -0.0269  0.2382
  786POPC   C3B 9431  14.597  -0.094   6.107  0.2450  0.0589 -0.0661
  786POPC   C4B 9432  14.580  -0.055   6.587  0.4436 -0.2738  0.0619
  787POPC   NC3 9433   5.748   3.663   5.568 -0.2076  0.0832  0.3277
  787POPC   PO4 9434   5.610   3.838   5.875  0.3093 -0.0225  0.3588
  787POPC   GL1 9435   5.310   3.604   6.063  0.5935  0.0014 -0.2238
  787POPC   GL2 9436   4.994   3.603   6.010  0.2946 -0.2733  0.0887
  787POPC   C1A 9437   5.175   3.454   6.506  0.1052  0.1343 -0.2774
  787POPC   D2A 9438   5.151   3.285   6.893  0.2366  0.0033 -0.1576
  787POPC   C3A 9439   5.465   3.528   7.000 -0.0824 -0.1001  0.0550
  787POPC   C4A 9440   5.925   3.543   6.845  0.3172  0.0506  0.1116
  787POPC   C1B 9441   4.580   3.486   6.161  0.0254 -0.0026 -0.1250
  787POPC   C2B 9442   4.222   3.358   6.362 -0.0458  0.2112 -0.0756
  787POPC   C3B 9443   3.754   3.339   6.345 -0.1918  0.1267 -0.1851
  787POPC   C4B 9444   3.448   3.446   6.614 -0.2420 -0.0147  0.1088
  788POPC   NC3 9445   2.851   5.749   5.182  0.0444  0.0505  0.0607
  788POPC   PO4 9446   2.463   5.768   5.276 -0.1084  0.0656 -0.1322
  788POPC   GL1 9447   2.438   5.710   5.645 -0.0768 -0.2381 -0.0273
  788POPC   GL2 9448   2.687   5.800   5.793 -0.1505  0.1707  0.0786
  788POPC   C1A 9449   2.114   5.869   5.903 -0.0025  0.3632  0.1130
  788POPC   D2A 9450   1.776   6.208   5.883  0.2367  0.1488  0.1497
  788POPC   C3A 9451   1.856   6.308   6.302  0.0075  0.2053  0.0608
  788POPC   C4A 9452   1.776   6.563   6.653 -0.3743 -0.1810  0.1646
  788POPC   C1B 9453   2.569   5.855   6.225  0.1440  0.1665 -0.2937
  788POPC   C2B 9454   2.139   5.940   6.364 -0.2390 -0.1985 -0.1021
  788POPC   C3B 9455   1.986   6.102   6.768  0.0826  0.2942  0.1865
  788POPC   C4B 9456   1.866   6.288   7.187  0.0886  0.1604 -0.2514
  789POPC   NC3 9457   9.669  10.058   6.144 -0.1510 -0.0277 -0.3020
  789POPC   PO4 9458   9.857  10.220   5.836  0.1576  0.0686  0.0004
  789POPC   GL1 9459  10.107  10.574   5.975  0.3061  0.0789  0.0871
  789POPC   GL2 9460  10.365  10.645   5.951 -0.0652  0.0658 -0.0750
  789POPC   C1A 9461  10.104  10.776   6.394 -0.5517  0.0289 -0.0046
  789POPC   D2A 9462   9.847  11.134   6.666  0.1182  0.2154  0.0076
  789POPC   C3A 9463   9.529  11.363   6.841  0.1166  0.2447  0.1231
  789POPC   C4A 9464   9.186  11.510   7.121  0.0326  0.2547  0.0219
  789POPC   C1B 9465  10.674  10.847   6.291  0.1493  0.1253 -0.1301
  789POPC   C2B 9466  11.023  11.185   6.352  0.0937 -0.0144  0.1475
  789POPC   C3B 9467  11.298  11.457   6.630 -0.1475 -0.1013 -0.2843
  789POPC   C4B 9468  11.526  11.893   6.656  0.0300 -0.2091 -0.1703
  790POPC   NC3 9469   2.863  15.285   4.174 -0.1050 -0.1220  0.1715
  790POPC   PO4 9470   3.253  15.343   4.106  0.1886  0.0672  0.2844
  790POPC   GL1 9471   3.286  14.983   4.319 -0.1618  0.0328  0.1342
  790POPC   GL2 9472   3.099  14.780   4.323 -0.1961 -0.1078  0.3464
  790POPC   C1A 9473   3.431  14.993   4.774  0.0090 -0.3047 -0.3777
  790POPC   D2A 9474   3.517  15.060   5.234  0.3618  0.3152  0.0100
  790POPC   C3A 9475   3.266  15.223   5.637 -0.0171 -0.1741  0.1639
  790POPC   C4A 9476   3.159  15.402   6.062 -0.1072  0.3049  0.1224
  790POPC   C1B 9477   3.011  14.413   4.586 -0.0948  0.0182 -0.0406
  790POPC   C2B 9478   2.769  14.141   4.858  0.0720 -0.0093  0.1065
  790POPC   C3B 9479   2.667  13.908   5.209 -0.2155  0.1644  0.0999
  790POPC   C4B 9480   2.914  13.676   5.502  0.0837  0.0446 -0.2258
  791POPC   NC3 9481  10.427   1.802   5.831 -0.0055  0.1590 -0.2160
  791POPC   PO4 9482  10.334   2.013   6.176 -0.4353 -0.0295 -0.2998
  791POPC   GL1 9483  10.534   1.761   6.380 -0.1247 -0.1118  0.0696
  791POPC   GL2 9484  10.770   1.907   6.436  0.2021 -0.3126 -0.2399
  791POPC   C1A 9485  10.456   1.626   6.797  0.2537  0.0509  0.2111
  791POPC   D2A 9486  10.087   1.389   7.020 -0.0647 -0.0689  0.0712
  791POPC   C3A 9487  10.026   0.928   6.929  0.1394  0.3357 -0.0708
  791POPC   C4A 9488   9.874   0.677   7.263  0.0465 -0.0803  0.3632
  791POPC   C1B 9489  10.890   1.564   6.621 -0.0514  0.0189 -0.1316
  791POPC   C2B 9490  11.013   1.154   6.757  0.1006 -0.1648  0.1138
  791POPC   C3B 9491  10.959   0.772   6.987  0.1210 -0.2258 -0.0605
  791POPC   C4B 9492  11.196   0.407   7.164  0.1709  0.2087 -0.0883
  792POPC   NC3 9493  11.862  32.142   4.687 -0.0690 -0.0513 -0.1372
  792POPC   PO4 9494  11.848  32.511   4.592  0.3560 -0.2488  0.2702
  792POPC   GL1 9495  11.975  32.576   4.914 -0.0695 -0.1855  0.2764
  792POPC   GL2 9496  12.259  32.496   5.015  0.0482  0.1635 -0.1032
  792POPC   C1A 9497  11.789  32.413   5.259 -0.1071  0.0927 -0.0326
  792POPC   D2A 9498  11.609  32.167   5.547 -0.0602  0.3616  0.0706
  792POPC   C3A 9499  11.602  32.092   5.978 -0.2245 -0.0672 -0.0723
  792POPC   C4A 9500  11.364  32.286   6.325  0.1129 -0.3366  0.1267
  792POPC   C1B 9501  12.421  32.273   5.419  0.0494 -0.2356 -0.2156
  792POPC   C2B 9502  12.529  32.305   5.895  0.2700  0.0652  0.0688
  792POPC   C3B 9503  12.735  32.346   6.298 -0.0099 -0.0930 -0.0383
  792POPC   C4B 9504  12.995  32.034   6.441 -0.1669  0.4072  0.1761
  793POPC   NC3 9505   4.231  15.683   4.587 -0.1109  0.0771  0.0177
  793POPC   PO4 9506   4.351  15.290   4.616  0.0639  0.2725 -0.0542
  793POPC   GL1 9507   4.252  15.314   5.026  0.0547 -0.2257 -0.2555
  793POPC   GL2 9508   4.492  15.221   5.196 -0.4540  0.1163  0.0020
  793POPC   C1A 9509   4.028  15.134   5.426  0.1440  0.0706  0.1145
  793POPC   D2A 9510   4.085  14.957   5.806 -0.1168 -0.0662 -0.0859
  793POPC   C3A 9511   4.137  14.842   6.239 -0.3699  0.0604  0.3590
  793POPC   C4A 9512   4.571  14.883   6.483  0.0050  0.0724  0.1485
  793POPC   C1B 9513   4.565  14.824   5.460  0.1631 -0.2107  0.0315
  793POPC   C2B 9514   4.408  14.565   5.817 -0.0440  0.2117  0.3241
  793POPC   C3B 9515   4.450  14.429   6.269  0.0639 -0.1643 -0.3677
  793POPC   C4B 9516   4.282  14.524   6.666  0.3424 -0.0098  0.1890
  794POPC   NC3 9517   5.770   6.202   5.752  0.0291  0.2186 -0.0837
  794POPC   PO4 9518   5.724   6.590   5.799  0.4284 -0.0753 -0.2261
  794POPC   GL1 9519   5.386   6.914   5.932  0.0004  0.1214 -0.1220
  794POPC   GL2 9520   5.543   6.809   6.189  0.0842 -0.2053 -0.1873
  794POPC   C1A 9521   5.094   7.057   6.217  0.3431 -0.2941 -0.1529
  794POPC   D2A 9522   4.694   7.088   6.313 -0.2755  0.3700  0.2198
  794POPC   C3A 9523   4.692   7.062   6.769  0.0034  0.0529 -0.0475
  794POPC   C4A 9524   4.452   6.949   7.125  0.3987 -0.0099  0.0248
  794POPC   C1B 9525   5.467   7.097   6.621  0.0295  0.2006 -0.0767
  794POPC   C2B 9526   5.306   7.304   6.967 -0.0016  0.1985 -0.2305
  794POPC   C3B 9527   5.259   7.560   7.319 -0.2729  0.3461 -0.1906
  794POPC   C4B 9528   5.397   7.553   7.763  0.2510  0.2038 -0.2207
  795POPC   NC3 9529  14.276  11.130   4.834 -0.2231  0.0021  0.3037
  795POPC   PO4 9530  14.476  11.441   4.655 -0.1356 -0.0806 -0.0481
  795POPC   GL1 9531  14.528  11.512   4.955  0.2229 -0.0353  0.1919
  795POPC   GL2 9532  14.542  11.888   5.065  0.2674  0.2060  0.0938
  795POPC   C1A 9533  14.748  11.418   5.350  0.2445 -0.0604 -0.2397
  795POPC   D2A 9534  14.775  11.691   5.713  0.0024  0.0657  0.2570
  795POPC   C3A 9535  14.863  11.791   6.184  0.1663 -0.1315  0.0321
  795POPC   C4A 9536  15.032  12.124   6.454  0.2595 -0.1282  0.0858
  795POPC   C1B 9537  14.885  12.077   5.337  0.2631  0.0321  0.2187
  795POPC   C2B 9538  15.102  12.023   5.739 -0.1194  0.1789  0.0257
  795POPC   C3B 9539  14.982  12.389   5.998 -0.1642 -0.1032 -0.1201
  795POPC   C4B 9540  15.145  12.657   6.361 -0.0219 -0.0414  0.1392
  796POPC   NC3 9541  13.279   5.862   6.363 -0.0117  0.1344 -0.1804
  796POPC   PO4 9542  13.469   6.190   6.439  0.0853 -0.3728  0.1344
  796POPC   GL1 9543  13.681   6.029   6.600 -0.1368 -0.0293 -0.3426
  796POPC   GL2 9544  13.957   5.996   6.396  0.0066  0.1081 -0.0545
  796POPC   C1A 9545  13.934   6.034   7.001 -0.1091  0.1000  0.0956
  796POPC   D2A 9546  14.132   6.059   7.397 -0.2847 -0.2168 -0.0671
  796POPC   C3A 9547  14.578   6.055   7.643  0.0698 -0.2310  0.1749
  796POPC   C4A 9548  14.994   5.999   7.864  0.2150  0.0090  0.1036
  796POPC   C1B 9549  14.315   6.277   6.692 -0.2824 -0.0750 -0.1019
  796POPC   C2B 9550  14.334   6.425   7.079 -0.0499 -0.1557 -0.1801
  796POPC   C3B 9551  14.400   6.528   7.527  0.1005  0.0166  0.0565
  796POPC   C4B 9552  14.676   6.835   7.751  0.2630  0.0851  0.0028
  797POPC   NC3 9553   1.816  15.031   3.816  0.1204  0.0991  0.1533
  797POPC   PO4 9554   1.787  14.686   3.977  0.1690  0.1747 -0.2515
  797POPC   GL1 9555   2.043  14.614   4.278  0.1173  0.0037  0.0383
  797POPC   GL2 9556   1.903  14.449   4.453 -0.1740  0.2251  0.1909
  797POPC   C1A 9557   2.135  14.966   4.620 -0.0910 -0.2104 -0.2349
  797POPC   D2A 9558   2.002  15.379   4.860 -0.2012  0.1874 -0.1371
  797POPC   C3A 9559   2.238  15.418   5.266  0.0983 -0.2597 -0.1496
  797POPC   C4A 9560   2.694  15.504   5.326 -0.0579  0.0013 -0.1945
  797POPC   C1B 9561   1.898  14.449   4.917 -0.1444 -0.0044  0.0700
  797POPC   C2B 9562   1.937  14.456   5.420  0.0499 -0.2593  0.1112
  797POPC   C3B 9563   2.130  14.824   5.676  0.1972  0.2079  0.1214
  797POPC   C4B 9564   1.922  15.221   5.715 -0.2418  0.2981 -0.1025
  798POPC   NC3 9565   6.907   5.040   7.349 -0.3266 -0.1293  0.1588
  798POPC   PO4 9566   6.934   4.730   7.076  0.0290  0.1213 -0.2825
  798POPC   GL1 9567   6.588   4.542   7.179 -0.4331  0.1055  0.0623
  798POPC   GL2 9568   6.610   4.262   7.041 -0.2669 -0.0175 -0.3856
  798POPC   C1A 9569   6.236   4.481   7.424  0.1486 -0.1801 -0.3219
  798POPC   D2A 9570   5.835   4.761   7.547 -0.1707  0.3159 -0.2356
  798POPC   C3A 9571   6.013   5.072   7.866 -0.0106 -0.3079  0.1212
  798POPC   C4A 9572   6.046   5.334   8.260  0.0178  0.2353 -0.3688
  798POPC   C1B 9573   6.470   4.083   7.481 -0.2859 -0.3710 -0.2735
  798POPC   C2B 9574   6.087   3.995   7.743  0.0523 -0.0406 -0.1399
  798POPC   C3B 9575   5.840   4.150   8.136  0.0097  0.0954 -0.3405
  798POPC   C4B 9576   5.897   4.290   8.609 -0.1689  0.0448 -0.1697
  799POPC   NC3 9577  13.036  11.936   4.681  0.4023 -0.4164  0.1621
  799POPC   PO4 9578  12.717  11.952   4.970  0.0019 -0.0389  0.2340
  799POPC   GL1 9579  12.465  12.011   5.227 -0.0832  0.0708 -0.1226
  799POPC   GL2 9580  12.413  12.309   5.166  0.0094 -0.1800  0.0933
  799POPC   C1A 9581  12.341  11.932   5.665  0.0419 -0.0251 -0.2024
  799POPC   D2A 9582  12.034  11.852   6.029  0.1296 -0.0071 -0.1808
  799POPC   C3A 9583  12.058  11.832   6.482 -0.2221  0.1632  0.0431
  799POPC   C4A 9584  12.006  11.727   6.886 -0.2352 -0.3099  0.0619
  799POPC   C1B 9585  12.574  12.352   5.555  0.0494  0.1840 -0.0203
  799POPC   C2B 9586  12.568  12.233   6.020 -0.2486  0.1832  0.1634
  799POPC   C3B 9587  12.686  12.074   6.423 -0.4083 -0.2118 -0.0579
  799POPC   C4B 9588  12.493  12.011   6.879  0.0671 -0.0887  0.3038
  800POPC   NC3 9589  11.849   8.006   7.243 -0.2023  0.3313 -0.0887
  800POPC   PO4 9590  11.529   8.267   7.335  0.1006  0.0014 -0.2267
  800POPC   GL1 9591  11.793   8.460   7.575 -0.1053 -0.1867  0.0899
  800POPC   GL2 9592  12.042   8.358   7.635  0.1070 -0.0961  0.5192
  800POPC   C1A 9593  11.738   8.873   7.809 -0.1960 -0.1487  0.1516
  800POPC   D2A 9594  11.527   9.096   8.172 -0.1380  0.1624  0.0149
  800POPC   C3A 9595  11.456   9.553   8.338  0.1243 -0.0673 -0.1064
  800POPC   C4A 9596  11.316  10.066   8.234  0.1301  0.0523 -0.1181
  800POPC   C1B 9597  12.093   8.510   8.068 -0.1884 -0.1316  0.1759
  800POPC   C2B 9598  12.273   8.938   8.137 -0.0746 -0.0433  0.0107
  800POPC   C3B 9599  12.559   9.278   7.980 -0.1467 -0.2644  0.0243
  800POPC   C4B 9600  12.736   9.674   8.090  0.3040 -0.1446  0.1869
  801POPC   NC3 9601   5.787  12.605   4.571  0.1333  0.0429 -0.0192
  801POPC   PO4 9602   6.079  12.745   4.359 -0.0242  0.0743 -0.2380
  801POPC   GL1 9603   6.044  12.973   4.710  0.2099  0.1942 -0.0416
  801POPC   GL2 9604   6.075  13.221   4.622 -0.0534  0.0404 -0.0007
  801POPC   C1A 9605   5.619  13.011   4.911 -0.0858 -0.2212  0.3536
  801POPC   D2A 9606   5.399  13.392   5.083 -0.2343 -0.2770 -0.0044
  801POPC   C3A 9607   5.491  13.382   5.553  0.0234 -0.0918  0.0399
  801POPC   C4A 9608   5.431  13.519   5.956  0.1483 -0.0020  0.2306
  801POPC   C1B 9609   6.087  13.257   5.086 -0.0314 -0.1488  0.0047
  801POPC   C2B 9610   6.167  13.278   5.591  0.0002 -0.0208  0.2853
  801POPC   C3B 9611   6.474  13.266   5.965 -0.3818  0.0156 -0.2019
  801POPC   C4B 9612   6.501  13.377   6.387 -0.0794 -0.0228  0.0644
  802POPC   NC3 9613   4.042   3.819   5.268 -0.2200  0.0552  0.1016
  802POPC   PO4 9614   3.734   3.596   5.088 -0.2122 -0.2124  0.1021
  802POPC   GL1 9615   3.620   3.653   5.422 -0.2592 -0.0699  0.1634
  802POPC   GL2 9616   3.751   3.776   5.638  0.0518  0.0637 -0.2248
  802POPC   C1A 9617   3.283   3.476   5.722 -0.0728 -0.0752 -0.0210
  802POPC   D2A 9618   3.248   3.428   6.164 -0.4075 -0.0832  0.3773
  802POPC   C3A 9619   2.865   3.598   6.374  0.0629  0.0947 -0.4236
  802POPC   C4A 9620   2.550   3.463   6.758  0.1406 -0.0641  0.0180
  802POPC   C1B 9621   3.475   3.870   5.987  0.2716 -0.1335  0.3428
  802POPC   C2B 9622   3.258   3.958   6.367 -0.0077  0.1286 -0.0767
  802POPC   C3B 9623   3.016   3.929   6.793 -0.2119  0.0550  0.1510
  802POPC   C4B 9624   2.680   3.889   7.157 -0.1400 -0.2262 -0.0930
  803POPC   NC3 9625  12.916   9.096   5.615  0.2166  0.0990  0.0704
  803POPC   PO4 9626  12.984   8.798   5.785  0.2155  0.0210  0.3100
  803POPC   GL1 9627  12.981   8.922   6.147 -0.0221 -0.0494  0.2679
  803POPC   GL2 9628  13.256   8.824   6.224 -0.0891 -0.1852  0.0641
  803POPC   C1A 9629  13.008   9.100   6.570  0.0641 -0.1339  0.0026
  803POPC   D2A 9630  13.254   9.262   6.904  0.1100 -0.0482  0.0437
  803POPC   C3A 9631  13.269   9.318   7.349  0.1465  0.0191 -0.3843
  803POPC   C4A 9632  13.263   9.421   7.784  0.1161  0.4160  0.1009
  803POPC   C1B 9633  13.463   9.238   6.426  0.2266 -0.1764  0.0689
  803POPC   C2B 9634  13.681   9.531   6.716 -0.0251  0.0739 -0.1931
  803POPC   C3B 9635  14.087   9.752   6.781  0.2921  0.2016 -0.2034
  803POPC   C4B 9636  14.137  10.169   6.912 -0.0849  0.1940 -0.1520
  804POPC   NC3 9637   5.632   9.760   4.948  0.1687 -0.0502  0.1516
  804POPC   PO4 9638   5.917   9.913   5.184  0.0274  0.0344  0.1526
  804POPC   GL1 9639   5.582   9.916   5.369 -0.2968  0.5962 -0.1956
  804POPC   GL2 9640   5.459  10.133   5.204  0.0323  0.3644 -0.2754
  804POPC   C1A 9641   5.489  10.051   5.803  0.0559 -0.4257  0.0647
  804POPC   D2A 9642   5.304  10.156   6.194 -0.0138  0.1274  0.1480
  804POPC   C3A 9643   5.188  10.258   6.639 -0.2149  0.0285  0.1357
  804POPC   C4A 9644   4.965  10.288   7.043 -0.1583 -0.2103  0.2763
  804POPC   C1B 9645   5.625  10.430   5.513  0.0623  0.0769  0.0952
  804POPC   C2B 9646   5.729  10.565   5.850 -0.0039  0.1714 -0.0442
  804POPC   C3B 9647   6.026  10.857   5.914 -0.0852  0.1826  0.0492
  804POPC   C4B 9648   6.393  11.171   5.984  0.0971 -0.1684 -0.0375
  805POPC   NC3 9649  11.268   4.523   8.511 -0.0323 -0.2138 -0.0732
  805POPC   PO4 9650  11.320   4.927   8.461 -0.1530 -0.0519  0.2907
  805POPC   GL1 9651  11.628   4.830   8.719 -0.3146 -0.1105  0.0321
  805POPC   GL2 9652  11.459   4.740   8.947  0.0966 -0.0902 -0.0679
  805POPC   C1A 9653  11.912   4.521   8.890 -0.0161  0.1172  0.0329
  805POPC   D2A 9654  12.078   4.382   9.301 -0.2181 -0.2723 -0.4066
  805POPC   C3A 9655  12.446   4.335   9.543 -0.0751 -0.0836 -0.1437
  805POPC   C4A 9656  12.804   4.288   9.776  0.3009  0.3000  0.1559
  805POPC   C1B 9657  11.808   4.886   9.213  0.0174 -0.0876 -0.0672
  805POPC   C2B 9658  12.288   4.946   9.155  0.1120 -0.2211  0.3561
  805POPC   C3B 9659  12.677   4.788   9.259 -0.4006 -0.0052 -0.1306
  805POPC   C4B 9660  13.046   4.754   9.533  0.0304  0.1578 -0.1203
  806POPC   NC3 9661  10.629   4.898  10.955  0.0235 -0.2994 -0.1364
  806POPC   PO4 9662  10.837   5.169  10.761  0.3025 -0.1777  0.0667
  806POPC   GL1 9663  11.089   4.921  10.569  0.1980  0.0634 -0.3706
  806POPC   GL2 9664  11.223   4.826  10.789 -0.3608  0.1136  0.2174
  806POPC   C1A 9665  11.502   4.858  10.346 -0.1428 -0.1632  0.1843
  806POPC   D2A 9666  11.837   4.503  10.213  0.1812 -0.0225 -0.1760
  806POPC   C3A 9667  11.737   4.018  10.268 -0.0839  0.1744 -0.2208
  806POPC   C4A 9668  11.478   3.672  10.197  0.3360  0.0025 -0.0236
  806POPC   C1B 9669  11.366   4.397  10.662 -0.0537 -0.1963 -0.2420
  806POPC   C2B 9670  11.245   4.039  10.489  0.1548 -0.1751  0.1589
  806POPC   C3B 9671  11.004   3.643  10.442  0.0404  0.3489  0.1878
  806POPC   C4B 9672  11.045   3.245  10.195 -0.1746  0.1475 -0.2015
  807POPC   NC3 9673  10.073  15.072   5.184 -0.3221 -0.1930  0.0883
  807POPC   PO4 9674   9.755  14.936   5.049  0.0092  0.2306  0.3316
  807POPC   GL1 9675   9.855  14.708   5.395  0.1028 -0.2912 -0.0310
  807POPC   GL2 9676   9.922  14.935   5.602  0.1701 -0.1943 -0.1977
  807POPC   C1A 9677   9.725  14.464   5.817  0.2554  0.0118 -0.2678
  807POPC   D2A 9678   9.761  14.308   6.217  0.0997 -0.3879  0.2402
  807POPC   C3A 9679   9.606  14.466   6.576 -0.1122  0.0731  0.0860
  807POPC   C4A 9680   9.317  14.377   6.957  0.2017  0.1005 -0.2368
  807POPC   C1B 9681  10.138  14.745   6.006 -0.0100  0.1814  0.0483
  807POPC   C2B 9682  10.010  14.669   6.430 -0.1455 -0.2100  0.2364
  807POPC   C3B 9683  10.349  14.457   6.680  0.1521  0.0771 -0.4063
  807POPC   C4B 9684  10.525  14.052   6.862  0.0299  0.1095  0.2402
  808POPC   NC3 9685   5.169   7.722   5.477 -0.0209  0.1336  0.1231
  808POPC   PO4 9686   5.120   8.106   5.377 -0.1003  0.3568  0.3139
  808POPC   GL1 9687   4.891   8.100   5.644 -0.1729 -0.3861  0.0437
  808POPC   GL2 9688   4.946   7.947   5.861 -0.2932 -0.1271 -0.1412
  808POPC   C1A 9689   4.709   8.394   5.979 -0.3048  0.0038 -0.1203
  808POPC   D2A 9690   4.385   8.487   6.260  0.0187 -0.1204  0.3155
  808POPC   C3A 9691   3.948   8.223   6.201 -0.1672  0.0951 -0.2145
  808POPC   C4A 9692   3.551   8.016   6.087  0.3435  0.1644  0.1983
  808POPC   C1B 9693   5.027   7.973   6.342 -0.1383 -0.5224 -0.1862
  808POPC   C2B 9694   5.166   7.951   6.758 -0.1118  0.1026 -0.1506
  808POPC   C3B 9695   5.272   8.019   7.220  0.0661  0.0935 -0.0631
  808POPC   C4B 9696   5.482   8.344   7.439  0.2349  0.1229 -0.0285
  809POPC   NC3 9697   8.016   8.271   6.743 -0.0797 -0.0027 -0.0111
  809POPC   PO4 9698   8.394   8.172   6.668 -0.0599 -0.2064  0.0043
  809POPC   GL1 9699   8.390   8.382   6.995 -0.0161  0.2040 -0.1051
  809POPC   GL2 9700   8.180   8.402   7.269  0.1282  0.4542 -0.0160
  809POPC   C1A 9701   8.679   8.642   7.254  0.0995  0.1887 -0.1929
  809POPC   D2A 9702   8.895   8.612   7.696 -0.2869 -0.0826  0.1893
  809POPC   C3A 9703   8.726   8.942   8.053 -0.0936 -0.0585  0.0022
  809POPC   C4A 9704   8.308   9.041   8.245 -0.2221 -0.0077 -0.2963
  809POPC   C1B 9705   8.269   8.626   7.648  0.2831  0.1616  0.2491
  809POPC   C2B 9706   8.394   8.548   8.071  0.0907  0.0482 -0.0404
  809POPC   C3B 9707   8.330   8.589   8.537  0.0059 -0.0214  0.4058
  809POPC   C4B 9708   8.418   8.818   8.969  0.2426  0.0880  0.1183
  810POPC   NC3 9709  11.924  10.782   5.248  0.1506  0.1700  0.2761
  810POPC   PO4 9710  11.682  10.478   5.383 -0.1399 -0.1201  0.1328
  810POPC   GL1 9711  11.840  10.641   5.688 -0.2107 -0.0399 -0.1547
  810POPC   GL2 9712  11.850  10.614   5.965 -0.1188  0.6468 -0.1123
  810POPC   C1A 9713  12.234  10.833   5.717  0.1244  0.3404  0.0642
  810POPC   D2A 9714  12.519  10.903   6.047  0.1265 -0.1325  0.0615
  810POPC   C3A 9715  12.735  11.254   6.229  0.0075 -0.2507 -0.1370
  810POPC   C4A 9716  13.102  11.392   6.446 -0.1554  0.3851 -0.0617
  810POPC   C1B 9717  11.887  10.633   6.397  0.1349 -0.0397 -0.0228
  810POPC   C2B 9718  12.053  10.931   6.646  0.0205  0.0284 -0.3006
  810POPC   C3B 9719  12.218  11.270   6.899  0.0014  0.1364 -0.1027
  810POPC   C4B 9720  12.549  11.536   7.169 -0.1211 -0.3474  0.3044
  811POPC   NC3 9721  12.758  12.414   4.668  0.0454 -0.0589  0.2349
  811POPC   PO4 9722  13.168  12.425   4.646 -0.0820  0.2255 -0.0410
  811POPC   GL1 9723  13.192  12.665   4.999 -0.2312 -0.0275  0.0566
  811POPC   GL2 9724  12.918  12.677   5.183 -0.0062  0.1715  0.1327
  811POPC   C1A 9725  13.504  12.669   5.336 -0.0502  0.2096  0.1919
  811POPC   D2A 9726  13.500  12.527   5.785  0.4711  0.1000 -0.0895
  811POPC   C3A 9727  13.376  12.774   6.157  0.1998 -0.0673  0.3854
  811POPC   C4A 9728  13.619  12.889   6.532  0.2980 -0.2604 -0.1229
  811POPC   C1B 9729  13.053  12.658   5.617 -0.0316 -0.2364  0.3138
  811POPC   C2B 9730  13.083  12.374   5.997  0.0195  0.0543  0.4487
  811POPC   C3B 9731  13.240  12.401   6.462 -0.1359  0.3664 -0.2613
  811POPC   C4B 9732  12.866  12.305   6.786 -0.1360  0.0054 -0.0132
  812POPC   NC3 9733  10.467   5.230  12.217  0.0936  0.3834  0.0486
  812POPC   PO4 9734  10.307   5.139  12.583 -0.1123  0.0742 -0.0009
  812POPC   GL1 9735  10.475   4.772  12.530 -0.1513  0.0789  0.3723
  812POPC   GL2 9736  10.315   4.543  12.670  0.1268  0.0279  0.0135
  812POPC   C1A 9737  10.811   4.596  12.309  0.0733  0.1767 -0.2365
  812POPC   D2A 9738  10.863   4.152  12.161 -0.1718 -0.0379  0.2984
  812POPC   C3A 9739  10.847   3.849  12.474  0.0338  0.2317 -0.0172
  812POPC   C4A 9740  10.842   3.397  12.468  0.1572  0.2851 -0.3182
  812POPC   C1B 9741  10.544   4.148  12.754  0.4052  0.0283  0.0699
  812POPC   C2B 9742  10.707   3.707  12.899 -0.0121 -0.0090  0.1206
  812POPC   C3B 9743  10.681   3.273  13.089  0.1416  0.1124  0.1456
  812POPC   C4B 9744  10.761   3.069  13.469 -0.1090  0.2360 -0.1296
  813POPC   NC3 9745  15.785   6.829   5.250 -0.1951 -0.1052 -0.1741
  813POPC   PO4 9746  15.534   6.721   5.547  0.0636 -0.0256 -0.3885
  813POPC   GL1 9747  15.442   6.855   5.913 -0.2353  0.6360  0.3197
  813POPC   GL2 9748  15.729   6.798   6.001 -0.1144  0.0166 -0.1526
  813POPC   C1A 9749  15.387   6.897   6.380  0.2019  0.1455 -0.3099
  813POPC   D2A 9750  15.314   7.137   6.786 -0.0775  0.3387 -0.1639
  813POPC   C3A 9751  15.742   7.190   6.961 -0.2568 -0.1198 -0.0203
  813POPC   C4A 9752  16.117   7.238   7.270 -0.1295  0.2164 -0.0837
  813POPC   C1B 9753  16.201   6.695   6.044 -0.2065 -0.1740  0.1899
  813POPC   C2B 9754  16.679   6.776   5.904  0.3952  0.0090 -0.1251
  813POPC   C3B 9755  16.958   6.984   6.175 -0.1742 -0.2701  0.2485
  813POPC   C4B 9756  16.904   7.160   6.553  0.1978  0.2124 -0.2400
  814POPC   NC3 9757   6.337   9.892   4.923 -0.0668  0.2935  0.1836
  814POPC   PO4 9758   6.624  10.137   4.888 -0.0554 -0.3561  0.0390
  814POPC   GL1 9759   6.584  10.103   5.394  0.1713  0.1540  0.0722
  814POPC   GL2 9760   6.338  10.164   5.311  0.0441 -0.1219 -0.0011
  814POPC   C1A 9761   6.643  10.143   5.860 -0.0264  0.0323 -0.3075
  814POPC   D2A 9762   6.533  10.221   6.313  0.2436  0.1758  0.4677
  814POPC   C3A 9763   6.706  10.106   6.743 -0.0419 -0.2195  0.0297
  814POPC   C4A 9764   6.785  10.216   7.196 -0.0225  0.3661 -0.0402
  814POPC   C1B 9765   6.171  10.632   5.420 -0.0164  0.0521  0.1803
  814POPC   C2B 9766   5.776  10.867   5.467  0.5478 -0.0473  0.3363
  814POPC   C3B 9767   5.478  11.000   5.827  0.0743  0.1426 -0.0262
  814POPC   C4B 9768   5.315  11.225   6.159 -0.3760 -0.3891 -0.2044
  815POPC   NC3 9769   4.184   4.717   5.668  0.0464 -0.0614  0.0504
  815POPC   PO4 9770   4.567   4.670   5.774 -0.1022  0.2043 -0.0590
  815POPC   GL1 9771   4.420   4.541   6.109 -0.1556  0.0062  0.0511
  815POPC   GL2 9772   4.257   4.313   6.152 -0.1643  0.1789 -0.1281
  815POPC   C1A 9773   4.240   4.775   6.469 -0.0487  0.0269  0.1621
  815POPC   D2A 9774   4.098   4.752   6.850  0.0384 -0.1932 -0.4884
  815POPC   C3A 9775   3.915   4.959   7.217  0.1322 -0.1393 -0.0564
  815POPC   C4A 9776   3.674   4.835   7.576  0.1094  0.0234  0.0802
  815POPC   C1B 9777   3.855   4.351   6.360  0.0686 -0.0435 -0.1691
  815POPC   C2B 9778   3.841   4.352   6.814  0.0749  0.1437 -0.2262
  815POPC   C3B 9779   4.014   4.248   7.238  0.0162 -0.0432  0.2100
  815POPC   C4B 9780   3.862   4.367   7.663  0.0675 -0.1094 -0.0725
  816POPC   NC3 9781  12.045   8.918   5.803 -0.1922  0.3701 -0.1261
  816POPC   PO4 9782  12.188   9.270   5.719  0.1163 -0.0719  0.0581
  816POPC   GL1 9783  12.381   9.470   5.944  0.2935  0.4092 -0.1372
  816POPC   GL2 9784  12.302   9.567   6.239 -0.1843  0.0256 -0.0333
  816POPC   C1A 9785  12.786   9.452   6.138 -0.3315 -0.0333  0.0450
  816POPC   D2A 9786  13.130   9.665   6.392  0.1775  0.2692 -0.2452
  816POPC   C3A 9787  12.992   9.748   6.825 -0.4388  0.3356 -0.0299
  816POPC   C4A 9788  13.280   9.805   7.195  0.0253 -0.2604  0.0139
  816POPC   C1B 9789  12.521   9.928   6.459 -0.3575 -0.0840 -0.1192
  816POPC   C2B 9790  12.738  10.190   6.753  0.0730  0.2467  0.0768
  816POPC   C3B 9791  12.621  10.500   7.079  0.0892  0.4742  0.0068
  816POPC   C4B 9792  12.672  10.961   7.125 -0.1064  0.2221 -0.2226
  817POPC   NC3 9793  10.646   3.393   6.719  0.0614 -0.1353  0.0546
  817POPC   PO4 9794  11.042   3.373   6.811 -0.0662 -0.0136  0.2785
  817POPC   GL1 9795  11.319   3.161   7.091 -0.0230  0.1465 -0.3127
  817POPC   GL2 9796  11.265   3.181   7.330  0.0850 -0.2063 -0.0374
  817POPC   C1A 9797  11.473   2.707   7.153 -0.0791  0.0681  0.0055
  817POPC   D2A 9798  11.866   2.551   7.009  0.1690  0.2763 -0.1515
  817POPC   C3A 9799  12.192   2.803   7.117 -0.3065  0.0936 -0.1727
  817POPC   C4A 9800  12.584   3.070   7.188  0.0761 -0.0814 -0.1768
  817POPC   C1B 9801  11.203   2.897   7.634 -0.0406  0.0431  0.1462
  817POPC   C2B 9802  11.434   2.525   7.715  0.1793 -0.0946  0.0856
  817POPC   C3B 9803  11.645   2.097   7.824  0.2241 -0.3822  0.1028
  817POPC   C4B 9804  12.004   2.012   8.106  0.1211  0.3273 -0.2671
  818POPC   NC3 9805   6.489  12.456   4.303  0.2161  0.1998  0.1476
  818POPC   PO4 9806   6.818  12.376   4.453 -0.3949 -0.2434 -0.0087
  818POPC   GL1 9807   6.770  12.639   4.697 -0.0642 -0.0496 -0.4898
  818POPC   GL2 9808   6.763  12.469   4.939 -0.3486 -0.0673 -0.2742
  818POPC   C1A 9809   6.986  12.910   5.092  0.0031  0.1493 -0.0093
  818POPC   D2A 9810   7.174  13.321   5.350  0.3522 -0.1677  0.0047
  818POPC   C3A 9811   6.970  13.429   5.752  0.0862  0.0951 -0.2822
  818POPC   C4A 9812   6.782  13.654   6.116 -0.3749  0.0903  0.0460
  818POPC   C1B 9813   6.806  12.529   5.430 -0.1669  0.0238  0.0808
  818POPC   C2B 9814   6.554  12.538   5.785 -0.0139 -0.1134  0.4673
  818POPC   C3B 9815   6.255  12.345   6.022  0.2704 -0.0582 -0.1256
  818POPC   C4B 9816   5.941  12.489   6.401  0.1946 -0.0682  0.2432
  819POPC   NC3 9817  13.957   8.651   5.641 -0.1911  0.1319  0.0784
  819POPC   PO4 9818  13.880   8.269   5.788  0.0447 -0.1717 -0.2488
  819POPC   GL1 9819  14.145   8.443   6.047 -0.2537  0.4604 -0.3155
  819POPC   GL2 9820  14.371   8.467   5.924  0.1497 -0.1283 -0.0688
  819POPC   C1A 9821  14.359   8.402   6.474 -0.0492 -0.1975  0.1286
  819POPC   D2A 9822  14.280   8.141   6.863  0.0197  0.0141  0.4392
  819POPC   C3A 9823  14.361   8.392   7.193  0.4450 -0.0249 -0.0869
  819POPC   C4A 9824  14.483   8.553   7.617  0.0532  0.0490 -0.2839
  819POPC   C1B 9825  14.712   8.652   6.144 -0.0397  0.0488  0.1981
  819POPC   C2B 9826  15.078   8.584   6.411 -0.1485  0.3307  0.1063
  819POPC   C3B 9827  15.325   8.535   6.826  0.3609  0.0999 -0.0101
  819POPC   C4B 9828  15.803   8.608   6.988 -0.1167 -0.1846  0.0491
  820POPC   NC3 9829   3.992   7.039   5.164  0.0244  0.2464  0.5395
  820POPC   PO4 9830   3.825   7.357   5.302 -0.0123 -0.2258 -0.0810
  820POPC   GL1 9831   4.110   7.218   5.591 -0.1297 -0.0546  0.3079
  820POPC   GL2 9832   4.053   6.978   5.647 -0.0289  0.0636 -0.0285
  820POPC   C1A 9833   4.313   7.331   6.005 -0.2121 -0.1870 -0.2079
  820POPC   D2A 9834   4.149   7.140   6.373  0.0066  0.1166  0.4218
  820POPC   C3A 9835   3.886   7.209   6.799  0.0884 -0.0218  0.2697
  820POPC   C4A 9836   3.671   7.202   7.204 -0.1116 -0.2099  0.0574
  820POPC   C1B 9837   3.799   7.139   6.003  0.2196  0.1937 -0.0936
  820POPC   C2B 9838   3.677   7.382   6.387 -0.0242  0.0135 -0.0996
  820POPC   C3B 9839   3.504   7.733   6.534 -0.0575  0.1744 -0.0796
  820POPC   C4B 9840   3.265   7.986   6.918 -0.0265  0.3769  0.1970
  821POPC   NC3 9841  14.224  30.839   4.082  0.0173 -0.1083 -0.0395
  821POPC   PO4 9842  14.262  31.267   4.098  0.0277 -0.3010  0.2585
  821POPC   GL1 9843  14.325  31.494   4.451  0.1385  0.0611  0.0746
  821POPC   GL2 9844  14.602  31.593   4.304  0.0093 -0.0626 -0.3893
  821POPC   C1A 9845  14.541  31.643   4.841 -0.1309 -0.2242  0.2170
  821POPC   D2A 9846  14.515  31.535   5.268  0.1945 -0.1626 -0.3096
  821POPC   C3A 9847  14.467  31.109   5.447 -0.0002  0.0513 -0.1304
  821POPC   C4A 9848  14.255  30.750   5.682  0.1205 -0.5937  0.2195
  821POPC   C1B 9849  14.832  31.291   4.643  0.0575  0.2397 -0.2272
  821POPC   C2B 9850  14.968  31.389   5.063  0.1532 -0.2572  0.0976
  821POPC   C3B 9851  14.981  31.294   5.542 -0.0017  0.0977  0.3356
  821POPC   C4B 9852  14.768  31.037   5.825 -0.0854  0.0121  0.0024
  822POPC   NC3 9853  15.678   3.542   4.857  0.2140  0.0972  0.1683
  822POPC   PO4 9854  15.329   3.667   5.039  0.0823 -0.2089  0.0714
  822POPC   GL1 9855  15.405   3.372   5.265  0.2886  0.3197 -0.0445
  822POPC   GL2 9856  15.660   3.370   5.297  0.0627 -0.3574  0.0713
  822POPC   C1A 9857  15.138   3.121   5.595  0.0671  0.1603  0.0406
  822POPC   D2A 9858  14.842   2.878   5.815  0.1641 -0.0621  0.2044
  822POPC   C3A 9859  14.846   2.686   6.204  0.0733  0.0601  0.0038
  822POPC   C4A 9860  14.925   2.242   6.431  0.0808  0.0180 -0.0618
  822POPC   C1B 9861  15.598   3.149   5.736  0.1165 -0.2247  0.1163
  822POPC   C2B 9862  15.348   2.954   6.121 -0.1490  0.0673  0.2898
  822POPC   C3B 9863  15.398   2.843   6.557  0.0473 -0.0269 -0.1316
  822POPC   C4B 9864  15.201   2.574   6.886 -0.3744  0.1213 -0.1388
  823POPC   NC3 9865   6.409   6.233   6.188 -0.1828  0.0709  0.2613
  823POPC   PO4 9866   6.029   6.221   6.197 -0.0773  0.1552  0.3916
  823POPC   GL1 9867   5.909   6.243   6.572  0.0251  0.0228  0.3948
  823POPC   GL2 9868   6.173   6.174   6.675 -0.0412  0.0516 -0.1315
  823POPC   C1A 9869   5.715   6.347   6.979 -0.2640  0.1792 -0.1285
  823POPC   D2A 9870   5.514   6.319   7.357  0.1704 -0.0478  0.1715
  823POPC   C3A 9871   5.137   6.534   7.486  0.1420 -0.0913 -0.0732
  823POPC   C4A 9872   4.704   6.572   7.651 -0.0019  0.3785 -0.0025
  823POPC   C1B 9873   6.198   6.491   7.031 -0.0944 -0.0117 -0.0320
  823POPC   C2B 9874   6.025   6.758   7.339  0.1103 -0.2060  0.4113
  823POPC   C3B 9875   6.130   6.960   7.747  0.1725 -0.1922 -0.3152
  823POPC   C4B 9876   5.857   7.102   8.122  0.1768 -0.2997  0.0972
  824POPC   NC3 9877   0.761  10.269   4.401  0.1523  0.1386 -0.1246
  824POPC   PO4 9878   1.128  10.263   4.345  0.2809 -0.1555  0.0393
  824POPC   GL1 9879   1.093  10.328   4.759  0.1409  0.0986 -0.3079
  824POPC   GL2 9880   1.086  10.138   5.028 -0.1764 -0.5814  0.3172
  824POPC   C1A 9881   1.246  10.672   5.045 -0.0322 -0.1198  0.0253
  824POPC   D2A 9882   1.540  10.837   5.350 -0.3962 -0.1469  0.0540
  824POPC   C3A 9883   1.609  10.990   5.745  0.1475  0.1551  0.3079
  824POPC   C4A 9884   1.571  11.147   6.172 -0.1116 -0.0999 -0.1145
  824POPC   C1B 9885   0.840  10.427   5.266  0.3010 -0.1104 -0.0171
  824POPC   C2B 9886   0.885  10.825   5.363 -0.1861  0.1321  0.3459
  824POPC   C3B 9887   1.062  11.144   5.679 -0.1095  0.1414 -0.0117
  824POPC   C4B 9888   1.131  11.288   6.100  0.0332 -0.2102  0.2134
  825POPC   NC3 9889   0.293   1.884   5.114  0.3574  0.1386 -0.3120
  825POPC   PO4 9890  -0.109   1.921   5.108 -0.1383  0.4466 -0.1414
  825POPC   GL1 9891   0.040   1.567   5.426  0.0595  0.0552  0.0855
  825POPC   GL2 9892   0.060   1.794   5.649  0.0128 -0.1535 -0.1075
  825POPC   C1A 9893   0.189   1.392   5.836 -0.1232  0.1269  0.0791
  825POPC   D2A 9894   0.382   1.504   6.241  0.0643 -0.1302  0.0689
  825POPC   C3A 9895   0.824   1.744   6.387  0.0455 -0.1156 -0.0508
  825POPC   C4A 9896   1.286   1.580   6.507 -0.0265 -0.0017  0.0640
  825POPC   C1B 9897  -0.100   1.660   6.105 -0.0256  0.2248 -0.0119
  825POPC   C2B 9898  -0.347   1.369   6.271 -0.0170  0.0864 -0.1173
  825POPC   C3B 9899  -0.688   1.368   6.631 -0.0502  0.0033  0.1199
  825POPC   C4B 9900  -0.867   1.548   6.998 -0.3632  0.1511  0.0973
  826POPC   NC3 9901  13.909  12.864   4.421 -0.0952 -0.0181  0.0378
  826POPC   PO4 9902  14.004  12.523   4.575  0.1724 -0.1374 -0.2555
  826POPC   GL1 9903  14.131  12.548   4.945  0.0645 -0.0987 -0.1196
  826POPC   GL2 9904  13.979  12.756   5.039  0.2588 -0.1747 -0.0712
  826POPC   C1A 9905  14.125  12.145   5.210  0.0837 -0.0590 -0.1012
  826POPC   D2A 9906  14.381  11.964   5.496  0.1302  0.1488  0.2629
  826POPC   C3A 9907  14.311  11.539   5.719  0.1733  0.3440 -0.1531
  826POPC   C4A 9908  14.068  11.244   6.015  0.0360  0.1520 -0.0366
  826POPC   C1B 9909  13.885  12.947   5.454  0.0163 -0.2739  0.2667
  826POPC   C2B 9910  13.641  13.087   5.843 -0.2109 -0.2569  0.1661
  826POPC   C3B 9911  13.410  13.243   6.214  0.1141  0.2882 -0.1503
  826POPC   C4B 9912  13.441  13.485   6.589 -0.1654  0.1129  0.0860
  827POPC   NC3 9913   4.183  17.038   5.250 -0.1812  0.0562  0.0612
  827POPC   PO4 9914   4.051  16.980   4.878 -0.2460 -0.2778 -0.2101
  827POPC   GL1 9915   3.884  16.702   5.094 -0.0246  0.4549 -0.5018
  827POPC   GL2 9916   4.117  16.516   5.045  0.2790 -0.0181  0.0364
  827POPC   C1A 9917   3.953  16.638   5.508 -0.1628 -0.0233  0.1430
  827POPC   D2A 9918   4.037  16.493   5.959  0.0119  0.2212  0.1599
  827POPC   C3A 9919   4.014  16.222   6.299  0.1145  0.0824 -0.1020
  827POPC   C4A 9920   4.015  16.164   6.756  0.2160  0.1535 -0.2130
  827POPC   C1B 9921   4.175  16.171   5.343 -0.2017 -0.2112 -0.2452
  827POPC   C2B 9922   4.017  15.990   5.771 -0.0951 -0.1802  0.0063
  827POPC   C3B 9923   4.044  15.729   6.154  0.0294  0.2519  0.0700
  827POPC   C4B 9924   4.310  15.802   6.535  0.1886  0.1935  0.0026
  828POPC   NC3 9925  13.566   4.249   6.179  0.0146  0.2283  0.1328
  828POPC   PO4 9926  13.690   3.918   6.004 -0.2761  0.1039 -0.1923
  828POPC   GL1 9927  13.764   3.840   6.387 -0.0168  0.1167  0.4879
  828POPC   GL2 9928  13.452   3.830   6.445 -0.2109 -0.2723 -0.0391
  828POPC   C1A 9929  14.043   3.655   6.675  0.0027 -0.3509  0.1029
  828POPC   D2A 9930  14.403   3.758   6.989 -0.2039 -0.0640  0.1028
  828POPC   C3A 9931  14.430   3.352   7.175 -0.1045 -0.0176 -0.2531
  828POPC   C4A 9932  14.545   3.093   7.506 -0.0406 -0.1236  0.1490
  828POPC   C1B 9933  13.643   3.461   6.618 -0.1382  0.0974 -0.0705
  828POPC   C2B 9934  13.977   3.174   6.693  0.2719 -0.5116 -0.1328
  828POPC   C3B 9935  14.254   2.922   6.926 -0.0025 -0.0588 -0.1853
  828POPC   C4B 9936  14.423   2.634   7.225 -0.1753 -0.3088 -0.0848
  829POPC   NC3 9937   1.375   9.822   4.321 -0.1266  0.1169 -0.0318
  829POPC   PO4 9938   1.373   9.510   4.615  0.2698 -0.0713  0.0146
  829POPC   GL1 9939   1.402   9.823   4.898 -0.1605  0.2045 -0.3364
  829POPC   GL2 9940   1.460   9.756   5.183 -0.0071  0.1219  0.6743
  829POPC   C1A 9941   1.568  10.269   4.846 -0.1343 -0.1253 -0.1215
  829POPC   D2A 9942   1.808  10.560   5.083 -0.0306 -0.1933  0.2462
  829POPC   C3A 9943   1.978  10.491   5.524 -0.0075  0.1999  0.4891
  829POPC   C4A 9944   1.867  10.581   5.963  0.2398 -0.2475  0.0568
  829POPC   C1B 9945   1.511   9.409   5.536 -0.2932 -0.0262 -0.0791
  829POPC   C2B 9946   1.300   9.199   5.886 -0.0787  0.2386 -0.0138
  829POPC   C3B 9947   1.175   9.348   6.301  0.2383  0.1616  0.1475
  829POPC   C4B 9948   1.197   9.747   6.490  0.0897  0.0208  0.3327
  830POPC   NC3 9949  13.447   8.383   6.040  0.1496  0.1857  0.0292
  830POPC   PO4 9950  13.468   8.718   5.791  0.1777  0.1020 -0.0582
  830POPC   GL1 9951  13.809   8.913   6.060  0.0306  0.1430  0.0149
  830POPC   GL2 9952  13.761   8.767   6.332  0.4123 -0.2724  0.3460
  830POPC   C1A 9953  13.982   9.238   6.330  0.0690  0.1772  0.0164
  830POPC   D2A 9954  14.072   9.215   6.852  0.1411 -0.0467  0.0307
  830POPC   C3A 9955  14.373   9.398   7.111  0.0858  0.2686 -0.1713
  830POPC   C4A 9956  14.591   9.735   7.274  0.0985 -0.0893  0.1877
  830POPC   C1B 9957  13.611   8.899   6.732 -0.0588 -0.0950 -0.2483
  830POPC   C2B 9958  13.636   9.004   7.205  0.1835 -0.3562  0.0903
  830POPC   C3B 9959  13.690   9.101   7.646  0.0351 -0.2462 -0.1403
  830POPC   C4B 9960  13.918   9.238   7.997 -0.0568 -0.0346 -0.1992
  831POPC   NC3 9961   8.941   4.218   8.401 -0.0946 -0.2213  0.3487
  831POPC   PO4 9962   9.219   4.037   8.167 -0.0098 -0.0206 -0.1079
  831POPC   GL1 9963   9.386   3.808   8.429  0.1577 -0.1323 -0.0958
  831POPC   GL2 9964   9.660   3.830   8.591 -0.0534  0.2691 -0.0564
  831POPC   C1A 9965   9.229   3.541   8.793  0.1145  0.0505 -0.0757
  831POPC   D2A 9966   9.284   3.180   9.098 -0.2152 -0.1670 -0.2046
  831POPC   C3A 9967   8.970   2.984   9.308 -0.0688 -0.2566 -0.2070
  831POPC   C4A 9968   8.686   2.915   9.737 -0.1635 -0.0311  0.0584
  831POPC   C1B 9969   9.664   3.609   9.008 -0.1505 -0.1130  0.2300
  831POPC   C2B 9970   9.831   3.192   9.186  0.1467 -0.0110  0.0629
  831POPC   C3B 9971  10.069   2.971   9.514 -0.0611  0.2137  0.2687
  831POPC   C4B 9972  10.174   2.947   9.964  0.2504  0.2836 -0.2146
  832POPC   NC3 9973   1.662   7.552   5.326  0.0723  0.0121 -0.1808
  832POPC   PO4 9974   2.030   7.716   5.360  0.1308  0.1588 -0.1727
  832POPC   GL1 9975   1.914   7.754   5.684  0.2390  0.0059 -0.2742
  832POPC   GL2 9976   1.976   7.970   5.871  0.1497  0.0057  0.2526
  832POPC   C1A 9977   1.803   7.635   6.172 -0.0679  0.0322 -0.0497
  832POPC   D2A 9978   1.991   7.534   6.525 -0.2239 -0.3126  0.0440
  832POPC   C3A 9979   1.946   7.603   6.974  0.2637 -0.0622 -0.2160
  832POPC   C4A 9980   1.781   7.575   7.413 -0.1156 -0.1671  0.0948
  832POPC   C1B 9981   2.149   7.985   6.321  0.0401  0.2816  0.1579
  832POPC   C2B 9982   2.186   7.979   6.749  0.0287 -0.2508  0.2971
  832POPC   C3B 9983   2.202   8.274   7.105  0.1747  0.1186 -0.1065
  832POPC   C4B 9984   2.633   8.512   7.190  0.1870 -0.1395  0.1068
  833POPC   NC3 9985   6.878   2.288   5.890 -0.3745  0.4212  0.0090
  833POPC   PO4 9986   6.514   2.435   5.929  0.5459 -0.0404  0.0059
  833POPC   GL1 9987   6.357   2.131   6.109 -0.1003  0.1943 -0.1355
  833POPC   GL2 9988   6.132   2.001   6.042 -0.1004 -0.2805  0.1569
  833POPC   C1A 9989   6.219   1.896   6.485 -0.1546  0.2407 -0.0402
  833POPC   D2A 9990   6.192   1.823   6.945  0.0320  0.0634  0.1345
  833POPC   C3A 9991   6.527   1.886   7.251 -0.0420 -0.0378  0.0042
  833POPC   C4A 9992   6.672   2.316   7.387  0.0592 -0.2713 -0.4818
  833POPC   C1B 9993   5.771   1.736   6.287 -0.3156 -0.0483 -0.1807
  833POPC   C2B 9994   5.709   1.574   6.660  0.0444  0.1306  0.0844
  833POPC   C3B 9995   5.682   1.379   6.998 -0.0518 -0.0395 -0.1395
  833POPC   C4B 9996   5.937   1.290   7.380  0.1800 -0.2003  0.0780
  834POPC   NC3 9997   5.022  16.503   5.023 -0.0932 -0.0574  0.2722
  834POPC   PO4 9998   4.800  16.475   4.691 -0.1156  0.0837  0.3147
  834POPC   GL1 9999   4.806  16.091   5.002  0.2125  0.1052  0.0643
  834POPC   GL210000   4.610  16.164   5.161 -0.2298 -0.0686 -0.2054
  834POPC   C1A10001   5.138  15.988   5.259  0.2636 -0.1009  0.2813
  834POPC   D2A10002   5.366  15.597   5.458 -0.0455 -0.1335  0.1015
  834POPC   C3A10003   5.599  15.780   5.842  0.3994  0.1130 -0.1435
  834POPC   C4A10004   5.657  15.724   6.273 -0.1132 -0.0086  0.0393
  834POPC   C1B10005   4.594  15.949   5.626  0.1246 -0.0265 -0.4063
  834POPC   C2B10006   4.518  15.736   6.065 -0.1310  0.0001 -0.0261
  834POPC   C3B10007   4.460  15.344   6.232 -0.0099 -0.1155  0.2157
  834POPC   C4B10008   4.645  15.042   5.941 -0.2909  0.1539  0.1360
  835POPC   NC310009   7.044   9.876   5.572 -0.0078 -0.1556 -0.4000
  835POPC   PO410010   7.228  10.220   5.564 -0.0373 -0.0475  0.0392
  835POPC   GL110011   7.109  10.612   5.739  0.0940  0.0553  0.2284
  835POPC   GL210012   7.356  10.729   5.793  0.2853 -0.0084  0.0968
  835POPC   C1A10013   6.899  10.613   6.167  0.3122 -0.1268 -0.1109
  835POPC   D2A10014   6.785  10.576   6.606  0.0891  0.0326  0.0287
  835POPC   C3A10015   6.448  10.784   6.813  0.2276 -0.2606 -0.0015
  835POPC   C4A10016   6.119  11.123   6.919 -0.1221  0.0703  0.0641
  835POPC   C1B10017   7.321  11.013   6.144  0.0490 -0.0521  0.3800
  835POPC   C2B10018   7.310  11.336   6.486 -0.0104 -0.1589 -0.2052
  835POPC   C3B10019   7.208  11.290   6.890  0.0532  0.0419  0.2181
  835POPC   C4B10020   7.481  11.029   7.221  0.0766  0.1000 -0.0076
  836POPC   NC310021   8.650  16.300   4.861 -0.1494 -0.0358  0.2935
  836POPC   PO410022   9.057  16.250   4.994  0.1312  0.2339  0.1684
  836POPC   GL110023   9.027  15.975   5.310  0.0559 -0.2031 -0.1525
  836POPC   GL210024   9.016  16.160   5.543 -0.2129  0.2061  0.1287
  836POPC   C1A10025   8.825  15.686   5.644  0.0685  0.0447 -0.0269
  836POPC   D2A10026   8.795  15.390   6.067  0.2798 -0.0557 -0.2717
  836POPC   C3A10027   8.461  15.085   6.322  0.0179 -0.1304  0.0458
  836POPC   C4A10028   8.014  14.972   6.265 -0.1406  0.1952 -0.1805
  836POPC   C1B10029   8.986  16.097   5.995 -0.1156  0.1660 -0.2332
  836POPC   C2B10030   9.037  16.179   6.433 -0.0620 -0.1149 -0.0213
  836POPC   C3B10031   9.170  16.254   6.888 -0.0339 -0.2309  0.1747
  836POPC   C4B10032   9.556  16.455   7.023  0.1505 -0.1875 -0.2262
  837POPC   NC310033   2.302   4.100   5.253  0.2225  0.0138  0.3367
  837POPC   PO410034   2.592   3.828   5.200  0.0818 -0.1346  0.1403
  837POPC   GL110035   2.599   3.635   5.516 -0.1719 -0.0613 -0.1013
  837POPC   GL210036   2.838   3.449   5.466  0.1939  0.0474  0.1469
  837POPC   C1A10037   2.614   3.456   5.965 -0.1753  0.1408 -0.0251
  837POPC   D2A10038   2.542   3.180   6.354  0.0888  0.1691  0.1321
  837POPC   C3A10039   2.183   3.049   6.624 -0.1286 -0.1105  0.1847
  837POPC   C4A10040   1.852   3.022   6.987  0.0598 -0.1015 -0.2706
  837POPC   C1B10041   3.008   3.085   5.750  0.4101  0.1129 -0.0249
  837POPC   C2B10042   2.968   2.936   6.176  0.3750 -0.2799  0.0999
  837POPC   C3B10043   2.915   3.052   6.617 -0.0435 -0.0213  0.1996
  837POPC   C4B10044   3.291   3.124   6.921  0.1551  0.3548 -0.2380
  838POPC   NC310045   9.162   3.409   6.966  0.0339  0.2565  0.1172
  838POPC   PO410046   8.813   3.358   7.117  0.0175 -0.0928 -0.0421
  838POPC   GL110047   8.585   3.051   7.353  0.1327 -0.1375  0.1299
  838POPC   GL210048   8.442   3.074   7.532  0.0430 -0.2462 -0.0927
  838POPC   C1A10049   8.770   2.606   7.395 -0.0919 -0.2352 -0.2296
  838POPC   D2A10050   9.136   2.455   7.638  0.1155  0.3830  0.0094
  838POPC   C3A10051   9.202   2.647   8.050  0.0300 -0.0651  0.0228
  838POPC   C4A10052   9.206   3.064   8.271 -0.0038 -0.0462 -0.0329
  838POPC   C1B10053   8.279   2.737   7.762  0.2347  0.0678 -0.2303
  838POPC   C2B10054   8.119   2.286   7.907 -0.1700 -0.0685 -0.4158
  838POPC   C3B10055   7.896   1.907   8.096 -0.1106 -0.2311  0.1472
  838POPC   C4B10056   7.835   1.522   8.085  0.0407  0.1827  0.0748
  839POPC   NC310057   0.653   5.443   4.621 -0.1120  0.3446  0.2098
  839POPC   PO410058   0.295   5.435   4.781  0.0479  0.0936  0.1349
  839POPC   GL110059   0.393   5.311   5.195 -0.0218  0.1258 -0.0733
  839POPC   GL210060   0.474   5.032   5.205 -0.2517 -0.4063 -0.1171
  839POPC   C1A10061   0.223   5.319   5.610 -0.2466 -0.4118 -0.1445
  839POPC   D2A10062   0.173   5.447   6.062  0.3051 -0.0224 -0.0503
  839POPC   C3A10063   0.047   5.489   6.493 -0.0487  0.0595  0.2367
  839POPC   C4A10064  -0.004   5.149   6.847  0.0978  0.0236  0.0424
  839POPC   C1B10065   0.269   4.831   5.510 -0.2383 -0.5054  0.1610
  839POPC   C2B10066   0.258   4.542   5.884  0.3048  0.1152  0.1958
  839POPC   C3B10067   0.116   4.381   6.307 -0.1564  0.3268  0.0536
  839POPC   C4B10068  -0.051   4.259   6.749 -0.0919 -0.2678  0.2015
  840POPC   NC310069   9.944   4.538   9.707  0.0930  0.2490  0.1093
  840POPC   PO410070  10.290   4.590   9.461 -0.0427 -0.1242  0.4280
  840POPC   GL110071  10.181   4.177   9.571  0.2340 -0.2856 -0.2404
  840POPC   GL210072  10.471   4.010   9.549  0.0904 -0.2582 -0.1696
  840POPC   C1A10073  10.205   4.034  10.017  0.0799 -0.0380  0.0738
  840POPC   D2A10074   9.872   3.857  10.331  0.3076  0.0138  0.2550
  840POPC   C3A10075   9.612   3.475  10.529  0.2919 -0.0775  0.2631
  840POPC   C4A10076   9.248   3.199  10.565  0.0622  0.2701  0.2411
  840POPC   C1B10077  10.803   3.771   9.396  0.1605  0.0248 -0.0413
  840POPC   C2B10078  10.870   3.357   9.434 -0.2600 -0.1153 -0.0819
  840POPC   C3B10079  11.100   2.976   9.366  0.2493  0.1501 -0.4341
  840POPC   C4B10080  11.564   2.920   9.223  0.3592 -0.1789 -0.0052
  841POPC   NC310081   7.471   6.490   8.166 -0.1995  0.2594 -0.2304
  841POPC   PO410082   7.817   6.503   8.375 -0.1465 -0.1537 -0.1719
  841POPC   GL110083   7.493   6.658   8.615  0.1702 -0.1647  0.1387
  841POPC   GL210084   7.578   6.541   8.826 -0.1318 -0.0249  0.0640
  841POPC   C1A10085   7.257   7.075   8.772  0.0121 -0.0294  0.2050
  841POPC   D2A10086   6.837   7.217   8.893  0.1682 -0.0024 -0.2874
  841POPC   C3A10087   6.621   6.989   9.255  0.0988  0.3545 -0.2953
  841POPC   C4A10088   6.281   6.943   9.589  0.1340  0.1688  0.0302
  841POPC   C1B10089   7.341   6.310   9.154 -0.0323 -0.2167 -0.0852
  841POPC   C2B10090   7.171   6.056   9.483  0.1698  0.1990  0.0045
  841POPC   C3B10091   7.073   5.712   9.818 -0.1702  0.0919 -0.0603
  841POPC   C4B10092   7.205   5.698  10.256  0.1969 -0.1915 -0.0282
  842POPC   NC310093  15.995  13.224   4.398  0.2804  0.0385  0.2044
  842POPC   PO410094  16.216  12.957   4.268 -0.3993  0.4026  0.0536
  842POPC   GL110095  16.299  12.936   4.699  0.1586 -0.2590  0.1799
  842POPC   GL210096  16.463  12.684   4.821 -0.0238 -0.1868  0.1398
  842POPC   C1A10097  16.279  13.053   5.129 -0.5090 -0.4299 -0.0899
  842POPC   D2A10098  16.327  13.090   5.572  0.3616 -0.1481 -0.1553
  842POPC   C3A10099  16.267  12.815   5.925  0.0368  0.0573  0.2125
  842POPC   C4A10100  15.991  12.535   6.231  0.0645  0.0398 -0.1406
  842POPC   C1B10101  16.675  12.737   5.253 -0.0911  0.0164  0.0585
  842POPC   C2B10102  17.016  13.036   5.499  0.1091  0.2678 -0.0076
  842POPC   C3B10103  17.304  12.766   5.727 -0.0982  0.2481  0.0067
  842POPC   C4B10104  17.594  12.995   6.018  0.0577  0.1943  0.1434
  843POPC   NC310105   8.763  10.253   5.616  0.1117 -0.0942  0.2075
  843POPC   PO410106   8.694  10.520   5.902 -0.0587 -0.4360  0.1529
  843POPC   GL110107   8.629  10.715   6.256 -0.2693 -0.3246  0.0325
  843POPC   GL210108   8.423  10.958   6.177 -0.0600 -0.1344 -0.0476
  843POPC   C1A10109   8.239  10.616   6.475  0.1747  0.0381  0.2324
  843POPC   D2A10110   7.811  10.371   6.479 -0.3321 -0.1079  0.0738
  843POPC   C3A10111   7.514  10.267   6.817 -0.0477  0.0096 -0.2114
  843POPC   C4A10112   7.214  10.477   7.082 -0.1434  0.0238  0.0868
  843POPC   C1B10113   8.646  11.163   6.522  0.1453 -0.3809  0.0568
  843POPC   C2B10114   8.636  11.411   6.952  0.3227  0.1656  0.0475
  843POPC   C3B10115   8.277  11.387   7.257 -0.4826 -0.0065  0.0005
  843POPC   C4B10116   8.036  11.465   7.631 -0.1720 -0.0683 -0.0398
  844POPC   NC310117   0.271  10.452   4.496  0.0628 -0.0845  0.1593
  844POPC   PO410118   0.154  10.101   4.623 -0.1654 -0.1508 -0.0071
  844POPC   GL110119   0.206  10.336   4.962 -0.2893 -0.1634 -0.0218
  844POPC   GL210120   0.065  10.526   5.109  0.0588 -0.1568 -0.0679
  844POPC   C1A10121   0.381  10.215   5.350 -0.1244 -0.1357  0.1463
  844POPC   D2A10122   0.735  10.143   5.670 -0.0528  0.0234  0.0989
  844POPC   C3A10123   1.111  10.055   5.520  0.2522  0.1988  0.2755
  844POPC   C4A10124   1.530  10.019   5.696 -0.0972  0.1042 -0.0134
  844POPC   C1B10125  -0.089  10.315   5.455 -0.2347 -0.1591  0.0153
  844POPC   C2B10126  -0.195  10.533   5.851  0.0529  0.1493  0.2127
  844POPC   C3B10127  -0.249  10.764   6.241  0.3215  0.3511 -0.0218
  844POPC   C4B10128  -0.078  10.794   6.637  0.1621  0.1539 -0.1059
  845POPC   NC310129   6.305   7.316   6.159 -0.1877  0.0729  0.1482
  845POPC   PO410130   6.356   6.967   6.328  0.1363 -0.0883 -0.2488
  845POPC   GL110131   6.058   6.915   6.489 -0.1459  0.0076  0.1957
  845POPC   GL210132   5.912   6.666   6.473  0.0586  0.2264  0.1312
  845POPC   C1A10133   5.882   6.968   6.910 -0.0330 -0.0140  0.1097
  845POPC   D2A10134   5.558   6.784   7.240  0.0935  0.0420  0.0589
  845POPC   C3A10135   5.591   6.736   7.685 -0.2556  0.3722  0.1273
  845POPC   C4A10136   5.613   6.608   8.179  0.3080 -0.0707  0.0367
  845POPC   C1B10137   5.466   6.569   6.617 -0.2801 -0.1163  0.1328
  845POPC   C2B10138   5.168   6.585   6.956 -0.1239 -0.1570  0.1531
  845POPC   C3B10139   5.013   6.911   7.151 -0.1152 -0.0774 -0.0267
  845POPC   C4B10140   4.792   7.209   7.318  0.2111  0.2316  0.2125
  846POPC   NC310141   9.015   6.325  12.846 -0.2526  0.0258 -0.0889
  846POPC   PO410142   9.159   6.037  12.584  0.2199  0.1035  0.0686
  846POPC   GL110143   8.769   5.956  12.432 -0.0835  0.2130  0.2820
  846POPC   GL210144   8.708   6.279  12.429  0.0304  0.1124 -0.1403
  846POPC   C1A10145   8.330   5.866  12.592  0.0947 -0.1794 -0.1799
  846POPC   D2A10146   7.965   5.598  12.628 -0.4447  0.0590 -0.1015
  846POPC   C3A10147   7.645   5.546  12.287 -0.0570 -0.0924 -0.2216
  846POPC   C4A10148   7.768   5.431  11.880  0.0553 -0.0379  0.1575
  846POPC   C1B10149   8.246   6.409  12.469 -0.1571 -0.2625 -0.1733
  846POPC   C2B10150   7.931   6.157  12.620  0.1650  0.1941  0.2509
  846POPC   C3B10151   7.511   5.950  12.760  0.3068  0.0571 -0.2091
  846POPC   C4B10152   7.398   5.803  13.174 -0.0841 -0.0363 -0.0566
  847POPC   NC310153  14.618   9.800   4.703 -0.0994  0.0208 -0.0829
  847POPC   PO410154  14.871   9.662   4.987  0.0002  0.0528  0.1206
  847POPC   GL110155  14.929   9.519   5.345  0.2376  0.2011  0.3120
  847POPC   GL210156  15.222   9.459   5.335  0.0042  0.0972  0.1736
  847POPC   C1A10157  14.877   9.444   5.802  0.0355  0.2091  0.2670
  847POPC   D2A10158  14.747   9.683   6.209  0.3744 -0.0566 -0.0622
  847POPC   C3A10159  14.389   9.958   6.347 -0.2786  0.1985 -0.0477
  847POPC   C4A10160  14.431  10.371   6.582  0.2169  0.2480  0.0698
  847POPC   C1B10161  15.352   9.485   5.710 -0.2183  0.0651 -0.0277
  847POPC   C2B10162  15.693   9.647   5.942  0.2097  0.1121  0.0468
  847POPC   C3B10163  16.061   9.637   6.175  0.0740 -0.0511 -0.0752
  847POPC   C4B10164  16.148   9.786   6.611  0.0063 -0.2141 -0.2723
  848POPC   NC310165   5.565  32.701   4.590 -0.0964  0.0099 -0.4436
  848POPC   PO410166   5.936  32.544   4.686 -0.3806 -0.1269 -0.0781
  848POPC   GL110167   5.906  32.392   4.992 -0.0563 -0.2392  0.3690
  848POPC   GL210168   6.193  32.260   5.026  0.1190  0.1492 -0.0313
  848POPC   C1A10169   5.806  32.148   5.406  0.3046  0.1143 -0.0519
  848POPC   D2A10170   5.773  32.090   5.900 -0.1048  0.2148 -0.1583
  848POPC   C3A10171   5.780  31.647   6.101  0.2459  0.1469  0.2003
  848POPC   C4A10172   5.492  31.406   6.357  0.0178 -0.2905 -0.1070
  848POPC   C1B10173   6.328  32.061   5.422 -0.0697 -0.0151  0.3271
  848POPC   C2B10174   6.436  32.011   5.861  0.2672  0.1886  0.0622
  848POPC   C3B10175   6.158  31.894   6.226 -0.0571  0.2639  0.0070
  848POPC   C4B10176   5.885  31.813   6.546 -0.0103 -0.1625 -0.0833
  849POPC   NC310177  10.826   4.299   7.910 -0.2100 -0.1277  0.0344
  849POPC   PO410178  10.752   4.392   8.287  0.2408 -0.0298 -0.0875
  849POPC   GL110179  10.723   4.114   8.484 -0.2367 -0.3698 -0.1729
  849POPC   GL210180  10.717   4.023   8.735  0.2553  0.0628  0.2501
  849POPC   C1A10181  11.089   3.785   8.609  0.1272 -0.0393 -0.2860
  849POPC   D2A10182  11.524   3.643   8.601 -0.2987  0.2115  0.0512
  849POPC   C3A10183  11.825   3.391   8.863  0.2875 -0.2013 -0.1227
  849POPC   C4A10184  12.023   3.006   8.908 -0.0626 -0.0167  0.1055
  849POPC   C1B10185  10.707   3.557   8.839  0.0868 -0.2221 -0.1108
  849POPC   C2B10186  10.742   3.076   8.923  0.4490  0.2388 -0.1007
  849POPC   C3B10187  10.694   2.560   8.995  0.0573  0.2477  0.2642
  849POPC   C4B10188  10.924   2.168   8.899  0.3916  0.0386 -0.0024
  850POPC   NC310189   5.375   1.568   5.486  0.0929 -0.1364  0.2488
  850POPC   PO410190   5.699   1.832   5.648  0.0431 -0.1845 -0.0434
  850POPC   GL110191   5.641   1.582   5.908  0.0407  0.1980 -0.1620
  850POPC   GL210192   5.716   1.318   5.818  0.0729 -0.1356  0.3623
  850POPC   C1A10193   5.339   1.560   6.269 -0.0053  0.1260 -0.0897
  850POPC   D2A10194   5.200   1.361   6.655  0.1300  0.3205  0.3646
  850POPC   C3A10195   4.982   1.701   6.741 -0.0894  0.2481 -0.0598
  850POPC   C4A10196   4.773   1.892   7.102  0.2280 -0.0437  0.3177
  850POPC   C1B10197   5.659   1.188   6.302 -0.0387  0.1257 -0.0719
  850POPC   C2B10198   5.804   0.994   6.637 -0.2136 -0.1706  0.0268
  850POPC   C3B10199   5.874   0.898   7.081 -0.2261 -0.1048 -0.3741
  850POPC   C4B10200   5.978   0.811   7.507 -0.0270  0.0474  0.0486
  851POPC   NC310201   6.801   3.212   6.199 -0.1377 -0.0989 -0.4109
  851POPC   PO410202   6.677   2.832   6.171  0.2908 -0.0575 -0.1711
  851POPC   GL110203   6.600   2.579   6.510 -0.2370 -0.5822 -0.2815
  851POPC   GL210204   6.455   2.387   6.434 -0.2152  0.0356 -0.1044
  851POPC   C1A10205   6.651   2.633   6.954 -0.0035  0.1878  0.0379
  851POPC   D2A10206   6.721   2.822   7.395 -0.1272  0.0650  0.1683
  851POPC   C3A10207   6.330   2.691   7.603  0.2587 -0.0783 -0.2093
  851POPC   C4A10208   6.134   2.758   8.014  0.0282 -0.3652 -0.1140
  851POPC   C1B10209   6.364   2.253   6.874  0.0969 -0.2063 -0.0715
  851POPC   C2B10210   6.154   2.311   7.289 -0.2882  0.0320  0.0164
  851POPC   C3B10211   6.134   2.184   7.734 -0.1732 -0.1069  0.1104
  851POPC   C4B10212   6.270   1.888   8.086 -0.0082 -0.2434 -0.0318
  852POPC   NC310213   7.323  11.693   5.249 -0.1335 -0.0259 -0.2065
  852POPC   PO410214   7.556  11.967   5.125 -0.1990  0.1147  0.2611
  852POPC   GL110215   7.584  12.036   5.480 -0.1287  0.3665 -0.0831
  852POPC   GL210216   7.849  12.166   5.641 -0.0754  0.1239 -0.0969
  852POPC   C1A10217   7.426  12.129   5.922  0.2365 -0.0790  0.1871
  852POPC   D2A10218   7.653  12.366   6.231  0.0254 -0.4583 -0.1909
  852POPC   C3A10219   7.580  12.251   6.691  0.1306  0.1197 -0.2664
  852POPC   C4A10220   7.735  12.048   7.115 -0.0533  0.0314 -0.0391
  852POPC   C1B10221   7.625  12.549   5.680 -0.0963  0.0760  0.0037
  852POPC   C2B10222   7.792  12.869   5.932 -0.0354 -0.0482 -0.1414
  852POPC   C3B10223   7.760  13.313   6.168  0.5225  0.3575 -0.0507
  852POPC   C4B10224   7.904  13.661   6.443 -0.1704 -0.0384  0.1198
  853POPC   NC310225  14.575   9.710   5.494  0.0857  0.0531  0.2678
  853POPC   PO410226  14.698   9.980   5.311  0.0735  0.1218 -0.0360
  853POPC   GL110227  14.816  10.265   5.629 -0.0949  0.2220 -0.0043
  853POPC   GL210228  14.678  10.482   5.562  0.0106 -0.1516  0.3077
  853POPC   C1A10229  14.850  10.243   6.085 -0.3640 -0.0840  0.1723
  853POPC   D2A10230  14.860  10.059   6.516 -0.0280 -0.0747  0.0273
  853POPC   C3A10231  15.065   9.765   6.743 -0.3125  0.0583 -0.0442
  853POPC   C4A10232  15.399   9.550   7.026  0.3476 -0.4656  0.1814
  853POPC   C1B10233  14.844  10.896   5.707  0.1916 -0.1500 -0.0229
  853POPC   C2B10234  14.725  11.286   5.954  0.1378  0.2330 -0.2921
  853POPC   C3B10235  14.470  11.522   6.248  0.2024  0.1597 -0.1583
  853POPC   C4B10236  14.533  11.779   6.621 -0.0513 -0.1320 -0.0014
  854POPC   NC310237  11.244  15.199   4.443 -0.2073  0.4742 -0.0053
  854POPC   PO410238  11.516  15.464   4.430 -0.1573 -0.3373 -0.3639
  854POPC   GL110239  11.480  15.371   4.871  0.0805 -0.0714 -0.0878
  854POPC   GL210240  11.246  15.346   4.954  0.1594 -0.0044 -0.0744
  854POPC   C1A10241  11.806  15.430   5.193 -0.2625  0.1456 -0.1549
  854POPC   D2A10242  12.116  15.615   5.555 -0.1551 -0.1231  0.2501
  854POPC   C3A10243  11.932  15.610   5.962 -0.0047 -0.0022 -0.2250
  854POPC   C4A10244  11.986  15.812   6.384 -0.1570 -0.2196 -0.0233
  854POPC   C1B10245  10.917  15.189   5.236 -0.2106  0.2870  0.0681
  854POPC   C2B10246  10.538  15.262   5.530  0.4868  0.0371 -0.3801
  854POPC   C3B10247  10.469  15.050   5.934 -0.0704 -0.0984 -0.0237
  854POPC   C4B10248  10.509  14.912   6.416 -0.0776  0.0716 -0.0486
  855POPC   NC310249   4.412   5.619   5.892  0.0208  0.4152 -0.0555
  855POPC   PO410250   4.064   5.826   5.805 -0.0495  0.0736 -0.0243
  855POPC   GL110251   3.937   5.532   5.942 -0.0608 -0.0024  0.1062
  855POPC   GL210252   4.036   5.223   5.935 -0.0742  0.3652  0.2067
  855POPC   C1A10253   3.565   5.280   6.119  0.1782 -0.1133  0.0184
  855POPC   D2A10254   3.216   5.330   6.417 -0.0062 -0.0357  0.0393
  855POPC   C3A10255   3.346   5.195   6.869  0.3515  0.3870 -0.2270
  855POPC   C4A10256   3.402   5.077   7.304 -0.0576 -0.0120  0.2807
  855POPC   C1B10257   4.109   5.353   6.410 -0.1901  0.1038 -0.0472
  855POPC   C2B10258   3.862   5.250   6.764 -0.1640 -0.0589  0.0163
  855POPC   C3B10259   3.765   5.476   7.106 -0.1419  0.2526  0.0790
  855POPC   C4B10260   3.660   5.595   7.546 -0.0356 -0.1263 -0.1950
  856POPC   NC310261  14.303   2.518   5.124 -0.1147  0.1196  0.3900
  856POPC   PO410262  14.187   2.231   4.892 -0.1900  0.2255 -0.3016
  856POPC   GL110263  14.246   2.117   5.321 -0.1762  0.0294  0.2441
  856POPC   GL210264  14.353   1.836   5.465  0.3971 -0.1187 -0.3724
  856POPC   C1A10265  14.613   2.269   5.574  0.2064 -0.1344  0.2020
  856POPC   D2A10266  14.958   2.313   5.834 -0.2009 -0.1095  0.0326
  856POPC   C3A10267  15.328   2.604   5.793 -0.2499  0.0547 -0.1480
  856POPC   C4A10268  15.462   2.797   5.402  0.2446 -0.1291  0.3333
  856POPC   C1B10269  14.433   1.549   5.812 -0.0958 -0.0244  0.0107
  856POPC   C2B10270  14.385   1.184   5.962  0.0752 -0.0411 -0.2659
  856POPC   C3B10271  14.130   1.107   6.340 -0.0756  0.2721 -0.2798
  856POPC   C4B10272  14.207   0.895   6.801  0.1562  0.1191  0.1149
  857POPC   NC310273  10.410   6.799  10.883  0.0996  0.1389 -0.2805
  857POPC   PO410274  10.528   6.593  10.561 -0.2473 -0.0726  0.3948
  857POPC   GL110275  10.844   6.894  10.449  0.1011  0.0922  0.3515
  857POPC   GL210276  11.070   6.815  10.667  0.1302 -0.0499 -0.1412
  857POPC   C1A10277  10.807   7.313  10.622 -0.0410  0.1211 -0.1711
  857POPC   D2A10278  10.937   7.797  10.581 -0.0373 -0.0807 -0.1763
  857POPC   C3A10279  10.590   8.085  10.696 -0.0491  0.0009  0.0779
  857POPC   C4A10280  10.305   8.438  10.821  0.1542  0.2204 -0.1526
  857POPC   C1B10281  11.407   7.106  10.493 -0.1669 -0.0407 -0.1067
  857POPC   C2B10282  11.826   7.320  10.596 -0.1000 -0.0785 -0.1841
  857POPC   C3B10283  11.961   7.651  10.914 -0.0302  0.1494 -0.1688
  857POPC   C4B10284  11.805   7.955  11.224  0.4031 -0.0104  0.1886
  858POPC   NC310285  12.319   8.551   6.315  0.2363 -0.0008 -0.0685
  858POPC   PO410286  12.101   8.525   6.646 -0.1118 -0.0203 -0.2109
  858POPC   GL110287  12.151   8.324   7.041  0.4143  0.0095  0.0042
  858POPC   GL210288  12.075   8.590   7.194 -0.2012 -0.2777 -0.3021
  858POPC   C1A10289  12.483   8.180   7.358 -0.0283  0.0200  0.1508
  858POPC   D2A10290  12.905   8.326   7.463  0.2382  0.0734  0.2206
  858POPC   C3A10291  13.139   8.299   7.860  0.1240  0.1622  0.3796
  858POPC   C4A10292  13.240   8.420   8.268 -0.2038 -0.2267  0.1110
  858POPC   C1B10293  12.188   8.844   7.589 -0.2105 -0.0301  0.0979
  858POPC   C2B10294  12.054   9.236   7.707  0.0096 -0.2324 -0.0936
  858POPC   C3B10295  11.760   9.507   7.905 -0.0839 -0.1363 -0.0416
  858POPC   C4B10296  11.347   9.778   7.858  0.3854  0.0976  0.1468
  859POPC   NC310297  12.842   4.420   6.517 -0.0615 -0.0661  0.1573
  859POPC   PO410298  13.167   4.213   6.400 -0.0275 -0.0644  0.2297
  859POPC   GL110299  13.200   4.342   6.812 -0.0347  0.3655 -0.0795
  859POPC   GL210300  13.336   4.140   6.864 -0.1508  0.0457  0.1733
  859POPC   C1A10301  13.359   4.706   7.100  0.0269 -0.1348 -0.1195
  859POPC   D2A10302  13.552   4.950   7.396  0.0140  0.1180 -0.2965
  859POPC   C3A10303  13.728   4.650   7.648 -0.1350  0.0405 -0.1740
  859POPC   C4A10304  13.990   4.435   7.898 -0.0867 -0.0527 -0.1999
  859POPC   C1B10305  13.752   4.074   6.764  0.1333 -0.1154 -0.0805
  859POPC   C2B10306  14.077   4.133   7.051 -0.2969 -0.2045  0.0546
  859POPC   C3B10307  14.256   3.895   7.445  0.2919 -0.2772 -0.0464
  859POPC   C4B10308  14.358   3.590   7.813  0.1707  0.1432 -0.1752
  860POPC   NC310309   9.891   7.658   7.599  0.2403  0.2538 -0.0368
  860POPC   PO410310   9.804   7.641   7.965 -0.0457  0.1608  0.2257
  860POPC   GL110311   9.873   7.739   8.376  0.2864 -0.0774 -0.0887
  860POPC   GL210312   9.929   8.004   8.266  0.0492  0.0349  0.1233
  860POPC   C1A10313  10.021   7.950   8.763 -0.2440  0.2529 -0.0869
  860POPC   D2A10314  10.318   8.246   8.924 -0.1032  0.2414  0.4167
  860POPC   C3A10315  10.551   8.522   9.239 -0.0182 -0.0984 -0.1811
  860POPC   C4A10316  10.530   8.593   9.733 -0.1533 -0.1122  0.1230
  860POPC   C1B10317  10.019   8.339   8.454  0.0383 -0.0505 -0.2839
  860POPC   C2B10318   9.953   8.817   8.578  0.2158  0.0260 -0.0101
  860POPC   C3B10319   9.725   9.189   8.786  0.0564 -0.0974 -0.0096
  860POPC   C4B10320   9.671   9.496   9.149  0.1010 -0.2755 -0.0055
  861POPC   NC310321   8.796   8.005   7.594 -0.2834 -0.0034  0.1637
  861POPC   PO410322   8.420   8.000   7.516 -0.1223 -0.0413  0.0557
  861POPC   GL110323   8.301   8.126   7.845 -0.1833 -0.3272  0.0321
  861POPC   GL210324   8.148   8.037   8.046 -0.0014  0.3747  0.1286
  861POPC   C1A10325   7.932   8.421   7.947 -0.2004  0.1927  0.3446
  861POPC   D2A10326   7.811   8.644   8.321 -0.2145  0.2036 -0.0736
  861POPC   C3A10327   7.959   8.885   8.691 -0.2408  0.0084  0.1614
  861POPC   C4A10328   8.275   9.239   8.762 -0.2576  0.1269 -0.0004
  861POPC   C1B10329   7.843   8.122   8.371 -0.1491 -0.2846 -0.1310
  861POPC   C2B10330   7.718   7.868   8.731 -0.3098 -0.5816 -0.0546
  861POPC   C3B10331   7.681   7.850   9.181  0.3168  0.0747  0.3608
  861POPC   C4B10332   7.543   8.106   9.567 -0.1461 -0.2412  0.0766
  862POPC   NC310333  10.828   2.902   6.566  0.2139 -0.0465 -0.0379
  862POPC   PO410334  10.502   2.997   6.450  0.1601 -0.1929  0.1453
  862POPC   GL110335  10.468   2.787   6.830 -0.3920  0.0751 -0.4348
  862POPC   GL210336  10.531   2.975   6.994  0.0043  0.1381 -0.0083
  862POPC   C1A10337  10.539   2.474   7.191  0.3829  0.1199 -0.0781
  862POPC   D2A10338  10.607   2.384   7.641 -0.1691 -0.1084  0.4377
  862POPC   C3A10339  10.639   2.029   7.909  0.0698 -0.2075 -0.5431
  862POPC   C4A10340  10.897   1.763   8.173  0.0845  0.0831 -0.2569
  862POPC   C1B10341  10.944   2.793   7.083 -0.1205  0.0741  0.0267
  862POPC   C2B10342  10.985   2.345   7.221 -0.1554  0.0703  0.0690
  862POPC   C3B10343  11.026   1.968   7.527 -0.0856 -0.1875 -0.0576
  862POPC   C4B10344  10.738   1.565   7.708 -0.1259 -0.1461 -0.1241
  863POPC   NC310345   3.468   2.175   4.915  0.0099 -0.3038  0.1188
  863POPC   PO410346   3.318   2.386   5.227  0.2033  0.2766 -0.0694
  863POPC   GL110347   3.267   2.353   5.658 -0.0409  0.0357  0.0492
  863POPC   GL210348   3.528   2.353   5.777  0.0086  0.2853  0.2952
  863POPC   C1A10349   3.123   2.091   6.040  0.0263  0.0784 -0.0476
  863POPC   D2A10350   3.347   2.081   6.469 -0.3863  0.1658  0.3072
  863POPC   C3A10351   3.819   2.085   6.398 -0.0178  0.0965  0.0201
  863POPC   C4A10352   4.203   2.283   6.434  0.2526 -0.1463  0.0534
  863POPC   C1B10353   3.279   2.547   6.132 -0.1627  0.3808 -0.2542
  863POPC   C2B10354   3.056   2.482   6.545 -0.2899 -0.1296 -0.1433
  863POPC   C3B10355   2.993   2.677   6.908 -0.1973  0.2506  0.1315
  863POPC   C4B10356   2.932   2.508   7.325  0.2214  0.0374 -0.1568
  864POPC   NC310357  10.590  16.753   4.718 -0.1309 -0.0958 -0.1966
  864POPC   PO410358  10.856  16.522   4.894  0.2294 -0.2103 -0.0518
  864POPC   GL110359  10.823  16.424   5.271  0.0356 -0.2613  0.0351
  864POPC   GL210360  10.981  16.147   5.320 -0.0568  0.1819 -0.2696
  864POPC   C1A10361  10.541  16.398   5.628  0.1031  0.0639  0.2350
  864POPC   D2A10362  10.306  16.516   6.013  0.0004 -0.1358 -0.0587
  864POPC   C3A10363  10.290  16.252   6.380  0.3374 -0.1208 -0.1104
  864POPC   C4A10364  10.525  15.880   6.426 -0.2788  0.1336 -0.0374
  864POPC   C1B10365  11.269  16.099   5.658  0.1014 -0.2743 -0.0431
  864POPC   C2B10366  11.370  16.139   6.099  0.0355 -0.0543  0.0484
  864POPC   C3B10367  11.461  16.046   6.540  0.2542  0.1463 -0.1058
  864POPC   C4B10368  11.173  15.901   6.851  0.3236  0.0541  0.0194
  865POPC   NC310369   1.204   5.914   5.318 -0.0195  0.1919  0.0377
  865POPC   PO410370   0.897   6.072   5.162  0.0437 -0.0091 -0.2607
  865POPC   GL110371   0.768   6.006   5.564 -0.0143  0.1669  0.0682
  865POPC   GL210372   0.606   5.725   5.493  0.2190 -0.1850 -0.1299
  865POPC   C1A10373   1.130   5.790   5.784 -0.0863  0.0708  0.0333
  865POPC   D2A10374   1.586   5.714   5.844  0.0191  0.0419 -0.0098
  865POPC   C3A10375   1.730   5.760   6.240  0.0230  0.0609 -0.0355
  865POPC   C4A10376   1.866   5.560   6.634  0.0292 -0.3543 -0.3277
  865POPC   C1B10377   0.611   5.573   5.981  0.1842 -0.1422 -0.2330
  865POPC   C2B10378   0.601   5.289   6.324 -0.0561  0.2768  0.0165
  865POPC   C3B10379   0.504   4.989   6.631 -0.0958 -0.0401 -0.1701
  865POPC   C4B10380   0.804   4.787   6.932  0.4081  0.3048  0.2328
  866POPC   NC310381   5.830  11.583   4.480  0.0600 -0.1626  0.0909
  866POPC   PO410382   6.042  11.293   4.695 -0.1661  0.3579 -0.0968
  866POPC   GL110383   6.170  11.542   4.944  0.2510  0.1831 -0.5333
  866POPC   GL210384   6.153  11.799   4.926  0.2253 -0.0618  0.2811
  866POPC   C1A10385   6.333  11.641   5.412 -0.1686 -0.1156  0.1333
  866POPC   D2A10386   6.071  11.891   5.706 -0.0555 -0.0313  0.0121
  866POPC   C3A10387   6.055  12.298   5.494 -0.0998 -0.0058 -0.6047
  866POPC   C4A10388   6.157  12.725   5.556 -0.1742  0.2482  0.1525
  866POPC   C1B10389   5.828  11.767   5.285  0.0802 -0.2282  0.2855
  866POPC   C2B10390   5.644  12.048   5.577  0.1508  0.3156 -0.1591
  866POPC   C3B10391   5.763  12.156   6.030  0.1819  0.1146 -0.3563
  866POPC   C4B10392   5.701  11.953   6.485  0.0888  0.1528  0.1474
  867POPC   NC310393   5.687  10.754   4.477 -0.2344  0.0149  0.0759
  867POPC   PO410394   5.431  11.007   4.363 -0.3044 -0.2097  0.1604
  867POPC   GL110395   5.606  11.166   4.649  0.0233 -0.0560 -0.1504
  867POPC   GL210396   5.636  11.124   4.951  0.2758  0.4917  0.2179
  867POPC   C1A10397   5.495  11.602   4.935  0.1991 -0.0182 -0.3519
  867POPC   D2A10398   5.304  11.828   5.284  0.0145  0.0485  0.0264
  867POPC   C3A10399   5.108  11.809   5.695 -0.0260 -0.2174  0.0083
  867POPC   C4A10400   4.872  11.604   6.036  0.0709 -0.1934 -0.0019
  867POPC   C1B10401   5.484  11.341   5.369  0.2790 -0.0288 -0.0568
  867POPC   C2B10402   5.553  11.589   5.742 -0.1058  0.0012 -0.1350
  867POPC   C3B10403   5.376  11.747   6.140 -0.1968 -0.3902  0.0172
  867POPC   C4B10404   5.148  12.035   6.464 -0.1874  0.1057 -0.0451
  868POPC   NC310405   8.304   2.816   6.398  0.4735 -0.4219 -0.1520
  868POPC   PO410406   7.958   3.003   6.471 -0.0484  0.3281  0.0706
  868POPC   GL110407   7.727   2.924   6.692  0.2219  0.2563  0.1907
  868POPC   GL210408   7.546   2.769   6.644 -0.1251  0.0269  0.2409
  868POPC   C1A10409   7.729   2.598   7.055  0.2070 -0.0270  0.2934
  868POPC   D2A10410   7.752   2.290   7.394 -0.0721 -0.0668 -0.0689
  868POPC   C3A10411   7.743   1.909   7.583  0.0537 -0.0290 -0.3072
  868POPC   C4A10412   7.440   1.575   7.663 -0.1030 -0.1010  0.3532
  868POPC   C1B10413   7.505   2.296   6.753 -0.0970 -0.2761  0.0058
  868POPC   C2B10414   7.477   2.017   7.061  0.0206  0.1614 -0.0028
  868POPC   C3B10415   7.231   2.038   7.405  0.1993 -0.1367  0.3870
  868POPC   C4B10416   6.863   1.963   7.739  0.1553  0.2748  0.1701
  869POPC   NC310417   1.869   9.801   4.426 -0.0399  0.0383 -0.1397
  869POPC   PO410418   2.201   9.721   4.625 -0.1002 -0.0337  0.0624
  869POPC   GL110419   2.115   9.881   4.906 -0.1641 -0.4070  0.0393
  869POPC   GL210420   2.400  10.017   5.053 -0.0259  0.1301 -0.1500
  869POPC   C1A10421   1.882  10.098   5.223 -0.1447  0.1979  0.3724
  869POPC   D2A10422   1.490  10.352   5.334 -0.0887  0.1850  0.0006
  869POPC   C3A10423   1.457  10.528   5.700  0.0980 -0.0124 -0.1628
  869POPC   C4A10424   1.344  10.659   6.113  0.3186 -0.0742 -0.0782
  869POPC   C1B10425   2.242   9.963   5.500 -0.0298  0.1997  0.1410
  869POPC   C2B10426   2.027  10.087   5.902  0.0896 -0.0710  0.0408
  869POPC   C3B10427   2.225  10.216   6.255 -0.3253 -0.3087  0.0187
  869POPC   C4B10428   1.997  10.312   6.699 -0.2382  0.1359  0.5882
  870POPC   NC310429   0.186   7.165   5.544 -0.3546  0.1012  0.0389
  870POPC   PO410430   0.544   7.055   5.452 -0.1281 -0.0116  0.4112
  870POPC   GL110431   0.563   7.270   5.832 -0.3949  0.1804  0.1430
  870POPC   GL210432   0.896   7.264   5.802 -0.0261  0.0496  0.0518
  870POPC   C1A10433   0.602   7.461   6.240  0.0036  0.3586 -0.0774
  870POPC   D2A10434   0.826   7.688   6.590 -0.2185  0.3054 -0.0318
  870POPC   C3A10435   1.192   7.994   6.657  0.1236  0.3110  0.1798
  870POPC   C4A10436   1.285   8.393   6.489 -0.2880  0.0222  0.0977
  870POPC   C1B10437   0.997   7.126   6.238  0.1345 -0.1297  0.0934
  870POPC   C2B10438   1.039   7.194   6.664 -0.1783 -0.1093  0.0318
  870POPC   C3B10439   0.775   7.269   6.986 -0.2054  0.0965 -0.1866
  870POPC   C4B10440   0.898   7.688   7.127 -0.2085  0.0054 -0.3523
  871POPC   NC310441   9.736   7.196  10.927 -0.1125 -0.0934 -0.1366
  871POPC   PO410442   9.977   6.945  10.748 -0.1124  0.1720 -0.1911
  871POPC   GL110443  10.283   7.233  10.673  0.2485  0.0833  0.0707
  871POPC   GL210444  10.083   7.414  10.552  0.0407 -0.1413  0.0302
  871POPC   C1A10445  10.418   7.614  10.925  0.1828  0.1679  0.1243
  871POPC   D2A10446  10.320   8.040  11.152 -0.2989  0.5541 -0.1586
  871POPC   C3A10447   9.915   8.221  11.188 -0.1875  0.4708 -0.1239
  871POPC   C4A10448   9.557   8.385  11.003 -0.0254  0.0027 -0.0220
  871POPC   C1B10449   9.823   7.765  10.318  0.1428 -0.2015 -0.3424
  871POPC   C2B10450   9.483   8.079  10.331 -0.0961 -0.0702 -0.0029
  871POPC   C3B10451   9.301   8.503  10.460 -0.3099  0.0905  0.0029
  871POPC   C4B10452   9.349   8.939  10.272  0.1200 -0.0029  0.0778
  872POPC   NC310453   8.447   6.445   9.579 -0.4389  0.0788  0.1828
  872POPC   PO410454   8.409   6.080   9.699 -0.0911  0.2446 -0.2096
  872POPC   GL110455   8.026   5.866   9.852  0.0230  0.2647  0.2125
  872POPC   GL210456   7.960   6.132   9.867 -0.1722 -0.2621 -0.3612
  872POPC   C1A10457   7.549   5.810   9.747  0.1036  0.1410  0.1063
  872POPC   D2A10458   7.480   5.380   9.905 -0.1416  0.1046  0.0342
  872POPC   C3A10459   7.085   5.185   9.820 -0.2482  0.0482  0.3727
  872POPC   C4A10460   6.687   5.393   9.862  0.0313 -0.1372  0.5662
  872POPC   C1B10461   7.587   6.336   9.710 -0.0948  0.1030  0.2361
  872POPC   C2B10462   7.150   6.551   9.591 -0.0463  0.3894 -0.1506
  872POPC   C3B10463   6.714   6.757   9.683 -0.3043 -0.1082 -0.0090
  872POPC   C4B10464   6.808   7.199   9.708  0.0674  0.1572 -0.1414
  873POPC   NC310465  11.753   3.073   5.667  0.0502  0.1198  0.1483
  873POPC   PO410466  11.629   2.794   5.914  0.3774  0.0867 -0.0072
  873POPC   GL110467  11.991   2.783   6.131  0.2379 -0.5661  0.0960
  873POPC   GL210468  12.162   2.971   6.260 -0.4320  0.0392 -0.0901
  873POPC   C1A10469  12.168   2.478   6.425  0.2454 -0.1186 -0.0774
  873POPC   D2A10470  12.314   2.377   6.838 -0.0497  0.0379  0.2738
  873POPC   C3A10471  12.275   2.321   7.278  0.2211 -0.1949  0.0771
  873POPC   C4A10472  12.367   2.258   7.716 -0.0303  0.1278  0.0500
  873POPC   C1B10473  12.384   2.864   6.679 -0.1842 -0.0123 -0.4322
  873POPC   C2B10474  12.681   2.641   6.977  0.0638  0.3675  0.0179
  873POPC   C3B10475  12.770   2.439   7.421  0.0505 -0.0274 -0.0275
  873POPC   C4B10476  13.156   2.371   7.684  0.1788  0.3977  0.0943
  874POPC   NC310477   2.396   8.291   4.728 -0.1098 -0.1819  0.4306
  874POPC   PO410478   2.629   8.356   5.008  0.0174  0.1073  0.1523
  874POPC   GL110479   2.775   8.649   5.242 -0.1980  0.0907  0.0016
  874POPC   GL210480   2.864   8.895   5.205  0.2837 -0.0677  0.1257
  874POPC   C1A10481   2.552   8.833   5.608 -0.0661  0.3697 -0.2646
  874POPC   D2A10482   2.327   8.896   6.049  0.2055 -0.0185  0.1629
  874POPC   C3A10483   2.596   9.299   6.271 -0.1198 -0.2054 -0.0917
  874POPC   C4A10484   3.009   9.269   6.492 -0.0377 -0.2154  0.0489
  874POPC   C1B10485   2.660   9.308   5.415  0.0725 -0.4218  0.1710
  874POPC   C2B10486   2.386   9.310   5.782  0.0225  0.3258  0.1319
  874POPC   C3B10487   2.276   9.602   6.111  0.0045  0.1519 -0.0017
  874POPC   C4B10488   2.030   9.761   6.492  0.0421 -0.2987 -0.0735
  875POPC   NC310489   7.728  10.293   5.550  0.1719 -0.1682 -0.1399
  875POPC   PO410490   7.944  10.051   5.761 -0.1031  0.1933 -0.2549
  875POPC   GL110491   7.639  10.079   6.134  0.2114 -0.1304  0.1129
  875POPC   GL210492   7.447  10.292   6.025 -0.0614 -0.4725  0.2702
  875POPC   C1A10493   7.565   9.844   6.542 -0.0395  0.0892  0.1683
  875POPC   D2A10494   7.592   9.673   7.038 -0.1297  0.1283 -0.2524
  875POPC   C3A10495   7.643   9.452   7.487 -0.0908  0.1139  0.0425
  875POPC   C4A10496   7.870   9.440   7.886  0.0369 -0.0097 -0.0372
  875POPC   C1B10497   7.380  10.588   6.377 -0.2342  0.2182 -0.0840
  875POPC   C2B10498   7.275  10.843   6.757  0.0548  0.2504  0.1112
  875POPC   C3B10499   6.904  10.846   6.989  0.4564  0.0460 -0.0237
  875POPC   C4B10500   6.567  10.613   7.257  0.1722 -0.0262  0.0701
  876POPC   NC310501  11.307   5.614   7.745  0.0793 -0.1898  0.1877
  876POPC   PO410502  11.685   5.551   7.786 -0.3210  0.1119  0.1290
  876POPC   GL110503  11.927   5.297   7.930 -0.1009  0.1523 -0.0689
  876POPC   GL210504  12.004   5.319   8.231  0.0116  0.0483  0.3401
  876POPC   C1A10505  12.325   5.091   7.922  0.0327 -0.1669  0.2893
  876POPC   D2A10506  12.801   5.044   7.864 -0.1891 -0.0366 -0.1637
  876POPC   C3A10507  12.996   5.127   8.274  0.0423 -0.0974  0.0347
  876POPC   C4A10508  13.263   5.282   8.580  0.0669  0.1274  0.1537
  876POPC   C1B10509  12.404   5.166   8.423  0.5107  0.0806 -0.1414
  876POPC   C2B10510  12.670   5.133   8.800  0.3466 -0.0667  0.1492
  876POPC   C3B10511  13.036   5.088   9.081  0.1686  0.1740  0.2681
  876POPC   C4B10512  13.400   4.927   9.232 -0.2627 -0.2021 -0.2315
  877POPC   NC310513  10.059  15.793   5.030  0.2411 -0.0426 -0.2616
  877POPC   PO410514   9.844  15.460   5.005 -0.0366  0.2492 -0.2262
  877POPC   GL110515   9.755  15.628   5.347  0.0087 -0.0519  0.6472
  877POPC   GL210516   9.938  15.478   5.471 -0.0282 -0.0159 -0.2118
  877POPC   C1A10517   9.345  15.714   5.556  0.2405  0.2264 -0.4688
  877POPC   D2A10518   9.240  15.672   6.008 -0.1785 -0.1153 -0.3021
  877POPC   C3A10519   9.574  15.529   6.361  0.0912  0.1313  0.0056
  877POPC   C4A10520   9.605  15.558   6.808  0.1593  0.0804  0.3305
  877POPC   C1B10521   9.825  15.774   5.842  0.4987  0.1744  0.0546
  877POPC   C2B10522   9.958  15.889   6.289  0.0046  0.1293 -0.0390
  877POPC   C3B10523  10.096  15.971   6.744  0.0613  0.2890  0.3699
  877POPC   C4B10524  10.426  16.016   7.050 -0.0471  0.1866 -0.3347
  878POPC   NC310525   7.086   2.024   4.933  0.1729  0.1151  0.2644
  878POPC   PO410526   6.704   2.045   5.063 -0.1841 -0.1910  0.1321
  878POPC   GL110527   6.789   1.938   5.442  0.1113  0.0653 -0.0018
  878POPC   GL210528   6.972   1.682   5.584 -0.1093 -0.0092 -0.2469
  878POPC   C1A10529   6.528   1.731   5.776 -0.0345  0.2621 -0.1849
  878POPC   D2A10530   6.203   1.424   6.001 -0.0215  0.0349  0.1642
  878POPC   C3A10531   6.174   1.349   6.436 -0.1096 -0.1489 -0.2404
  878POPC   C4A10532   6.149   1.310   6.915 -0.0025  0.0017 -0.2018
  878POPC   C1B10533   7.376   1.654   5.806  0.2326  0.0079 -0.1021
  878POPC   C2B10534   7.529   1.524   6.221  0.1687 -0.0371 -0.0434
  878POPC   C3B10535   7.692   1.277   6.545 -0.0597 -0.1016 -0.3282
  878POPC   C4B10536   7.472   0.938   6.863  0.1531 -0.1326 -0.0485
  879POPC   NC310537  13.441   3.122   5.452 -0.2335  0.0301  0.2118
  879POPC   PO410538  13.165   2.941   5.713 -0.4226  0.3825 -0.0004
  879POPC   GL110539  13.115   2.592   6.018  0.0689 -0.3029  0.1605
  879POPC   GL210540  13.212   2.256   5.912  0.2595 -0.1741 -0.1991
  879POPC   C1A10541  13.477   2.427   6.285 -0.1727 -0.0340  0.2287
  879POPC   D2A10542  13.543   2.061   6.618 -0.0907  0.0731 -0.1041
  879POPC   C3A10543  13.677   2.174   7.038  0.2801  0.1252  0.2479
  879POPC   C4A10544  13.620   2.288   7.529  0.0046  0.2881  0.0919
  879POPC   C1B10545  13.129   2.023   6.359 -0.2012  0.0307 -0.2247
  879POPC   C2B10546  13.104   1.940   6.852 -0.2916  0.1376 -0.0047
  879POPC   C3B10547  13.305   1.956   7.289 -0.0649  0.1908  0.2073
  879POPC   C4B10548  13.215   1.563   7.560 -0.1290  0.0212 -0.1015
  880POPC   NC310549   1.146   0.602   4.618  0.2612  0.1137 -0.2323
  880POPC   PO410550   1.429   0.753   4.442  0.1046 -0.1264 -0.0952
  880POPC   GL110551   1.689   0.638   4.775  0.0692 -0.0027 -0.0660
  880POPC   GL210552   1.689   0.875   4.944 -0.3485  0.1161  0.1078
  880POPC   C1A10553   1.818   0.318   5.100  0.3418 -0.4682 -0.1166
  880POPC   D2A10554   1.665   0.043   5.502  0.1964 -0.0722  0.0250
  880POPC   C3A10555   1.253   0.083   5.659 -0.0299  0.1018  0.5738
  880POPC   C4A10556   0.842   0.095   5.878  0.0693  0.3383 -0.0754
  880POPC   C1B10557   1.982   0.852   5.325  0.0288 -0.1034 -0.1651
  880POPC   C2B10558   2.062   0.732   5.777  0.0635  0.0295  0.0664
  880POPC   C3B10559   1.939   0.824   6.262  0.1498 -0.1649  0.1626
  880POPC   C4B10560   1.679   1.055   6.582  0.1475 -0.1905  0.0418
  881POPC   NC310561   8.379   5.127  10.598  0.3030  0.2405 -0.0075
  881POPC   PO410562   8.549   5.384  10.367  0.0819  0.2617  0.1320
  881POPC   GL110563   8.193   5.500  10.325 -0.2760 -0.0697 -0.2484
  881POPC   GL210564   7.982   5.401  10.565  0.0069 -0.2573  0.0317
  881POPC   C1A10565   7.783   5.700  10.205 -0.0713  0.0208 -0.0565
  881POPC   D2A10566   7.558   6.069  10.213  0.0131 -0.1367 -0.0857
  881POPC   C3A10567   7.156   6.153   9.942  0.0258  0.0088 -0.0697
  881POPC   C4A10568   6.699   6.063   9.868 -0.1131  0.0291  0.3217
  881POPC   C1B10569   7.567   5.297  10.377  0.1622  0.0769  0.0373
  881POPC   C2B10570   7.169   5.182  10.558 -0.0235 -0.4692  0.0135
  881POPC   C3B10571   6.775   5.381  10.570  0.4009 -0.0916  0.1314
  881POPC   C4B10572   6.448   5.604  10.324  0.1578  0.0771  0.0599
  882POPC   NC310573  10.220  11.875   4.826  0.0983  0.1339  0.1347
  882POPC   PO410574  10.310  11.631   5.159  0.2528 -0.0155  0.2887
  882POPC   GL110575   9.936  11.731   5.495 -0.1449  0.2566 -0.0890
  882POPC   GL210576  10.105  11.952   5.521 -0.1201  0.2747  0.0521
  882POPC   C1A10577   9.768  11.708   5.927 -0.0532 -0.2181  0.0871
  882POPC   D2A10578   9.862  11.614   6.401  0.4538  0.0835  0.0641
  882POPC   C3A10579  10.107  11.540   6.818 -0.2680 -0.0695 -0.0364
  882POPC   C4A10580  10.069  11.723   7.295 -0.3296 -0.2754  0.0070
  882POPC   C1B10581  10.294  11.803   5.900 -0.1841 -0.2435 -0.0375
  882POPC   C2B10582  10.407  11.767   6.419  0.1503 -0.0775  0.2785
  882POPC   C3B10583  10.491  11.848   6.869 -0.0434  0.2594  0.1232
  882POPC   C4B10584  10.357  12.277   7.165  0.0678  0.4279  0.1751
  883POPC   NC310585   6.682   0.931   4.754 -0.1531  0.0014 -0.0541
  883POPC   PO410586   6.927   0.611   4.866 -0.1894  0.0181 -0.1303
  883POPC   GL110587   6.811   0.643   5.267  0.3163  0.1737 -0.0601
  883POPC   GL210588   6.719   0.446   5.272 -0.3551 -0.2196 -0.3189
  883POPC   C1A10589   6.372   0.763   5.449 -0.2460  0.0810  0.2870
  883POPC   D2A10590   6.069   1.023   5.636 -0.1363  0.1242 -0.1700
  883POPC   C3A10591   6.067   0.947   6.076 -0.0175 -0.1421  0.2762
  883POPC   C4A10592   6.271   0.827   6.511 -0.0952  0.1708 -0.1370
  883POPC   C1B10593   6.452   0.301   5.579 -0.1300 -0.1838 -0.0063
  883POPC   C2B10594   6.127   0.066   5.877  0.1260 -0.1918 -0.1284
  883POPC   C3B10595   5.959   0.034   6.298  0.0100 -0.0152  0.2122
  883POPC   C4B10596   5.628  -0.140   6.604 -0.0012  0.2836  0.1486
  884POPC   NC310597   2.306   7.366   5.188 -0.0454  0.0358  0.0374
  884POPC   PO410598   1.968   7.151   5.214 -0.2028  0.1106  0.4269
  884POPC   GL110599   2.010   7.287   5.623  0.0501 -0.3883 -0.0146
  884POPC   GL210600   1.781   7.248   5.826  0.1924  0.0720  0.3362
  884POPC   C1A10601   2.220   7.493   5.980 -0.0045  0.5834 -0.0988
  884POPC   D2A10602   2.467   7.862   5.974 -0.2412 -0.0269  0.0072
  884POPC   C3A10603   2.922   7.958   5.916  0.1657  0.0194 -0.0124
  884POPC   C4A10604   3.091   8.355   6.017 -0.1476  0.0219  0.1016
  884POPC   C1B10605   2.016   6.972   6.100  0.1330  0.3516 -0.0555
  884POPC   C2B10606   2.048   7.012   6.580  0.0505  0.0654 -0.0894
  884POPC   C3B10607   1.853   7.061   7.023 -0.3457 -0.2870  0.1707
  884POPC   C4B10608   1.657   7.010   7.442 -0.0353  0.1352 -0.0652
  885POPC   NC310609   0.364   6.223   5.163  0.1020  0.3736  0.0126
  885POPC   PO410610  -0.024   6.219   5.179 -0.0850 -0.0337 -0.0900
  885POPC   GL110611   0.145   6.157   5.603  0.0564  0.1835 -0.1149
  885POPC   GL210612   0.213   5.893   5.789  0.0656  0.0982 -0.0624
  885POPC   C1A10613   0.548   6.215   5.927  0.0328 -0.1852 -0.0122
  885POPC   D2A10614   0.773   6.099   6.317  0.0759  0.0048 -0.0160
  885POPC   C3A10615   0.989   5.872   6.677  0.2832  0.1687  0.0690
  885POPC   C4A10616   1.018   5.720   7.162  0.0662 -0.0642 -0.2012
  885POPC   C1B10617   0.321   5.891   6.225  0.3460 -0.3388  0.0755
  885POPC   C2B10618   0.495   5.668   6.621  0.0230  0.0469 -0.1953
  885POPC   C3B10619   0.860   5.348   6.743 -0.1036  0.0245 -0.0309
  885POPC   C4B10620   1.036   5.204   7.111  0.1563 -0.2004  0.0314
  886POPC   NC310621  10.542  14.605   4.609  0.0007 -0.1008 -0.0070
  886POPC   PO410622  10.804  14.344   4.760 -0.2661 -0.0674  0.0031
  886POPC   GL110623  11.156  14.490   4.886 -0.2278  0.0980  0.3812
  886POPC   GL210624  11.204  14.303   5.085 -0.2830  0.1132  0.2200
  886POPC   C1A10625  11.247  14.834   5.256  0.0940 -0.1080 -0.1650
  886POPC   D2A10626  11.499  15.161   5.537 -0.2026  0.1826 -0.0660
  886POPC   C3A10627  11.879  15.190   5.699  0.1602  0.1820  0.0848
  886POPC   C4A10628  12.247  15.177   5.995  0.0391 -0.3479 -0.3008
  886POPC   C1B10629  11.342  14.336   5.501  0.0696 -0.2103 -0.0904
  886POPC   C2B10630  11.504  14.046   5.840 -0.0895 -0.1368  0.0234
  886POPC   C3B10631  11.406  13.872   6.245  0.0711 -0.2286  0.0322
  886POPC   C4B10632  11.657  13.607   6.467 -0.1124 -0.1067 -0.0269
  887POPC   NC310633   6.850   8.199   5.835 -0.2040  0.0785  0.1953
  887POPC   PO410634   6.929   7.989   6.153 -0.0384 -0.3008  0.0080
  887POPC   GL110635   6.807   8.394   6.280 -0.0208  0.0386  0.1989
  887POPC   GL210636   6.991   8.482   6.463  0.1431  0.0014 -0.2013
  887POPC   C1A10637   6.623   8.833   6.305 -0.0241 -0.1822 -0.1677
  887POPC   D2A10638   6.422   9.259   6.230  0.1915  0.1906  0.1329
  887POPC   C3A10639   6.046   9.488   6.409  0.1173  0.0099 -0.0001
  887POPC   C4A10640   5.838   9.634   6.824  0.0515  0.1693 -0.1925
  887POPC   C1B10641   6.815   8.573   6.934 -0.1128 -0.2247 -0.0060
  887POPC   C2B10642   6.633   8.899   7.234  0.4105  0.0466  0.2065
  887POPC   C3B10643   6.595   9.351   7.378  0.2744  0.2404  0.0465
  887POPC   C4B10644   6.791   9.737   7.545 -0.1028 -0.0686  0.4060
  888POPC   NC310645  15.734   7.368   5.116  0.0268 -0.2072 -0.1916
  888POPC   PO410646  15.997   7.648   5.091 -0.2898  0.4277 -0.1965
  888POPC   GL110647  15.970   7.555   5.487 -0.0423  0.4703  0.1745
  888POPC   GL210648  16.233   7.434   5.633  0.0371  0.2092 -0.2564
  888POPC   C1A10649  16.125   7.883   5.822  0.1885 -0.1265 -0.0663
  888POPC   D2A10650  16.396   8.003   6.182  0.0503  0.1028 -0.1962
  888POPC   C3A10651  16.319   8.027   6.631 -0.0709 -0.2801 -0.2751
  888POPC   C4A10652  16.089   8.154   6.938  0.2046  0.0094 -0.2655
  888POPC   C1B10653  16.177   7.264   6.051  0.1471 -0.2273  0.3918
  888POPC   C2B10654  16.501   7.007   6.324 -0.0680 -0.1472 -0.1344
  888POPC   C3B10655  16.599   6.818   6.696  0.2502 -0.3052 -0.1661
  888POPC   C4B10656  16.531   6.446   6.973  0.1690  0.0192  0.2344
  889POPC   NC310657  13.657  13.748   4.334  0.0679  0.0408  0.0189
  889POPC   PO410658  13.807  13.394   4.348  0.0331 -0.0856 -0.2402
  889POPC   GL110659  13.490  13.495   4.632  0.0724  0.6347 -0.3387
  889POPC   GL210660  13.246  13.363   4.662  0.0571  0.0510 -0.1799
  889POPC   C1A10661  13.467  13.667   5.093 -0.2205 -0.0334  0.0253
  889POPC   D2A10662  13.718  13.437   5.417 -0.0625  0.0469 -0.1974
  889POPC   C3A10663  14.032  13.484   5.747  0.0474 -0.5078 -0.1237
  889POPC   C4A10664  14.389  13.421   6.087  0.0878  0.0618 -0.1331
  889POPC   C1B10665  12.998  13.503   4.966 -0.0440  0.0741 -0.0579
  889POPC   C2B10666  13.042  13.725   5.342 -0.1726 -0.1113 -0.0354
  889POPC   C3B10667  13.286  13.617   5.737 -0.1711 -0.1342  0.1034
  889POPC   C4B10668  13.602  13.765   6.017  0.0321  0.3374 -0.0774
  890POPC   NC310669   6.474   5.421   7.188  0.0917  0.2197 -0.1890
  890POPC   PO410670   6.845   5.561   7.116 -0.3275 -0.0297 -0.0986
  890POPC   GL110671   6.704   5.748   7.514  0.2027 -0.4942  0.1849
  890POPC   GL210672   6.791   5.480   7.621  0.4586  0.0310 -0.0015
  890POPC   C1A10673   6.246   5.917   7.506 -0.1958  0.1542  0.0773
  890POPC   D2A10674   6.026   6.254   7.533 -0.1038  0.3819 -0.2112
  890POPC   C3A10675   6.025   6.378   7.968  0.0846  0.1103  0.1000
  890POPC   C4A10676   6.154   6.711   8.257  0.0956  0.1859 -0.1657
  890POPC   C1B10677   6.497   5.715   7.928 -0.2090 -0.0552  0.3069
  890POPC   C2B10678   6.101   5.820   8.081 -0.1685 -0.2390 -0.0482
  890POPC   C3B10679   5.784   6.034   8.279  0.1722  0.0042  0.0461
  890POPC   C4B10680   5.425   6.214   8.528  0.2286  0.0437 -0.1911
  891POPC   NC310681   2.578   1.646   4.509 -0.1512  0.1186 -0.3353
  891POPC   PO410682   2.530   1.280   4.618 -0.0629 -0.0228  0.2772
  891POPC   GL110683   2.547   1.268   4.980  0.1272  0.0319  0.0304
  891POPC   GL210684   2.299   1.398   5.044  0.2529 -0.1148  0.3015
  891POPC   C1A10685   2.452   0.987   5.367 -0.2368  0.1387  0.0398
  891POPC   D2A10686   2.490   1.055   5.775 -0.2422  0.0143  0.1978
  891POPC   C3A10687   2.485   0.833   6.197  0.0936 -0.0252  0.1738
  891POPC   C4A10688   2.251   0.812   6.638 -0.1923  0.1067  0.1547
  891POPC   C1B10689   2.134   1.335   5.510  0.2938  0.1013  0.2722
  891POPC   C2B10690   2.075   1.251   5.981  0.3794  0.0057  0.0801
  891POPC   C3B10691   2.324   1.240   6.370 -0.3286 -0.0563 -0.4267
  891POPC   C4B10692   2.422   1.695   6.579  0.1221  0.1682  0.1552
  892POPC   NC310693  13.083   8.035   6.520 -0.0381  0.0610  0.0151
  892POPC   PO410694  13.281   7.956   6.157  0.2710 -0.1998  0.2967
  892POPC   GL110695  13.608   8.045   6.362 -0.3265 -0.2204 -0.2316
  892POPC   GL210696  13.850   8.231   6.312 -0.0187  0.2586 -0.1789
  892POPC   C1A10697  13.773   7.946   6.809  0.0830  0.1859 -0.0345
  892POPC   D2A10698  13.861   8.158   7.164  0.2172 -0.2988  0.0463
  892POPC   C3A10699  14.095   8.263   7.571  0.2817 -0.0900  0.1527
  892POPC   C4A10700  14.141   8.374   8.048  0.2291 -0.0287  0.1521
  892POPC   C1B10701  13.915   8.446   6.688  0.1416  0.2885 -0.1927
  892POPC   C2B10702  13.998   8.740   7.041 -0.2775  0.0069  0.0397
  892POPC   C3B10703  14.138   8.980   7.365  0.0186  0.0412 -0.0922
  892POPC   C4B10704  14.059   9.395   7.569  0.1450 -0.1208  0.1007
  893POPC   NC310705   6.602  10.834   4.923 -0.0500  0.0407  0.3286
  893POPC   PO410706   6.566  11.217   4.798  0.0717 -0.3127  0.1310
  893POPC   GL110707   6.434  11.281   5.153  0.3974  0.3582  0.2166
  893POPC   GL210708   6.176  11.168   5.255 -0.1494  0.1303  0.1325
  893POPC   C1A10709   6.524  10.995   5.531  0.1919 -0.3184  0.1743
  893POPC   D2A10710   6.529  10.632   5.811  0.2230 -0.1767 -0.3093
  893POPC   C3A10711   6.362  10.730   6.216  0.0319  0.1070 -0.0644
  893POPC   C4A10712   6.232  11.091   6.466 -0.0337 -0.1445 -0.0790
  893POPC   C1B10713   5.964  11.344   5.603  0.0584 -0.3877 -0.2951
  893POPC   C2B10714   5.860  11.312   6.057  0.2013 -0.1137 -0.0660
  893POPC   C3B10715   5.757  10.943   6.304  0.3768  0.2784  0.0887
  893POPC   C4B10716   5.425  10.604   6.445  0.0508 -0.2291  0.2359
  894POPC   NC310717   5.057   2.773   5.594 -0.0730 -0.0472 -0.3541
  894POPC   PO410718   4.704   2.771   5.408  0.1610 -0.0952  0.0383
  894POPC   GL110719   4.462   2.724   5.654  0.1087 -0.0745  0.1011
  894POPC   GL210720   4.625   2.885   5.887  0.0002  0.0543 -0.0319
  894POPC   C1A10721   4.412   2.418   5.997 -0.1250 -0.1137  0.3073
  894POPC   D2A10722   4.445   1.972   6.109  0.2399 -0.2866  0.1011
  894POPC   C3A10723   4.249   1.711   6.426  0.1364  0.1159 -0.2300
  894POPC   C4A10724   3.966   1.726   6.799  0.3744  0.1462 -0.1026
  894POPC   C1B10725   4.823   3.050   6.269 -0.1952  0.1449  0.2382
  894POPC   C2B10726   4.768   3.033   6.714  0.1669 -0.0407 -0.1234
  894POPC   C3B10727   4.587   2.909   7.173 -0.0492  0.0930 -0.1785
  894POPC   C4B10728   4.419   2.735   7.510  0.2620  0.2144 -0.1237
  895POPC   NC310729   0.899   2.275   4.403 -0.2333 -0.0282  0.2730
  895POPC   PO410730   1.065   2.647   4.433 -0.2144  0.1187  0.1980
  895POPC   GL110731   1.063   2.668   4.861  0.2746  0.2047 -0.1594
  895POPC   GL210732   1.218   2.466   4.846 -0.2893  0.3156  0.1397
  895POPC   C1A10733   1.011   2.693   5.323 -0.0078 -0.1759 -0.1673
  895POPC   D2A10734   0.968   2.550   5.787 -0.3514  0.1717  0.0928
  895POPC   C3A10735   0.888   2.733   6.187 -0.0516 -0.3139 -0.3747
  895POPC   C4A10736   1.038   2.667   6.623  0.1089  0.0503  0.1724
  895POPC   C1B10737   1.297   2.259   5.269  0.1424  0.0958 -0.1595
  895POPC   C2B10738   1.311   2.186   5.754 -0.1215 -0.3116  0.2873
  895POPC   C3B10739   1.016   2.113   6.072  0.0527  0.0411  0.0362
  895POPC   C4B10740   0.809   2.276   6.426  0.0721  0.0134  0.0945
  896POPC   NC310741   9.705   4.529  11.968 -0.0250 -0.2763  0.0801
  896POPC   PO410742   9.340   4.430  12.028 -0.1274 -0.1715  0.1537
  896POPC   GL110743   9.343   4.118  12.184 -0.0693 -0.2655 -0.2214
  896POPC   GL210744   9.410   3.932  12.034  0.2083 -0.0609  0.2479
  896POPC   C1A10745   9.450   3.787  12.511  0.2296 -0.0767  0.2478
  896POPC   D2A10746   9.740   3.471  12.678  0.0271 -0.0276  0.2440
  896POPC   C3A10747   9.562   3.248  13.003  0.0617 -0.2690  0.1555
  896POPC   C4A10748   9.138   3.030  13.109 -0.1954  0.1253 -0.0908
  896POPC   C1B10749   9.395   3.736  11.656  0.0024  0.0455 -0.1581
  896POPC   C2B10750   9.444   3.542  11.232 -0.1609 -0.0245  0.3271
  896POPC   C3B10751   9.206   3.683  10.776  0.2275  0.3768  0.0260
  896POPC   C4B10752   9.074   3.747  10.364  0.1288 -0.2146 -0.1092
  897POPC   NC310753   1.269   2.346  15.979  0.2420  0.1359 -0.0067
  897POPC   PO410754   0.935   2.335  15.720 -0.1126 -0.1318 -0.2592
  897POPC   GL110755   0.731   2.522  15.919 -0.4287 -0.0311 -0.0039
  897POPC   GL210756   0.848   2.512  16.173 -0.2468  0.0025  0.1490
  897POPC   C1A10757   0.485   2.791  16.270  0.1906  0.0014 -0.2981
  897POPC   D2A10758   0.143   2.954  16.583  0.2374  0.1411  0.3110
  897POPC   C3A10759   0.300   3.276  16.881 -0.2887  0.0509 -0.0234
  897POPC   C4A10760   0.226   3.385  17.352 -0.2350 -0.0087  0.1956
  897POPC   C1B10761   1.050   2.314  16.517 -0.3274  0.1444  0.1046
  897POPC   C2B10762   1.041   2.331  16.934 -0.0294 -0.1014 -0.0741
  897POPC   C3B10763   1.315   2.471  17.246 -0.0707  0.0125 -0.2690
  897POPC   C4B10764   1.453   2.731  17.658 -0.1516  0.0040 -0.1847
  898POPC   NC310765   8.567  16.306  14.603  0.1543 -0.2331  0.1111
  898POPC   PO410766   8.730  16.519  14.913 -0.0662  0.1518 -0.1028
  898POPC   GL110767   9.071  16.581  15.091 -0.1303  0.1452  0.0591
  898POPC   GL210768   9.081  16.884  15.031  0.0075 -0.3762 -0.1181
  898POPC   C1A10769   9.293  16.731  15.539 -0.1737  0.1236 -0.0177
  898POPC   D2A10770   9.468  16.999  15.880 -0.0740  0.0515  0.0120
  898POPC   C3A10771   9.369  16.990  16.330  0.0201 -0.0071 -0.3032
  898POPC   C4A10772   9.410  16.966  16.798 -0.0624 -0.2009 -0.1542
  898POPC   C1B10773   9.212  17.186  15.435 -0.1067 -0.2236  0.2048
  898POPC   C2B10774   9.204  17.504  15.749  0.0352 -0.1103  0.1191
  898POPC   C3B10775   9.173  17.913  15.977  0.2165 -0.0774  0.0342
  898POPC   C4B10776   8.824  18.125  16.250  0.1424  0.3585 -0.0300
  899POPC   NC310777   3.750   2.133  15.033 -0.0086 -0.0733 -0.1319
  899POPC   PO410778   3.705   2.494  14.959 -0.0571  0.2414  0.2620
  899POPC   GL110779   3.844   2.798  15.174  0.3236  0.2786 -0.0806
  899POPC   GL210780   3.672   2.705  15.403  0.1455 -0.3612 -0.1204
  899POPC   C1A10781   4.159   2.823  15.523 -0.0150  0.1418  0.0146
  899POPC   D2A10782   4.346   2.974  15.901 -0.1516  0.0957 -0.0687
  899POPC   C3A10783   4.456   3.280  16.238  0.1413 -0.0071 -0.1189
  899POPC   C4A10784   4.748   3.406  16.571 -0.0296  0.1770 -0.0331
  899POPC   C1B10785   3.549   2.701  15.832 -0.0557 -0.0837  0.0687
  899POPC   C2B10786   3.868   2.900  16.152 -0.0347 -0.4272 -0.3726
  899POPC   C3B10787   3.846   3.247  16.488 -0.1245  0.0943  0.2133
  899POPC   C4B10788   3.763   3.394  16.859 -0.3745 -0.0390 -0.1037
  900POPC   NC310789   0.922  14.652  16.441  0.0070  0.0461  0.1787
  900POPC   PO410790   1.297  14.780  16.514  0.1082 -0.4259  0.2035
  900POPC   GL110791   1.121  15.127  16.695 -0.0575  0.4580  0.2639
  900POPC   GL210792   1.055  15.008  16.984  0.0758  0.3242  0.3228
  900POPC   C1A10793   1.401  15.391  17.000  0.3610 -0.0117 -0.2414
  900POPC   D2A10794   1.542  15.344  17.443  0.1378  0.2057 -0.0811
  900POPC   C3A10795   1.250  15.426  17.804  0.1156  0.3895 -0.2287
  900POPC   C4A10796   1.064  15.736  18.132 -0.0036  0.0513  0.0878
  900POPC   C1B10797   0.844  14.863  17.388  0.0855  0.2781  0.0269
  900POPC   C2B10798   0.888  15.006  17.826 -0.0973  0.2035  0.1429
  900POPC   C3B10799   0.834  15.247  18.206  0.0934  0.0507 -0.3868
  900POPC   C4B10800   0.725  15.521  18.543 -0.2939 -0.0447  0.0957
  901POPC   NC310801  14.336  12.572  16.504 -0.3805  0.0487 -0.0827
  901POPC   PO410802  14.729  12.504  16.380  0.0814  0.0342  0.0294
  901POPC   GL110803  14.757  12.661  16.684 -0.2789 -0.4132  0.2907
  901POPC   GL210804  14.802  12.890  16.857 -0.3167  0.4903  0.0745
  901POPC   C1A10805  14.612  12.424  17.059 -0.0840  0.1378 -0.2566
  901POPC   D2A10806  14.406  12.585  17.414  0.2205 -0.1262  0.1866
  901POPC   C3A10807  14.611  12.592  17.820 -0.2464 -0.1794  0.0420
  901POPC   C4A10808  14.601  12.852  18.157  0.1668 -0.0916 -0.0136
  901POPC   C1B10809  14.876  12.924  17.349  0.1538 -0.0312 -0.4036
  901POPC   C2B10810  14.806  13.125  17.775 -0.1911 -0.0328  0.2040
  901POPC   C3B10811  14.591  13.410  18.056  0.1612 -0.0367 -0.1438
  901POPC   C4B10812  14.336  13.667  18.359 -0.1349 -0.1087  0.0201
  902POPC   NC310813   2.364   1.627  15.512 -0.0231  0.0469 -0.0762
  902POPC   PO410814   2.336   1.277  15.737 -0.1950  0.2079  0.0689
  902POPC   GL110815   2.622   1.354  15.994  0.4119  0.2833  0.3422
  902POPC   GL210816   2.686   1.163  16.157 -0.3974 -0.1277  0.1652
  902POPC   C1A10817   2.502   1.616  16.357 -0.1358 -0.0279  0.2111
  902POPC   D2A10818   2.551   1.978  16.617 -0.0769 -0.0167 -0.0197
  902POPC   C3A10819   2.806   2.003  16.976 -0.0688  0.1688 -0.0638
  902POPC   C4A10820   2.952   2.013  17.448  0.0061 -0.2702  0.2820
  902POPC   C1B10821   2.961   0.957  16.490  0.1321  0.1982  0.1419
  902POPC   C2B10822   2.968   0.978  16.985  0.1148  0.1131  0.1021
  902POPC   C3B10823   3.168   1.157  17.321 -0.3121 -0.2055  0.2968
  902POPC   C4B10824   3.650   1.212  17.461  0.0207  0.0592 -0.0129
  903POPC   NC310825   8.274  10.634  10.245 -0.0807 -0.1501 -0.0193
  903POPC   PO410826   8.041  10.445  10.501 -0.1242 -0.0468 -0.2854
  903POPC   GL110827   7.945  10.065  10.279  0.1909  0.0841 -0.2642
  903POPC   GL210828   7.791   9.937  10.022  0.0923 -0.3021  0.1579
  903POPC   C1A10829   8.256  10.095   9.930  0.2860 -0.1269  0.0787
  903POPC   D2A10830   8.680   9.972   9.652  0.1195 -0.1371 -0.1880
  903POPC   C3A10831   8.764   9.532   9.460  0.1284 -0.2144  0.0094
  903POPC   C4A10832   8.559   9.111   9.513  0.1136  0.1300 -0.3284
  903POPC   C1B10833   7.741  10.007   9.602  0.3589 -0.0573 -0.1602
  903POPC   C2B10834   7.426   9.868   9.246  0.0485  0.0484 -0.3240
  903POPC   C3B10835   7.313   9.558   8.925 -0.2818 -0.0916 -0.0040
  903POPC   C4B10836   7.428   9.321   8.554 -0.1177 -0.3452 -0.2149
  904POPC   NC310837   3.474   1.342  15.007  0.1359 -0.1576  0.0729
  904POPC   PO410838   3.670   1.394  15.340  0.1506  0.4001  0.1968
  904POPC   GL110839   3.733   1.337  15.700  0.2068  0.0648 -0.0278
  904POPC   GL210840   3.769   1.693  15.739  0.2665 -0.1965 -0.0319
  904POPC   C1A10841   3.505   1.336  16.066 -0.2984  0.1701  0.1120
  904POPC   D2A10842   3.431   1.064  16.446  0.1643 -0.2106 -0.0337
  904POPC   C3A10843   3.587   1.049  16.863  0.0638  0.0717 -0.3172
  904POPC   C4A10844   3.898   0.849  17.103  0.0524 -0.0837  0.0530
  904POPC   C1B10845   3.878   1.632  16.177  0.0005 -0.0146 -0.3982
  904POPC   C2B10846   3.688   1.503  16.586 -0.0930  0.0265  0.1241
  904POPC   C3B10847   3.676   1.481  17.064  0.1775  0.4003 -0.3115
  904POPC   C4B10848   3.719   1.804  17.387 -0.0451  0.0869  0.0673
  905POPC   NC310849  12.390   1.106  11.163 -0.0282 -0.3196  0.2528
  905POPC   PO410850  12.509   1.508  11.262  0.1384  0.2113  0.0393
  905POPC   GL110851  12.556   1.526  10.875 -0.4855  0.1576 -0.0853
  905POPC   GL210852  12.653   1.826  10.806 -0.3754  0.1978 -0.0562
  905POPC   C1A10853  12.295   1.452  10.488  0.0844 -0.1369 -0.2984
  905POPC   D2A10854  12.125   1.487  10.076  0.2401 -0.3219  0.2122
  905POPC   C3A10855  11.795   1.802  10.002 -0.0229 -0.1677  0.2789
  905POPC   C4A10856  11.535   2.191   9.810 -0.2877 -0.2780 -0.0789
  905POPC   C1B10857  12.292   2.122  10.800  0.1148 -0.0313 -0.0697
  905POPC   C2B10858  12.125   2.540  10.556  0.3575 -0.0743  0.1628
  905POPC   C3B10859  12.078   2.964  10.387  0.1818 -0.0526  0.0734
  905POPC   C4B10860  12.036   3.176  10.014  0.3360  0.0269  0.3470
  906POPC   NC310861   0.943  32.784  16.549  0.1685 -0.0715  0.0092
  906POPC   PO410862   1.194  32.945  16.320 -0.4324 -0.0336  0.0589
  906POPC   GL110863   1.354  32.917  16.623 -0.1761  0.2106  0.0128
  906POPC   GL210864   1.280  33.045  16.832 -0.0563 -0.0316 -0.3181
  906POPC   C1A10865   1.691  32.617  16.835 -0.0432 -0.1194  0.0798
  906POPC   D2A10866   1.636  32.508  17.279  0.1127  0.1177 -0.0218
  906POPC   C3A10867   1.733  32.134  17.609  0.0590  0.2320  0.0716
  906POPC   C4A10868   2.002  31.808  17.799  0.0162  0.2032 -0.0347
  906POPC   C1B10869   1.521  33.045  17.241  0.0628  0.0014 -0.2390
  906POPC   C2B10870   1.540  33.215  17.666 -0.2625  0.2267  0.0939
  906POPC   C3B10871   1.570  33.217  18.111 -0.1399 -0.1035 -0.1184
  906POPC   C4B10872   1.650  32.814  18.363 -0.1144 -0.1600  0.2714
  907POPC   NC310873  10.691  11.993  15.928  0.1466  0.1735 -0.0482
  907POPC   PO410874  11.018  11.824  16.114 -0.1404 -0.3696 -0.0093
  907POPC   GL110875  10.957  11.665  16.387  0.0762  0.2914 -0.3015
  907POPC   GL210876  11.247  11.639  16.523  0.0396  0.0225  0.0651
  907POPC   C1A10877  10.651  11.709  16.752  0.0383 -0.0160  0.2179
  907POPC   D2A10878  10.277  11.582  17.080 -0.1236 -0.0145  0.3458
  907POPC   C3A10879   9.936  11.826  17.320 -0.0305  0.1186 -0.1006
  907POPC   C4A10880   9.476  11.798  17.421  0.2214  0.1998  0.1371
  907POPC   C1B10881  11.022  11.407  16.802  0.1654 -0.1897 -0.0866
  907POPC   C2B10882  10.757  11.398  17.199  0.0429  0.3801  0.1866
  907POPC   C3B10883  10.656  11.236  17.655 -0.3519 -0.2015 -0.1994
  907POPC   C4B10884  10.763  10.864  17.859 -0.2387 -0.0918 -0.0673
  908POPC   NC310885  14.472   8.585  15.823 -0.0328 -0.0865 -0.1088
  908POPC   PO410886  14.193   8.849  15.678  0.1194 -0.0678  0.2107
  908POPC   GL110887  13.988   8.730  16.028 -0.3457 -0.0975 -0.1098
  908POPC   GL210888  13.859   8.476  15.843 -0.3260 -0.0085  0.0774
  908POPC   C1A10889  14.030   8.896  16.487  0.0150 -0.1726  0.2377
  908POPC   D2A10890  13.964   8.794  16.878 -0.1644  0.0836 -0.2189
  908POPC   C3A10891  13.786   9.013  17.237  0.0315 -0.5750  0.2597
  908POPC   C4A10892  13.727   9.406  17.473 -0.0897 -0.0823  0.0021
  908POPC   C1B10893  13.467   8.474  16.092  0.0821 -0.0244  0.2320
  908POPC   C2B10894  13.314   8.223  16.463  0.1261  0.0971  0.1320
  908POPC   C3B10895  13.135   8.129  16.880  0.1537  0.1634 -0.0647
  908POPC   C4B10896  13.004   7.695  17.118 -0.2356 -0.0170  0.1363
  909POPC   NC310897   5.887  13.737  16.399  0.2096  0.3579  0.1857
  909POPC   PO410898   6.245  13.748  16.316 -0.0453  0.0451 -0.0211
  909POPC   GL110899   6.228  13.640  16.782  0.2286  0.0018  0.0082
  909POPC   GL210900   6.055  13.834  16.840 -0.1049  0.1135 -0.0191
  909POPC   C1A10901   6.502  13.721  17.116 -0.1170  0.3159 -0.0824
  909POPC   D2A10902   6.666  13.724  17.604  0.0053 -0.0280  0.0312
  909POPC   C3A10903   6.454  13.883  17.938 -0.0225 -0.3486  0.2564
  909POPC   C4A10904   6.305  14.270  18.196  0.2158 -0.0078  0.0403
  909POPC   C1B10905   5.879  14.036  17.169 -0.4741  0.0470  0.1805
  909POPC   C2B10906   5.786  14.050  17.597 -0.5452 -0.1505 -0.0571
  909POPC   C3B10907   5.914  13.995  18.101  0.0635 -0.0246  0.0725
  909POPC   C4B10908   5.747  13.861  18.499 -0.1746  0.4269 -0.0384
  910POPC   NC310909  13.098  11.501  16.028 -0.0620 -0.2273  0.0955
  910POPC   PO410910  13.130  11.867  16.220 -0.2901  0.2034 -0.3819
  910POPC   GL110911  13.142  11.801  16.576 -0.1241 -0.5062 -0.3231
  910POPC   GL210912  13.317  12.001  16.811 -0.1752  0.0007 -0.0368
  910POPC   C1A10913  13.008  11.621  16.981  0.0742 -0.1268  0.1664
  910POPC   D2A10914  13.075  11.366  17.363  0.0146  0.2417 -0.1038
  910POPC   C3A10915  12.980  11.353  17.831  0.0742 -0.2258  0.2298
  910POPC   C4A10916  13.080  11.013  18.160 -0.1381  0.1492 -0.1402
  910POPC   C1B10917  13.299  12.082  17.243  0.2775 -0.1919  0.1823
  910POPC   C2B10918  13.176  12.348  17.565  0.2126  0.0554 -0.1535
  910POPC   C3B10919  13.102  12.346  18.012 -0.2690 -0.0238 -0.2679
  910POPC   C4B10920  13.005  12.201  18.427  0.0960  0.1110  0.0917
  911POPC   NC310921  10.324  11.050  16.025 -0.1328  0.0216  0.1466
  911POPC   PO410922  10.351  10.912  15.677 -0.0166  0.3154  0.1525
  911POPC   GL110923  10.295  10.599  15.762  0.1628 -0.3437  0.1043
  911POPC   GL210924  10.149  10.444  15.717  0.0484  0.0851  0.2807
  911POPC   C1A10925  10.291  10.364  16.158  0.0828 -0.3582  0.0114
  911POPC   D2A10926  10.585  10.184  16.477  0.4039  0.2480  0.2908
  911POPC   C3A10927  10.583   9.833  16.776 -0.1058 -0.0982 -0.0521
  911POPC   C4A10928  10.789   9.424  16.973 -0.0789  0.0023 -0.0365
  911POPC   C1B10929   9.785  10.225  15.799  0.1413  0.1323 -0.1559
  911POPC   C2B10930   9.721   9.801  15.629  0.1354 -0.0968 -0.4127
  911POPC   C3B10931   9.775   9.347  15.638  0.2639  0.1106 -0.0349
  911POPC   C4B10932   9.906   8.921  15.463  0.0506  0.0261  0.1996
  912POPC   NC310933  14.836   6.322  14.828  0.1761  0.0180  0.0349
  912POPC   PO410934  14.480   6.418  14.758 -0.4121 -0.2563  0.4827
  912POPC   GL110935  14.375   6.229  15.041  0.2181  0.3763  0.0488
  912POPC   GL210936  14.110   6.124  14.937  0.1371 -0.1458  0.0387
  912POPC   C1A10937  14.136   6.194  15.438  0.0679  0.0562  0.0873
  912POPC   D2A10938  13.847   6.015  15.738  0.5398 -0.0959 -0.0067
  912POPC   C3A10939  13.462   6.149  16.019 -0.0561  0.1772  0.0556
  912POPC   C4A10940  13.368   6.397  16.438  0.1661  0.0768 -0.1878
  912POPC   C1B10941  13.701   6.248  14.738  0.0683  0.0538 -0.0192
  912POPC   C2B10942  13.248   6.182  14.827  0.1382 -0.0180 -0.1235
  912POPC   C3B10943  12.861   6.282  14.945  0.1114  0.1168 -0.3681
  912POPC   C4B10944  12.441   6.381  15.106 -0.0245  0.0234 -0.0519
  913POPC   NC310945   0.872  15.955  16.265 -0.2028  0.0096 -0.0675
  913POPC   PO410946   0.592  16.170  16.164  0.0605 -0.1894 -0.0493
  913POPC   GL110947   0.638  16.381  16.470  0.0491  0.0147 -0.2758
  913POPC   GL210948   0.406  16.363  16.694  0.1684  0.1496 -0.1272
  913POPC   C1A10949   0.872  16.498  16.866 -0.2853  0.3499 -0.0850
  913POPC   D2A10950   0.902  16.229  17.295  0.0981  0.0329 -0.2766
  913POPC   C3A10951   0.904  16.493  17.689  0.0381 -0.1878 -0.0390
  913POPC   C4A10952   1.099  16.718  18.062  0.0612  0.0117 -0.1422
  913POPC   C1B10953   0.420  16.439  17.142 -0.2442 -0.1760  0.0830
  913POPC   C2B10954   0.398  16.293  17.550 -0.3338 -0.3929 -0.0347
  913POPC   C3B10955   0.213  15.953  17.778  0.1826  0.3004  0.0648
  913POPC   C4B10956  -0.158  15.946  17.987 -0.3499  0.1093  0.1244
  914POPC   NC310957  11.102   0.468  10.944  0.0424  0.3009  0.2794
  914POPC   PO410958  10.716   0.392  10.876  0.0351 -0.1653  0.2830
  914POPC   GL110959  10.641   0.784  10.662 -0.0746 -0.0963 -0.1318
  914POPC   GL210960  10.854   0.940  10.763 -0.2083  0.2553  0.0560
  914POPC   C1A10961  10.400   1.164  10.684 -0.0904 -0.1823 -0.3364
  914POPC   D2A10962  10.113   1.475  10.632  0.0597  0.0707  0.0704
  914POPC   C3A10963  10.306   1.649  10.240 -0.1174  0.1684  0.0410
  914POPC   C4A10964  10.426   1.487   9.815 -0.1710 -0.0726  0.0988
  914POPC   C1B10965  10.925   1.385  10.729  0.3646  0.1368 -0.0659
  914POPC   C2B10966  10.795   1.773  10.540 -0.1837 -0.0033  0.2769
  914POPC   C3B10967  10.662   2.122  10.330 -0.1912 -0.2289  0.2598
  914POPC   C4B10968  10.465   2.206   9.903  0.0738  0.1279 -0.2023
  915POPC   NC310969  16.103  12.578  16.555 -0.0328  0.0381 -0.2898
  915POPC   PO410970  16.229  12.968  16.700  0.1761  0.0016  0.3866
  915POPC   GL110971  16.465  12.748  16.990  0.1003 -0.0222 -0.0036
  915POPC   GL210972  16.141  12.631  17.074  0.1342  0.2302  0.1133
  915POPC   C1A10973  16.504  12.440  17.313 -0.0339  0.1421 -0.1643
  915POPC   D2A10974  16.548  12.282  17.742  0.0875  0.2921  0.1306
  915POPC   C3A10975  16.390  12.076  18.190  0.1394 -0.0745 -0.0996
  915POPC   C4A10976  16.247  11.816  18.500  0.2870 -0.0629  0.1520
  915POPC   C1B10977  16.061  12.364  17.460  0.2277 -0.1815  0.1391
  915POPC   C2B10978  16.061  12.305  17.923 -0.0835  0.1413  0.1708
  915POPC   C3B10979  15.904  12.213  18.381  0.1389  0.1380  0.1422
  915POPC   C4B10980  15.841  12.453  18.784 -0.2633  0.2284 -0.2126
  916POPC   NC310981   9.286  15.120  15.643  0.3298  0.0897  0.2470
  916POPC   PO410982   9.620  14.973  15.734 -0.0670 -0.0752  0.0522
  916POPC   GL110983   9.524  15.317  16.013 -0.2980  0.2271 -0.1433
  916POPC   GL210984   9.729  15.301  16.258 -0.0040 -0.2571 -0.0197
  916POPC   C1A10985   9.681  15.715  16.036 -0.1902  0.0223 -0.1463
  916POPC   D2A10986   9.757  16.130  16.152  0.0837  0.3344 -0.0430
  916POPC   C3A10987   9.614  16.228  16.567  0.1509 -0.2401 -0.1508
  916POPC   C4A10988   9.257  16.258  16.877  0.2247 -0.2201 -0.1598
  916POPC   C1B10989   9.874  15.452  16.669  0.1355 -0.0441  0.1977
  916POPC   C2B10990  10.184  15.623  16.954  0.0235 -0.1205 -0.1176
  916POPC   C3B10991  10.380  15.994  17.120  0.0802 -0.1990 -0.1317
  916POPC   C4B10992  10.571  16.311  17.391 -0.2312 -0.1148  0.0092
  917POPC   NC310993  14.710   5.166  14.874 -0.0845 -0.0671 -0.0397
  917POPC   PO410994  14.906   5.506  14.940  0.0803  0.0930 -0.3548
  917POPC   GL110995  14.627   5.401  15.313 -0.3752 -0.3046  0.0771
  917POPC   GL210996  14.802   5.487  15.538  0.0598 -0.0823  0.0229
  917POPC   C1A10997  14.283   5.472  15.557  0.3684  0.1109  0.0461
  917POPC   D2A10998  13.878   5.530  15.851 -0.0452  0.0976 -0.0671
  917POPC   C3A10999  13.839   5.790  16.228  0.1265  0.1463 -0.1267
  917POPC   C4A11000  13.514   5.876  16.530 -0.0776  0.2342  0.0539
  917POPC   C1B11001  14.599   5.457  15.945 -0.2150  0.1297  0.2254
  917POPC   C2B11002  14.226   5.198  16.161 -0.1400  0.1396  0.2159
  917POPC   C3B11003  13.845   5.228  16.432 -0.0118  0.2540  0.1334
  917POPC   C4B11004  13.674   5.390  16.814  0.2417  0.4388  0.0143
  918POPC   NC311005  13.976   5.845  10.996  0.0513  0.0088  0.0385
  918POPC   PO411006  14.295   5.696  11.175  0.0821  0.1715 -0.1539
  918POPC   GL111007  14.199   5.420  10.864 -0.2751 -0.4160 -0.0011
  918POPC   GL211008  14.293   5.450  10.704  0.0242 -0.0211  0.1745
  918POPC   C1A11009  13.704   5.481  10.903 -0.0849 -0.1387  0.1470
  918POPC   D2A11010  13.282   5.429  10.923 -0.0630 -0.2469  0.1048
  918POPC   C3A11011  13.117   5.708  11.234 -0.0752  0.0477 -0.2455
  918POPC   C4A11012  12.851   5.989  11.559 -0.3935 -0.0886 -0.1825
  918POPC   C1B11013  13.957   5.623  10.429  0.0798  0.1866 -0.1265
  918POPC   C2B11014  13.891   5.701  10.036  0.0504 -0.0867  0.3618
  918POPC   C3B11015  13.537   5.819   9.709 -0.0061 -0.0910 -0.0223
  918POPC   C4B11016  13.216   6.085   9.515  0.0219 -0.2140  0.1531
  919POPC   NC311017  15.684   0.056  15.879  0.1332 -0.2019 -0.0147
  919POPC   PO411018  15.569   0.441  15.993 -0.1009  0.1057  0.2389
  919POPC   GL111019  15.458   0.468  16.350  0.1195  0.0076  0.3884
  919POPC   GL211020  15.550   0.625  16.484 -0.2805 -0.1274 -0.0195
  919POPC   C1A11021  15.420   0.216  16.795  0.1275 -0.0757 -0.1351
  919POPC   D2A11022  15.414   0.230  17.226 -0.1432  0.2629 -0.0897
  919POPC   C3A11023  15.148   0.200  17.581 -0.0426 -0.0912  0.1701
  919POPC   C4A11024  14.981   0.452  17.962 -0.0651  0.0032  0.4016
  919POPC   C1B11025  15.750   0.586  16.872  0.2116 -0.0488  0.2217
  919POPC   C2B11026  15.826   0.394  17.305 -0.2346  0.0986  0.1689
  919POPC   C3B11027  15.872   0.462  17.739 -0.0411 -0.1702 -0.0217
  919POPC   C4B11028  15.650   0.746  18.041  0.1589  0.2933  0.3121
  920POPC   NC311029   4.433  11.234  16.126  0.1849 -0.2509  0.2297
  920POPC   PO411030   4.127  11.205  16.360 -0.1027 -0.1481  0.0127
  920POPC   GL111031   4.023  11.142  16.716  0.2630  0.1305  0.2951
  920POPC   GL211032   4.094  11.402  16.865 -0.1585 -0.4538 -0.1791
  920POPC   C1A11033   4.043  10.850  17.045 -0.0495 -0.0643  0.3338
  920POPC   D2A11034   4.037  11.106  17.406 -0.2085 -0.1107  0.0159
  920POPC   C3A11035   4.103  11.405  17.720  0.0915 -0.2773 -0.0565
  920POPC   C4A11036   4.259  11.314  18.144 -0.2948  0.1007 -0.0293
  920POPC   C1B11037   4.102  11.659  17.249  0.0065 -0.0216 -0.1211
  920POPC   C2B11038   3.989  11.888  17.684  0.2891  0.2832  0.1279
  920POPC   C3B11039   3.929  12.095  18.095 -0.0149 -0.0897  0.1493
  920POPC   C4B11040   3.777  12.375  18.396 -0.0342 -0.0893 -0.1825
  921POPC   NC311041   2.762   3.558  14.948 -0.2996  0.1873  0.0293
  921POPC   PO411042   3.129   3.363  15.017 -0.0322 -0.1789  0.1185
  921POPC   GL111043   2.992   3.664  15.297  0.1414 -0.4693 -0.0336
  921POPC   GL211044   3.233   3.765  15.358  0.0713  0.0864  0.0592
  921POPC   C1A11045   2.932   3.713  15.724  0.2919  0.3183  0.0783
  921POPC   D2A11046   3.163   3.515  16.072 -0.0294  0.0022 -0.0704
  921POPC   C3A11047   3.206   3.649  16.496  0.2535  0.3036  0.1616
  921POPC   C4A11048   3.255   3.723  16.939  0.0741 -0.0251 -0.2469
  921POPC   C1B11049   3.377   3.920  15.767 -0.1623  0.3127  0.3960
  921POPC   C2B11050   3.480   4.099  16.205  0.1509  0.1552  0.0830
  921POPC   C3B11051   3.203   4.123  16.601  0.2189  0.0112 -0.0457
  921POPC   C4B11052   3.238   4.336  16.990 -0.1976 -0.2215 -0.2007
  922POPC   NC311053  11.795  12.555  16.397 -0.2180  0.1609 -0.2116
  922POPC   PO411054  11.929  12.670  16.757  0.1806  0.1707 -0.2795
  922POPC   GL111055  12.118  12.734  17.129  0.3106  0.1881  0.0324
  922POPC   GL211056  12.064  12.482  17.334  0.2274  0.2275 -0.1982
  922POPC   C1A11057  12.404  12.952  17.396  0.1903  0.1675  0.2633
  922POPC   D2A11058  12.435  13.262  17.686 -0.2708 -0.2528 -0.0906
  922POPC   C3A11059  12.527  13.031  18.073 -0.0858 -0.2808  0.0113
  922POPC   C4A11060  12.828  13.056  18.416  0.2026  0.1417  0.2105
  922POPC   C1B11061  11.740  12.115  17.549 -0.1531 -0.2118  0.4228
  922POPC   C2B11062  11.558  11.768  17.712 -0.2070  0.0559  0.0426
  922POPC   C3B11063  11.181  11.518  17.867  0.0031  0.0921 -0.2010
  922POPC   C4B11064  10.826  11.383  18.148 -0.0194 -0.0608  0.1684
  923POPC   NC311065   9.301  11.402  12.607  0.2690 -0.1530  0.0801
  923POPC   PO411066   9.466  11.030  12.626  0.1069  0.3879  0.0049
  923POPC   GL111067   9.271  10.634  12.643  0.4193 -0.0556 -0.0212
  923POPC   GL211068   9.011  10.662  12.564  0.2030  0.0545 -0.1431
  923POPC   C1A11069   9.200  10.192  12.715  0.0408  0.0110  0.0492
  923POPC   D2A11070   9.174   9.747  12.524 -0.1762 -0.3609  0.0409
  923POPC   C3A11071   9.342   9.464  12.881  0.4368  0.0988  0.1956
  923POPC   C4A11072   9.342   9.430  13.344  0.2672 -0.2379  0.1065
  923POPC   C1B11073   9.018  10.378  12.256 -0.0851  0.0543  0.1271
  923POPC   C2B11074   9.116   9.955  12.092 -0.0523  0.0875  0.1134
  923POPC   C3B11075   9.060   9.496  12.115 -0.2078 -0.1420 -0.1163
  923POPC   C4B11076   9.170   9.043  12.096  0.1263  0.1952 -0.3596
  924POPC   NC311077   1.699   9.634  16.570  0.0673  0.0217  0.1191
  924POPC   PO411078   1.355   9.704  16.311 -0.3310  0.2488  0.3538
  924POPC   GL111079   1.238   9.487  16.630 -0.0676  0.0566 -0.0839
  924POPC   GL211080   0.978   9.437  16.785  0.1399 -0.0351  0.0295
  924POPC   C1A11081   1.467   9.328  17.032  0.1603 -0.0601  0.2139
  924POPC   D2A11082   1.504   9.082  17.407 -0.1235  0.0019 -0.2350
  924POPC   C3A11083   1.319   9.123  17.796 -0.2565  0.1343  0.0664
  924POPC   C4A11084   1.352   9.440  18.029  0.0405  0.0013  0.2746
  924POPC   C1B11085   0.764   9.459  17.211 -0.3051  0.7459 -0.0751
  924POPC   C2B11086   0.929   9.362  17.638  0.1729  0.3074 -0.1047
  924POPC   C3B11087   0.852   9.530  18.053 -0.0267  0.3254  0.0039
  924POPC   C4B11088   0.709   9.836  18.366  0.0417 -0.1457 -0.1661
  925POPC   NC311089  10.999  10.132  12.291  0.0168  0.1682 -0.0327
  925POPC   PO411090  11.251  10.205  12.583 -0.1314 -0.0962  0.2332
  925POPC   GL111091  11.104   9.925  12.833 -0.2052  0.1991 -0.1640
  925POPC   GL211092  11.019   9.693  12.642 -0.1707 -0.1515  0.0711
  925POPC   C1A11093  11.324   9.624  13.084  0.0224  0.1067  0.2360
  925POPC   D2A11094  11.244   9.141  12.946  0.1244  0.0873  0.0877
  925POPC   C3A11095  10.870   9.020  12.736  0.3418  0.1243  0.0072
  925POPC   C4A11096  10.829   9.179  12.286  0.0500 -0.0143 -0.0677
  925POPC   C1B11097  11.193   9.635  12.214  0.2487  0.1712 -0.0443
  925POPC   C2B11098  11.269   9.304  11.875  0.2862  0.0427 -0.0595
  925POPC   C3B11099  11.032   8.918  11.897 -0.1458 -0.1107  0.1789
  925POPC   C4B11100  10.624   8.712  12.016 -0.3198  0.0464 -0.1487
  926POPC   NC311101   4.688   9.065  15.148 -0.1219  0.5039 -0.2011
  926POPC   PO411102   4.768   8.766  15.410 -0.0781  0.2394 -0.2783
  926POPC   GL111103   4.879   8.478  15.685 -0.1920 -0.0079  0.1422
  926POPC   GL211104   4.845   8.235  15.547  0.0548 -0.4046 -0.1577
  926POPC   C1A11105   4.969   8.335  16.093  0.1575 -0.0696 -0.1007
  926POPC   D2A11106   5.007   8.358  16.532 -0.1233 -0.1532 -0.2253
  926POPC   C3A11107   5.209   8.027  16.766  0.0387  0.5115 -0.2847
  926POPC   C4A11108   5.163   7.540  16.795  0.0343 -0.0602  0.0313
  926POPC   C1B11109   5.244   8.001  15.794 -0.1364 -0.2689 -0.2206
  926POPC   C2B11110   5.461   7.714  16.104 -0.1211 -0.0097  0.0269
  926POPC   C3B11111   5.611   7.341  16.314 -0.3516 -0.0531 -0.2051
  926POPC   C4B11112   5.678   6.942  16.557  0.0075  0.3243 -0.1803
  927POPC   NC311113   2.896   9.297  15.807  0.1355 -0.1643 -0.2362
  927POPC   PO411114   3.208   9.571  15.842 -0.5058 -0.6111  0.1216
  927POPC   GL111115   3.442   9.569  16.190 -0.3259  0.1529 -0.1219
  927POPC   GL211116   3.609   9.347  16.417 -0.0932 -0.3009 -0.0702
  927POPC   C1A11117   3.389   9.730  16.621  0.1055 -0.2702 -0.0065
  927POPC   D2A11118   3.473   9.636  17.054  0.1093  0.0406  0.0095
  927POPC   C3A11119   3.815   9.400  17.244  0.0684 -0.2802  0.0507
  927POPC   C4A11120   3.741   9.072  17.511  0.0614  0.3853  0.1809
  927POPC   C1B11121   3.844   9.479  16.754 -0.3403  0.1684 -0.3393
  927POPC   C2B11122   4.246   9.544  16.919  0.0701 -0.1215  0.3149
  927POPC   C3B11123   4.555   9.630  17.250  0.1022 -0.0811  0.1714
  927POPC   C4B11124   4.800   9.868  17.579  0.0173  0.0011  0.2402
  928POPC   NC311125  14.604  14.408  16.263  0.1214 -0.0945  0.1886
  928POPC   PO411126  14.605  14.041  16.344 -0.2905  0.0810  0.3492
  928POPC   GL111127  14.641  14.278  16.736 -0.3349  0.3669  0.1807
  928POPC   GL211128  14.478  14.481  16.775 -0.0313  0.1652  0.0631
  928POPC   C1A11129  14.968  14.352  17.069 -0.0598  0.0308  0.2721
  928POPC   D2A11130  15.158  14.428  17.483  0.2179 -0.0437  0.2297
  928POPC   C3A11131  15.128  14.777  17.768  0.0303  0.0435  0.0147
  928POPC   C4A11132  15.299  15.208  17.955 -0.1460  0.3304 -0.2331
  928POPC   C1B11133  14.180  14.517  17.158  0.0111 -0.0085  0.1348
  928POPC   C2B11134  14.128  14.486  17.646  0.3337 -0.2166  0.1787
  928POPC   C3B11135  14.451  14.618  17.947 -0.3140 -0.0032 -0.2144
  928POPC   C4B11136  14.838  14.741  18.132  0.0844  0.1471  0.0741
  929POPC   NC311137  12.175   9.409  12.680  0.0905 -0.3408  0.0694
  929POPC   PO411138  12.559   9.408  12.762  0.2781  0.3188 -0.1827
  929POPC   GL111139  12.434   8.987  12.862 -0.1754  0.0105 -0.2198
  929POPC   GL211140  12.163   8.921  12.736  0.1836 -0.1363 -0.1350
  929POPC   C1A11141  12.417   8.645  13.213 -0.0861 -0.2628  0.0850
  929POPC   D2A11142  12.227   8.619  13.622 -0.0639 -0.1187  0.0375
  929POPC   C3A11143  11.891   8.277  13.682  0.1204  0.0921  0.1171
  929POPC   C4A11144  11.567   7.976  13.757  0.1177  0.0444 -0.1510
  929POPC   C1B11145  11.947   8.567  12.669 -0.0721  0.1868  0.1014
  929POPC   C2B11146  11.959   8.141  12.537 -0.0914 -0.1136 -0.0883
  929POPC   C3B11147  11.911   7.737  12.745 -0.0803  0.0569 -0.2836
  929POPC   C4B11148  11.738   7.414  12.986 -0.1800 -0.3098 -0.0838
  930POPC   NC311149  12.990  15.158  15.156 -0.0494 -0.3669 -0.1656
  930POPC   PO411150  12.947  14.837  15.466 -0.0324 -0.0928 -0.2910
  930POPC   GL111151  12.818  14.838  15.885  0.1291  0.1999  0.2026
  930POPC   GL211152  13.100  14.939  16.056  0.3873 -0.0437  0.0029
  930POPC   C1A11153  12.662  15.153  16.166  0.0148 -0.2854  0.2641
  930POPC   D2A11154  12.204  15.228  16.265 -0.3795  0.2086  0.0559
  930POPC   C3A11155  11.953  14.972  16.560  0.0657  0.3474 -0.0577
  930POPC   C4A11156  11.657  14.665  16.643  0.2723 -0.3412  0.2696
  930POPC   C1B11157  13.192  15.213  16.449 -0.0779  0.0172  0.0256
  930POPC   C2B11158  12.965  15.456  16.746 -0.0176  0.0279  0.0839
  930POPC   C3B11159  12.984  15.474  17.199 -0.1016 -0.0658 -0.1983
  930POPC   C4B11160  12.816  15.475  17.644  0.0966 -0.2024 -0.1050
  931POPC   NC311161  14.097  13.040  16.480 -0.2124  0.2018  0.3113
  931POPC   PO411162  14.493  13.044  16.453 -0.2675 -0.0735 -0.0058
  931POPC   GL111163  14.370  13.149  16.811 -0.1775  0.2486  0.1561
  931POPC   GL211164  14.294  12.887  16.918 -0.1728  0.1253 -0.1202
  931POPC   C1A11165  14.635  13.346  17.151 -0.1371 -0.5171  0.1649
  931POPC   D2A11166  14.596  13.571  17.569 -0.1432  0.0949  0.1840
  931POPC   C3A11167  14.529  13.909  17.899  0.1214  0.0151 -0.0287
  931POPC   C4A11168  14.523  14.177  18.250  0.2422 -0.0581  0.1005
  931POPC   C1B11169  14.219  13.076  17.323  0.0043  0.0729  0.0314
  931POPC   C2B11170  14.286  13.197  17.760 -0.0454 -0.2543 -0.0710
  931POPC   C3B11171  14.187  13.196  18.207 -0.2097 -0.0981 -0.3125
  931POPC   C4B11172  13.941  13.299  18.611 -0.0771  0.2165  0.1382
  932POPC   NC311173   2.408  11.263  16.383 -0.4148 -0.0015  0.0306
  932POPC   PO411174   2.068  11.213  16.484  0.0678 -0.1120  0.2116
  932POPC   GL111175   2.033  11.100  16.932 -0.1237  0.1123 -0.2012
  932POPC   GL211176   2.189  11.275  17.022 -0.1259 -0.1435 -0.1585
  932POPC   C1A11177   1.675  10.941  17.106  0.2312  0.1910  0.0752
  932POPC   D2A11178   1.461  10.681  17.462  0.1909  0.0127  0.1380
  932POPC   C3A11179   1.530  10.603  17.895 -0.1783  0.1605 -0.2541
  932POPC   C4A11180   1.612  10.254  18.218 -0.2185  0.1020 -0.0653
  932POPC   C1B11181   2.079  11.109  17.440  0.0253  0.3110  0.4145
  932POPC   C2B11182   1.938  10.991  17.869  0.2515 -0.0177  0.1546
  932POPC   C3B11183   1.923  10.685  18.251  0.1391  0.0998  0.1558
  932POPC   C4B11184   2.069  10.483  18.680 -0.1035  0.2080  0.0524
  933POPC   NC311185   2.791  10.107  15.926  0.0790  0.1686  0.2865
  933POPC   PO411186   2.755   9.752  16.047 -0.2777 -0.1614 -0.1116
  933POPC   GL111187   2.894   9.684  16.410 -0.0338 -0.0185  0.1068
  933POPC   GL211188   3.031   9.432  16.368 -0.1869 -0.3833  0.1572
  933POPC   C1A11189   2.887   9.563  16.851 -0.1176  0.0166  0.1665
  933POPC   D2A11190   2.957   9.594  17.278  0.0769 -0.3168  0.0084
  933POPC   C3A11191   3.356   9.614  17.573 -0.2207  0.1781  0.1032
  933POPC   C4A11192   3.775   9.575  17.817  0.1664 -0.0223 -0.1641
  933POPC   C1B11193   3.227   9.209  16.678 -0.2287 -0.0710  0.1047
  933POPC   C2B11194   3.217   9.215  17.140 -0.0101  0.1925 -0.1992
  933POPC   C3B11195   3.219   9.167  17.630  0.0479 -0.0884  0.0255
  933POPC   C4B11196   3.358   8.739  17.781 -0.0665 -0.1195  0.2559
  934POPC   NC311197  10.666  12.050  16.415 -0.0172  0.2914  0.2837
  934POPC   PO411198  10.489  12.384  16.380 -0.4897  0.3128 -0.1752
  934POPC   GL111199  10.460  12.479  16.774 -0.3072 -0.4142  0.1625
  934POPC   GL211200  10.541  12.245  16.927  0.0884 -0.2407  0.0922
  934POPC   C1A11201  10.537  12.741  17.155  0.0476  0.2484  0.1823
  934POPC   D2A11202  10.358  12.870  17.604  0.0490  0.0040  0.3931
  934POPC   C3A11203  10.556  12.612  17.955  0.0841 -0.0640  0.1894
  934POPC   C4A11204  10.775  12.553  18.346  0.0223  0.0643  0.1530
  934POPC   C1B11205  10.369  12.054  17.280 -0.0646  0.0175  0.1252
  934POPC   C2B11206  10.409  11.677  17.539 -0.0784  0.2239  0.2651
  934POPC   C3B11207  10.200  11.536  17.909  0.1973  0.0120  0.0461
  934POPC   C4B11208   9.989  11.513  18.315  0.1680 -0.3032  0.2421
  935POPC   NC311209   3.285  12.382  16.131  0.1437  0.6494  0.0388
  935POPC   PO411210   3.434  12.302  16.466 -0.3368 -0.0991 -0.4063
  935POPC   GL111211   3.424  12.201  16.781  0.0833  0.0204  0.2147
  935POPC   GL211212   3.718  12.253  16.914 -0.2653  0.1224  0.0535
  935POPC   C1A11213   3.547  11.803  16.989  0.1816  0.3060  0.4690
  935POPC   D2A11214   3.626  11.324  17.009 -0.0796  0.0469 -0.2808
  935POPC   C3A11215   3.566  11.143  17.462  0.0862 -0.1006 -0.0976
  935POPC   C4A11216   3.759  10.792  17.710  0.0346 -0.3287 -0.0489
  935POPC   C1B11217   3.802  12.232  17.363 -0.0718  0.0339  0.1543
  935POPC   C2B11218   3.559  12.108  17.769  0.0258  0.0664 -0.1106
  935POPC   C3B11219   3.481  12.045  18.227  0.0708 -0.0524 -0.2410
  935POPC   C4B11220   3.561  11.961  18.686 -0.2160  0.3051 -0.1428
  936POPC   NC311221   6.267   1.373  12.911  0.0800 -0.1993 -0.0792
  936POPC   PO411222   6.612   1.523  12.826  0.0003  0.1519  0.2631
  936POPC   GL111223   6.800   1.760  13.142  0.2282  0.0662  0.0403
  936POPC   GL211224   6.991   1.636  13.157 -0.0502 -0.0624 -0.0890
  936POPC   C1A11225   7.038   2.161  13.346  0.3487  0.3173 -0.5489
  936POPC   D2A11226   7.402   2.370  13.437 -0.0426  0.0764  0.0042
  936POPC   C3A11227   7.566   2.651  13.788  0.1011  0.1323  0.0875
  936POPC   C4A11228   7.466   2.660  14.202  0.0083 -0.0276 -0.0817
  936POPC   C1B11229   7.406   1.815  13.206 -0.2816  0.3154 -0.1072
  936POPC   C2B11230   7.779   2.103  13.242 -0.0113 -0.2223 -0.2943
  936POPC   C3B11231   7.870   2.561  13.430  0.2991  0.0989 -0.0228
  936POPC   C4B11232   7.844   3.006  13.327 -0.0130 -0.0740  0.0578
  937POPC   NC311233   7.924  12.311  16.554  0.0669 -0.0617 -0.1278
  937POPC   PO411234   8.002  12.711  16.431 -0.1831 -0.0378 -0.2555
  937POPC   GL111235   8.175  12.831  16.868 -0.1490  0.0420  0.0839
  937POPC   GL211236   8.416  12.763  16.825  0.0848 -0.0740  0.3374
  937POPC   C1A11237   7.947  12.972  17.247 -0.0854 -0.3696 -0.0411
  937POPC   D2A11238   7.755  13.032  17.654 -0.0552 -0.0612 -0.1666
  937POPC   C3A11239   7.612  12.805  18.031 -0.2558  0.1869 -0.1443
  937POPC   C4A11240   7.660  12.368  18.264 -0.0119 -0.5884  0.1920
  937POPC   C1B11241   8.387  12.735  17.310  0.0330 -0.0707 -0.0140
  937POPC   C2B11242   8.277  12.780  17.753  0.0581 -0.1025 -0.0307
  937POPC   C3B11243   8.140  12.908  18.120 -0.0078  0.0282 -0.0826
  937POPC   C4B11244   7.730  13.177  18.243 -0.3936 -0.3817  0.0699
  938POPC   NC311245   2.338   3.290  15.143  0.0910 -0.0004  0.1947
  938POPC   PO411246   2.468   2.930  15.140 -0.1172  0.0636 -0.0757
  938POPC   GL111247   2.739   2.918  15.494 -0.3483  0.1211  0.1595
  938POPC   GL211248   2.823   3.232  15.478 -0.0848 -0.0067 -0.0156
  938POPC   C1A11249   2.732   2.757  15.925  0.3593  0.2301 -0.3522
  938POPC   D2A11250   2.897   2.849  16.365  0.0073 -0.0866 -0.4901
  938POPC   C3A11251   2.939   2.769  16.826  0.3283  0.2438  0.0185
  938POPC   C4A11252   2.959   2.506  17.253 -0.1039 -0.1053 -0.3399
  938POPC   C1B11253   2.735   3.282  15.996 -0.0337  0.0256  0.1703
  938POPC   C2B11254   2.798   3.361  16.480 -0.3013  0.4196 -0.2503
  938POPC   C3B11255   2.846   3.335  16.908  0.1480 -0.1074  0.1610
  938POPC   C4B11256   3.001   3.076  17.249  0.1849  0.0614  0.1414
  939POPC   NC311257  11.747  10.447  12.634 -0.0104  0.1312  0.3682
  939POPC   PO411258  11.986  10.183  12.785  0.0477  0.0087 -0.0331
  939POPC   GL111259  11.851   9.793  12.822 -0.2378 -0.2257 -0.3257
  939POPC   GL211260  11.905   9.697  13.059 -0.0195 -0.2009  0.1856
  939POPC   C1A11261  11.488   9.497  12.639 -0.0264  0.0374  0.2343
  939POPC   D2A11262  11.301   9.147  12.383 -0.1914  0.0408 -0.1492
  939POPC   C3A11263  11.225   8.723  12.420  0.1666  0.1542 -0.2087
  939POPC   C4A11264  11.220   8.260  12.402  0.2449  0.0235  0.0826
  939POPC   C1B11265  11.753   9.289  13.008 -0.0782  0.0672  0.3914
  939POPC   C2B11266  11.642   8.911  12.775  0.0034 -0.3884 -0.2394
  939POPC   C3B11267  11.521   8.430  12.718  0.1679  0.2345  0.2478
  939POPC   C4B11268  11.523   8.003  12.777 -0.0289 -0.3137 -0.2013
  940POPC   NC311269   1.381   5.471  15.647  0.0713  0.5277  0.0268
  940POPC   PO411270   1.482   5.212  15.367 -0.0678 -0.1248  0.0305
  940POPC   GL111271   1.577   4.962  15.588  0.4476 -0.0441 -0.0171
  940POPC   GL211272   1.693   5.077  15.850  0.1216 -0.1573  0.1089
  940POPC   C1A11273   1.402   4.650  15.897  0.2505  0.1761  0.0521
  940POPC   D2A11274   1.366   4.593  16.346  0.0360  0.1147 -0.1060
  940POPC   C3A11275   1.436   4.566  16.827  0.0850  0.0456  0.0131
  940POPC   C4A11276   1.554   4.313  17.123  0.2479 -0.0972 -0.2531
  940POPC   C1B11277   1.691   5.380  16.206  0.2698 -0.1163  0.2836
  940POPC   C2B11278   1.510   5.472  16.656 -0.2689 -0.0717 -0.3692
  940POPC   C3B11279   1.529   5.461  17.120  0.1965  0.0337 -0.1249
  940POPC   C4B11280   1.585   5.213  17.512  0.0647  0.0848 -0.2413
  941POPC   NC311281  14.754   7.361  15.005  0.0349  0.3693  0.1147
  941POPC   PO411282  14.698   6.977  15.137 -0.0619 -0.1295  0.2813
  941POPC   GL111283  14.443   6.863  15.347  0.3051 -0.1552  0.0880
  941POPC   GL211284  14.460   6.606  15.388 -0.1521  0.0107 -0.2616
  941POPC   C1A11285  14.006   6.739  15.511 -0.1183  0.2615  0.2515
  941POPC   D2A11286  13.788   6.503  15.809 -0.0392  0.0788  0.1988
  941POPC   C3A11287  13.886   6.322  16.232 -0.1368 -0.2361 -0.1734
  941POPC   C4A11288  14.112   6.105  16.598 -0.1568 -0.0263 -0.0320
  941POPC   C1B11289  14.409   6.438  15.868  0.1760 -0.1164  0.1236
  941POPC   C2B11290  14.423   6.360  16.340 -0.0432  0.3138 -0.4089
  941POPC   C3B11291  14.224   6.532  16.723  0.2613  0.0721 -0.1513
  941POPC   C4B11292  13.869   6.391  16.996 -0.1412  0.1457  0.1590
  942POPC   NC311293  10.018  13.159   9.486  0.1540 -0.0777  0.3692
  942POPC   PO411294  10.192  12.873   9.289 -0.2345  0.1142  0.0242
  942POPC   GL111295  10.023  12.634   9.067 -0.3200  0.2167 -0.2505
  942POPC   GL211296  10.158  12.444   8.894 -0.0500 -0.1372 -0.2403
  942POPC   C1A11297   9.715  12.745   8.742 -0.0765  0.1960 -0.0499
  942POPC   D2A11298   9.277  12.797   8.518  0.2678  0.0534  0.1060
  942POPC   C3A11299   9.312  12.434   8.178  0.1744  0.1218  0.0528
  942POPC   C4A11300   9.251  12.271   7.715  0.1695  0.2943  0.0514
  942POPC   C1B11301  10.138  12.668   8.453 -0.0217 -0.0609  0.1608
  942POPC   C2B11302  10.183  12.567   7.982  0.3499  0.0807  0.1194
  942POPC   C3B11303  10.370  12.554   7.576  0.2762  0.3409  0.2838
  942POPC   C4B11304  10.579  12.733   7.134 -0.1086 -0.1642 -0.1034
  943POPC   NC311305   0.300   9.685  15.933  0.7467  0.0528  0.1436
  943POPC   PO411306   0.203   9.888  16.276  0.0015 -0.2004  0.4418
  943POPC   GL111307   0.093   9.986  16.653  0.3418  0.1031 -0.1100
  943POPC   GL211308   0.409   9.930  16.695  0.1627 -0.1834  0.0360
  943POPC   C1A11309   0.101   9.921  17.107  0.3914 -0.0523  0.1492
  943POPC   D2A11310   0.162   9.967  17.534 -0.2095  0.4640 -0.2054
  943POPC   C3A11311   0.284   9.736  17.942  0.0282  0.0158 -0.2515
  943POPC   C4A11312   0.381   9.324  18.058 -0.1920  0.4033  0.3955
  943POPC   C1B11313   0.724   9.969  17.043 -0.2374  0.2325 -0.3608
  943POPC   C2B11314   0.984  10.124  17.381 -0.0732  0.3035 -0.5178
  943POPC   C3B11315   1.053  10.410  17.669  0.0962 -0.3068 -0.3648
  943POPC   C4B11316   1.113  10.437  18.153  0.1563  0.0396  0.0993
  944POPC   NC311317   3.162  32.367  16.126  0.0804  0.1323  0.2515
  944POPC   PO411318   2.915  32.103  16.277  0.0527 -0.0741 -0.1344
  944POPC   GL111319   2.684  32.177  16.611  0.0442 -0.0194  0.0784
  944POPC   GL211320   2.831  32.048  16.832  0.0079 -0.0769 -0.1919
  944POPC   C1A11321   2.514  32.490  16.951  0.0581  0.0288  0.1523
  944POPC   D2A11322   2.507  32.557  17.431 -0.1950 -0.1403  0.0462
  944POPC   C3A11323   2.491  32.698  17.889  0.0716  0.0647 -0.2954
  944POPC   C4A11324   2.760  32.467  18.247 -0.1300 -0.2926 -0.0398
  944POPC   C1B11325   2.835  32.257  17.268 -0.1863  0.0151 -0.3090
  944POPC   C2B11326   2.738  32.233  17.732 -0.2828 -0.2428  0.3105
  944POPC   C3B11327   2.327  32.205  18.027 -0.0576  0.3485 -0.0702
  944POPC   C4B11328   1.879  32.200  18.188  0.2408 -0.0443  0.0314
  945POPC   NC311329  11.183  10.013  13.422 -0.0842  0.1694 -0.0569
  945POPC   PO411330  11.564  10.057  13.516 -0.2850 -0.1320  0.0642
  945POPC   GL111331  11.408   9.618  13.524 -0.3682  0.0138 -0.3486
  945POPC   GL211332  11.685   9.505  13.510  0.0483  0.0753 -0.0288
  945POPC   C1A11333  10.936   9.478  13.483  0.1801  0.2677 -0.1722
  945POPC   D2A11334  10.454   9.471  13.392 -0.1179  0.0771 -0.0517
  945POPC   C3A11335  10.057   9.247  13.531  0.2704  0.0252  0.2329
  945POPC   C4A11336   9.658   9.200  13.725 -0.2226 -0.0402  0.2770
  945POPC   C1B11337  11.496   9.134  13.388 -0.1269 -0.0163  0.1379
  945POPC   C2B11338  11.228   8.743  13.344  0.0256  0.0488  0.1190
  945POPC   C3B11339  11.086   8.561  12.920 -0.0265 -0.1437 -0.1230
  945POPC   C4B11340  10.787   8.551  12.547 -0.2106 -0.2237 -0.1321
  946POPC   NC311341  14.121   5.511  12.653 -0.0817 -0.2942 -0.1163
  946POPC   PO411342  14.406   5.656  12.881  0.0725 -0.2583 -0.0094
  946POPC   GL111343  14.024   5.858  12.915  0.1149 -0.0009 -0.0393
  946POPC   GL211344  14.003   6.088  12.742 -0.3814  0.1485 -0.3501
  946POPC   C1A11345  13.592   5.754  12.852  0.2024  0.1290  0.1457
  946POPC   D2A11346  13.196   5.674  12.576  0.4871  0.5777 -0.0119
  946POPC   C3A11347  12.828   5.743  12.808  0.1536 -0.0894 -0.1857
  946POPC   C4A11348  12.575   5.585  13.201  0.0287  0.0993 -0.0154
  946POPC   C1B11349  13.661   6.275  12.496 -0.1435  0.0160  0.1529
  946POPC   C2B11350  13.246   6.274  12.407 -0.0662  0.1116  0.0712
  946POPC   C3B11351  12.795   6.104  12.382  0.0928 -0.0368  0.0021
  946POPC   C4B11352  12.602   5.665  12.402 -0.1795 -0.4158 -0.3018
  947POPC   NC311353  10.584  13.360  16.344 -0.3867  0.1662 -0.2465
  947POPC   PO411354  10.957  13.568  16.332  0.0288 -0.0130  0.0416
  947POPC   GL111355  11.030  13.643  16.634 -0.0667  0.1679 -0.0789
  947POPC   GL211356  10.872  13.412  16.786 -0.1582  0.4441 -0.1892
  947POPC   C1A11357  11.205  13.824  17.020  0.0494 -0.0383 -0.1123
  947POPC   D2A11358  11.452  13.942  17.425  0.1153  0.0231 -0.1455
  947POPC   C3A11359  11.424  13.772  17.817 -0.0261  0.0885  0.3452
  947POPC   C4A11360  11.602  13.651  18.211 -0.1575  0.0931  0.0542
  947POPC   C1B11361  11.069  13.422  17.207 -0.0770  0.1721  0.1604
  947POPC   C2B11362  11.078  13.404  17.643 -0.0439  0.0252  0.1333
  947POPC   C3B11363  11.179  13.393  18.065  0.2857 -0.3110  0.0287
  947POPC   C4B11364  11.312  13.377  18.530 -0.0887 -0.2911 -0.1231
  948POPC   NC311365   0.606   2.979  14.946  0.0771  0.0178 -0.1186
  948POPC   PO411366   0.297   3.132  15.153 -0.0330  0.0974 -0.0723
  948POPC   GL111367   0.260   3.162  15.494  0.1904 -0.3368  0.3803
  948POPC   GL211368   0.229   3.433  15.629 -0.0463 -0.2135 -0.0272
  948POPC   C1A11369   0.469   3.051  15.886  0.2354  0.0497  0.2188
  948POPC   D2A11370   0.588   3.394  16.248  0.2663 -0.0879  0.2533
  948POPC   C3A11371   0.802   3.494  16.645 -0.3150 -0.0507 -0.1659
  948POPC   C4A11372   0.737   3.560  17.080 -0.1716  0.0218  0.2993
  948POPC   C1B11373   0.145   3.423  16.068  0.0094  0.0252  0.3794
  948POPC   C2B11374   0.066   3.505  16.553 -0.0233 -0.1268 -0.1208
  948POPC   C3B11375  -0.085   3.530  17.017  0.1628  0.3266 -0.0646
  948POPC   C4B11376  -0.353   3.278  17.345 -0.1651 -0.2064  0.4339
  949POPC   NC311377  15.879  14.063  16.068 -0.0595 -0.0338  0.1610
  949POPC   PO411378  15.554  14.097  16.214  0.1704 -0.0324 -0.0715
  949POPC   GL111379  15.590  14.187  16.527 -0.1441  0.0616  0.1313
  949POPC   GL211380  15.487  14.027  16.746  0.0251 -0.0672  0.1985
  949POPC   C1A11381  15.881  14.339  16.832  0.0442 -0.0314 -0.3879
  949POPC   D2A11382  15.775  14.604  17.169  0.3019 -0.0291 -0.0543
  949POPC   C3A11383  15.715  14.386  17.539  0.1043  0.1859 -0.0516
  949POPC   C4A11384  15.649  14.101  17.902  0.0545  0.2117 -0.2353
  949POPC   C1B11385  15.468  14.101  17.184 -0.0184  0.0418  0.0413
  949POPC   C2B11386  15.293  13.932  17.598  0.0044  0.0400 -0.0033
  949POPC   C3B11387  15.047  13.766  17.995  0.1774  0.1014 -0.1562
  949POPC   C4B11388  14.809  13.692  18.412 -0.1459 -0.0545 -0.0957
  950POPC   NC311389   4.827  12.542  16.397 -0.2514  0.0730  0.0743
  950POPC   PO411390   5.138  12.792  16.502  0.0792 -0.0478 -0.1336
  950POPC   GL111391   5.352  12.916  16.821  0.1589 -0.1669  0.1646
  950POPC   GL211392   5.149  13.056  16.939  0.0977  0.0676  0.1411
  950POPC   C1A11393   5.635  13.120  17.154 -0.1498 -0.3254  0.1123
  950POPC   D2A11394   5.800  13.199  17.552 -0.0261  0.0832  0.2509
  950POPC   C3A11395   5.383  13.159  17.832 -0.2720  0.0512  0.0239
  950POPC   C4A11396   4.907  13.026  17.863  0.4431 -0.0201 -0.5289
  950POPC   C1B11397   5.208  13.169  17.397 -0.0256  0.2494 -0.1711
  950POPC   C2B11398   5.008  13.450  17.664 -0.0688 -0.2577 -0.0214
  950POPC   C3B11399   4.984  13.589  18.123  0.1088 -0.1127  0.1572
  950POPC   C4B11400   5.124  13.633  18.545 -0.3510 -0.0389  0.0268
  951POPC   NC311401  14.332  10.361  16.239  0.0462  0.0345 -0.0723
  951POPC   PO411402  14.424  10.722  16.199  0.1382 -0.3600 -0.1346
  951POPC   GL111403  14.095  10.684  16.504 -0.1717  0.0347 -0.0361
  951POPC   GL211404  14.051  10.861  16.720  0.4186  0.0598  0.1532
  951POPC   C1A11405  14.157  10.285  16.776  0.1181 -0.1202  0.2344
  951POPC   D2A11406  13.935  10.026  17.123 -0.0147 -0.0698  0.2528
  951POPC   C3A11407  13.980   9.876  17.541 -0.2477 -0.0060 -0.0828
  951POPC   C4A11408  13.813   9.775  17.973  0.0560  0.0409 -0.0164
  951POPC   C1B11409  13.850  10.717  17.137  0.2481  0.1890 -0.0833
  951POPC   C2B11410  13.709  10.776  17.549 -0.1576 -0.2630  0.0860
  951POPC   C3B11411  13.718  10.689  17.981 -0.1130 -0.3037  0.1565
  951POPC   C4B11412  13.361  10.572  18.212 -0.0428 -0.2635 -0.2065
  952POPC   NC311413   6.144  31.793  15.308 -0.2149 -0.1816 -0.0270
  952POPC   PO411414   6.475  31.835  15.587  0.0179  0.1176  0.1230
  952POPC   GL111415   6.207  32.154  15.702  0.4442  0.1915  0.1668
  952POPC   GL211416   6.051  32.350  15.528 -0.5810  0.0298  0.1571
  952POPC   C1A11417   6.197  32.492  15.984 -0.1287 -0.1326  0.2580
  952POPC   D2A11418   6.403  32.576  16.379 -0.0697 -0.2962 -0.2463
  952POPC   C3A11419   6.516  32.832  16.770  0.0579 -0.1921 -0.0201
  952POPC   C4A11420   6.396  33.039  17.138  0.0220  0.1268 -0.0717
  952POPC   C1B11421   5.767  32.648  15.785 -0.1055 -0.0121  0.0848
  952POPC   C2B11422   5.663  32.686  16.259  0.0300 -0.0833  0.1603
  952POPC   C3B11423   5.525  32.898  16.702  0.0156 -0.0204 -0.0651
  952POPC   C4B11424   5.398  32.876  17.178 -0.2300 -0.1270  0.1009
  953POPC   NC311425  11.270  11.441  16.019  0.0557  0.2430 -0.2366
  953POPC   PO411426  11.586  11.618  16.112  0.1355 -0.1581  0.0933
  953POPC   GL111427  11.685  11.519  16.450 -0.0254 -0.0278  0.3303
  953POPC   GL211428  11.922  11.312  16.573 -0.0616 -0.0666  0.0295
  953POPC   C1A11429  11.529  11.594  16.909 -0.0223  0.0980  0.2252
  953POPC   D2A11430  11.299  11.570  17.293  0.2787 -0.0246  0.0191
  953POPC   C3A11431  11.115  11.154  17.489 -0.1442 -0.2368 -0.0787
  953POPC   C4A11432  11.309  10.910  17.865  0.0187 -0.2158 -0.4266
  953POPC   C1B11433  11.850  11.070  16.975  0.0381 -0.0890 -0.0887
  953POPC   C2B11434  11.831  10.620  17.178  0.5028  0.0755 -0.0648
  953POPC   C3B11435  11.807  10.387  17.603  0.1341 -0.1201  0.1719
  953POPC   C4B11436  11.882  10.131  17.987 -0.1406  0.2429 -0.1318
  954POPC   NC311437   7.183  15.994  15.236 -0.3359 -0.0200 -0.1407
  954POPC   PO411438   7.021  15.755  15.508 -0.1935 -0.2948  0.1308
  954POPC   GL111439   7.119  16.169  15.692  0.1285  0.3481 -0.0245
  954POPC   GL211440   7.053  16.437  15.555  0.0375  0.2081 -0.1172
  954POPC   C1A11441   7.398  16.352  15.980 -0.1677 -0.1071  0.0251
  954POPC   D2A11442   7.757  16.562  16.170 -0.0834  0.2550 -0.3686
  954POPC   C3A11443   7.791  16.618  16.608 -0.1490  0.4025 -0.0402
  954POPC   C4A11444   7.801  16.853  17.002 -0.1155 -0.3149 -0.0894
  954POPC   C1B11445   7.109  16.742  15.869  0.2454  0.2418 -0.1021
  954POPC   C2B11446   7.389  16.944  16.166 -0.2180  0.0382  0.0602
  954POPC   C3B11447   7.553  17.107  16.594  0.1702 -0.0845  0.0776
  954POPC   C4B11448   7.688  17.473  16.841 -0.1370 -0.0284  0.2663
  955POPC   NC311449   5.571  32.148  15.398 -0.0355 -0.1294 -0.8844
  955POPC   PO411450   5.210  32.159  15.621 -0.1073  0.1231 -0.1494
  955POPC   GL111451   5.081  32.360  15.964 -0.2449 -0.0261 -0.2382
  955POPC   GL211452   5.245  32.598  15.905 -0.0830 -0.0589 -0.2025
  955POPC   C1A11453   5.210  32.481  16.397 -0.1513 -0.1004 -0.0452
  955POPC   D2A11454   5.087  32.668  16.768  0.2107  0.1810 -0.1959
  955POPC   C3A11455   4.995  32.497  17.196 -0.0089  0.1895 -0.0328
  955POPC   C4A11456   4.870  32.269  17.569  0.1709 -0.2172 -0.1937
  955POPC   C1B11457   5.143  32.952  16.217  0.0820  0.2114  0.2780
  955POPC   C2B11458   5.217  33.371  16.245  0.1917 -0.2917  0.2113
  955POPC   C3B11459   5.081  33.766  16.257 -0.0687  0.2104 -0.5616
  955POPC   C4B11460   4.790  34.044  16.041 -0.2122  0.1595 -0.2637
  956POPC   NC311461  12.891   9.510  11.475  0.0929 -0.0098 -0.1627
  956POPC   PO411462  12.912   9.761  11.180  0.1851 -0.1410 -0.0793
  956POPC   GL111463  12.797   9.420  11.001  0.1414  0.0481 -0.1010
  956POPC   GL211464  12.672   9.240  11.108  0.1861 -0.1596  0.1517
  956POPC   C1A11465  12.523   9.238  10.645  0.0477  0.2312  0.2632
  956POPC   D2A11466  12.375   8.887  10.486  0.0731  0.2813 -0.0075
  956POPC   C3A11467  12.312   8.470  10.675 -0.0429 -0.1426 -0.1236
  956POPC   C4A11468  12.021   8.126  10.769 -0.0604 -0.2252  0.1223
  956POPC   C1B11469  12.554   8.823  10.959 -0.0497 -0.1174  0.2988
  956POPC   C2B11470  12.351   8.411  11.132  0.1153 -0.0804 -0.0437
  956POPC   C3B11471  12.285   7.950  11.112 -0.1814 -0.2048  0.1027
  956POPC   C4B11472  12.577   7.690  10.806  0.0699  0.1116 -0.0535
  957POPC   NC311473  11.650  11.096  16.009  0.2189  0.3654  0.1192
  957POPC   PO411474  11.812  10.744  15.922  0.4258  0.0125  0.3129
  957POPC   GL111475  11.911  10.701  16.284  0.1299  0.3184  0.3640
  957POPC   GL211476  12.088  10.837  16.477  0.2459 -0.1894  0.0766
  957POPC   C1A11477  11.781  10.483  16.653  0.1548 -0.1640 -0.0171
  957POPC   D2A11478  11.469  10.194  16.903 -0.0835 -0.0758 -0.0585
  957POPC   C3A11479  11.343  10.248  17.377 -0.2601 -0.1285 -0.1086
  957POPC   C4A11480  11.368  10.094  17.833 -0.2424 -0.1758  0.0418
  957POPC   C1B11481  12.226  10.651  16.846 -0.2471 -0.0478  0.2379
  957POPC   C2B11482  12.126  10.249  17.083 -0.3745 -0.3651  0.1284
  957POPC   C3B11483  11.777   9.961  17.292 -0.1402 -0.0422 -0.0091
  957POPC   C4B11484  11.697   9.695  17.645 -0.2633  0.1588  0.3585
  958POPC   NC311485  10.988  10.426  14.293 -0.2395  0.0487 -0.2875
  958POPC   PO411486  10.879  10.640  14.547 -0.2406 -0.0528 -0.1326
  958POPC   GL111487  10.559  10.483  14.564 -0.0606 -0.3059 -0.5208
  958POPC   GL211488  10.505  10.190  14.470 -0.1419 -0.3788 -0.2189
  958POPC   C1A11489  10.256  10.278  14.900  0.0395  0.2588  0.0843
  958POPC   D2A11490   9.846  10.505  14.934 -0.1438 -0.1313  0.1161
  958POPC   C3A11491   9.531  10.221  14.949 -0.0379  0.0393 -0.1003
  958POPC   C4A11492   9.395   9.820  14.826  0.1750 -0.1992  0.0035
  958POPC   C1B11493  10.523   9.791  14.732  0.4097  0.3428 -0.0524
  958POPC   C2B11494  10.336   9.798  15.159  0.0910 -0.1704  0.4917
  958POPC   C3B11495  10.228   9.521  15.502 -0.0431 -0.5455 -0.4458
  958POPC   C4B11496  10.250   9.188  15.819  0.1055 -0.2032 -0.0921
  959POPC   NC311497  14.901  10.593  16.328  0.1998 -0.2366  0.5073
  959POPC   PO411498  14.904  10.940  16.510  0.0481 -0.1625 -0.2111
  959POPC   GL111499  15.018  10.665  16.784 -0.3799  0.1452  0.2358
  959POPC   GL211500  15.116  10.374  16.663  0.2028  0.0718 -0.2226
  959POPC   C1A11501  14.995  10.489  17.206  0.4347 -0.1234  0.2446
  959POPC   D2A11502  14.669  10.612  17.523 -0.1055  0.0124 -0.0505
  959POPC   C3A11503  14.969  10.600  17.902  0.3815  0.1897 -0.0634
  959POPC   C4A11504  15.284  10.600  18.253 -0.0128 -0.1090  0.0738
  959POPC   C1B11505  15.331  10.121  16.957  0.1737  0.0759 -0.0812
  959POPC   C2B11506  15.504   9.882  17.245 -0.3082  0.4255 -0.0536
  959POPC   C3B11507  15.687   9.955  17.633  0.0559  0.1674  0.0451
  959POPC   C4B11508  15.696   9.742  18.094 -0.2201 -0.1746  0.0418
  960POPC   NC311509  11.533  10.285  14.135  0.1759  0.0234  0.2255
  960POPC   PO411510  11.223  10.226  13.888 -0.3096  0.2293 -0.3373
  960POPC   GL111511  10.802  10.141  13.981  0.2570  0.0087 -0.1222
  960POPC   GL211512  10.616  10.347  13.965  0.3015  0.0838  0.0771
  960POPC   C1A11513  10.770   9.818  14.325 -0.1647 -0.1084 -0.1144
  960POPC   D2A11514  10.713   9.365  14.484  0.1407  0.0047  0.0462
  960POPC   C3A11515  10.335   9.337  14.792 -0.1417 -0.0324 -0.0988
  960POPC   C4A11516   9.996   9.263  15.114 -0.0836  0.1331 -0.3080
  960POPC   C1B11517  10.231  10.048  14.087 -0.0282  0.0139 -0.1091
  960POPC   C2B11518  10.242   9.578  14.321 -0.1249  0.0706 -0.0091
  960POPC   C3B11519  10.225   9.076  14.303  0.0635 -0.0228  0.1616
  960POPC   C4B11520  10.513   8.780  14.558 -0.1793  0.3012  0.1601
  961POPC   NC311521   3.718   7.489  14.927 -0.4611  0.3290 -0.0308
  961POPC   PO411522   4.054   7.580  15.105 -0.3390  0.2774  0.0523
  961POPC   GL111523   4.522   7.319  15.265 -0.2467 -0.0222 -0.1710
  961POPC   GL211524   4.403   7.028  15.145  0.1638  0.2363 -0.1996
  961POPC   C1A11525   4.931   7.143  15.253  0.0520 -0.3567 -0.0412
  961POPC   D2A11526   5.253   6.850  15.275  0.3561  0.2513 -0.0366
  961POPC   C3A11527   5.648   6.722  15.506 -0.0606  0.0578 -0.2391
  961POPC   C4A11528   5.964   6.380  15.541 -0.2357  0.0258 -0.3909
  961POPC   C1B11529   4.589   6.964  15.585 -0.0470 -0.0241 -0.0451
  961POPC   C2B11530   4.669   6.972  15.992 -0.1216 -0.3496  0.1388
  961POPC   C3B11531   4.735   7.131  16.465 -0.0303 -0.0530 -0.0024
  961POPC   C4B11532   5.060   7.079  16.802 -0.0683 -0.1146  0.1202
  962POPC   NC311533  10.007  10.902   9.895  0.0434 -0.0793  0.1869
  962POPC   PO411534  10.040  11.299   9.894 -0.3111  0.1460 -0.2995
  962POPC   GL111535  10.329  11.365   9.538 -0.3498 -0.2843 -0.2477
  962POPC   GL211536  10.279  11.085   9.456  0.1302 -0.0227 -0.0495
  962POPC   C1A11537  10.668  11.505   9.252 -0.0930 -0.2508 -0.1128
  962POPC   D2A11538  10.844  11.637   8.797  0.1676 -0.1313  0.0612
  962POPC   C3A11539  10.561  11.613   8.484 -0.0044  0.1028  0.2210
  962POPC   C4A11540  10.454  11.592   7.996  0.1531  0.1507 -0.3717
  962POPC   C1B11541   9.982  10.814   9.307  0.4118  0.2533  0.0212
  962POPC   C2B11542   9.946  10.647   8.931 -0.0500 -0.3283  0.0588
  962POPC   C3B11543   9.827  10.475   8.489  0.1136  0.1162  0.0159
  962POPC   C4B11544   9.619  10.070   8.305  0.3379 -0.3066  0.0549
  963POPC   NC311545  15.646   7.353  15.433  0.2055 -0.1591 -0.0226
  963POPC   PO411546  15.334   7.213  15.644 -0.1106 -0.0587 -0.2584
  963POPC   GL111547  15.133   7.022  15.992  0.2039  0.3227  0.2226
  963POPC   GL211548  15.179   6.753  15.910 -0.1755 -0.4412 -0.3718
  963POPC   C1A11549  15.083   7.038  16.461  0.1223 -0.0546 -0.0368
  963POPC   D2A11550  15.035   7.258  16.935  0.0366 -0.1713 -0.2139
  963POPC   C3A11551  15.027   7.442  17.347  0.0394 -0.0536 -0.1605
  963POPC   C4A11552  14.957   7.259  17.722 -0.0608 -0.2095 -0.4938
  963POPC   C1B11553  15.340   6.657  16.302  0.1913  0.0201  0.1698
  963POPC   C2B11554  15.589   6.447  16.609  0.0506 -0.1558 -0.0635
  963POPC   C3B11555  15.936   6.267  16.843 -0.2889 -0.0217 -0.2059
  963POPC   C4B11556  16.204   6.106  17.145 -0.2306 -0.0014  0.1397
  964POPC   NC311557   2.829   2.521  15.043  0.3077 -0.3104  0.1641
  964POPC   PO411558   2.986   2.857  15.120  0.3110 -0.1956 -0.1026
  964POPC   GL111559   3.196   2.875  15.538 -0.2096  0.1663 -0.1807
  964POPC   GL211560   3.089   2.608  15.638  0.3108 -0.0847 -0.2846
  964POPC   C1A11561   3.207   3.026  15.955  0.0235 -0.0419 -0.2163
  964POPC   D2A11562   3.320   3.156  16.356  0.2062  0.1784 -0.3323
  964POPC   C3A11563   3.327   3.146  16.839 -0.0067  0.3764  0.3773
  964POPC   C4A11564   3.499   3.264  17.274  0.0420  0.0357 -0.1803
  964POPC   C1B11565   3.132   2.350  15.981 -0.1769 -0.1178 -0.2538
  964POPC   C2B11566   3.435   2.572  16.308  0.0533 -0.1019  0.0121
  964POPC   C3B11567   3.673   2.732  16.628 -0.2270 -0.0578  0.1563
  964POPC   C4B11568   3.902   2.893  16.970  0.0357 -0.0422  0.1494
  965POPC   NC311569   9.871  14.366  16.258 -0.1600  0.0421 -0.1924
  965POPC   PO411570   9.531  14.202  16.307 -0.2212  0.0327  0.2254
  965POPC   GL111571   9.474  14.550  16.582  0.2975  0.0040 -0.2292
  965POPC   GL211572   9.267  14.685  16.775 -0.0615 -0.0215 -0.1035
  965POPC   C1A11573   9.740  14.502  16.957  0.0888  0.1076 -0.1332
  965POPC   D2A11574   9.939  14.337  17.368 -0.2937 -0.1389  0.0991
  965POPC   C3A11575   9.939  14.118  17.759  0.0990 -0.0653 -0.2087
  965POPC   C4A11576  10.045  14.206  18.270  0.0035 -0.0677 -0.0573
  965POPC   C1B11577   9.290  14.911  17.167 -0.0318 -0.0823  0.0917
  965POPC   C2B11578   9.495  15.211  17.477 -0.0923  0.0158  0.0267
  965POPC   C3B11579   9.457  15.603  17.767  0.2733  0.1236  0.0939
  965POPC   C4B11580   9.335  15.735  18.198  0.0586  0.2989  0.0676
  966POPC   NC311581  13.836   5.332  13.679  0.0418  0.2972 -0.1285
  966POPC   PO411582  14.139   5.604  13.717  0.0840 -0.2246  0.2356
  966POPC   GL111583  13.855   5.620  14.011 -0.0124 -0.3218  0.0851
  966POPC   GL211584  14.069   5.716  14.209  0.2193 -0.2825 -0.1118
  966POPC   C1A11585  13.370   5.536  14.037 -0.0192  0.2636  0.2513
  966POPC   D2A11586  13.032   5.350  14.330 -0.6565 -0.1153 -0.0036
  966POPC   C3A11587  12.674   5.593  14.460  0.1142  0.1794 -0.0662
  966POPC   C4A11588  12.188   5.589  14.493  0.2323  0.0619  0.0272
  966POPC   C1B11589  13.716   5.673  14.520  0.2830  0.2385  0.1499
  966POPC   C2B11590  13.610   5.650  14.992  0.1379 -0.0010 -0.2235
  966POPC   C3B11591  13.577   5.594  15.453  0.2497 -0.1260 -0.2811
  966POPC   C4B11592  13.344   5.711  15.806  0.0087 -0.3073  0.5078
  967POPC   NC311593   5.772   7.775  11.726  0.2807 -0.3087  0.1436
  967POPC   PO411594   5.416   7.600  11.766 -0.0746 -0.2207 -0.0090
  967POPC   GL111595   5.716   7.296  11.884  0.4633 -0.1322 -0.1029
  967POPC   GL211596   5.769   7.334  12.164 -0.1533 -0.3024  0.4264
  967POPC   C1A11597   5.873   7.098  11.482 -0.0564 -0.0790 -0.5638
  967POPC   D2A11598   5.900   7.169  11.033 -0.1526 -0.0821  0.2337
  967POPC   C3A11599   6.332   7.069  10.909 -0.2479 -0.3541 -0.1968
  967POPC   C4A11600   6.722   7.000  10.640  0.0388  0.0328 -0.2474
  967POPC   C1B11601   6.178   7.292  11.946  0.1994 -0.0632  0.0922
  967POPC   C2B11602   6.544   7.041  11.805 -0.2470 -0.1776 -0.0233
  967POPC   C3B11603   6.677   6.601  11.696 -0.3323  0.1967 -0.0002
  967POPC   C4B11604   6.963   6.293  11.494 -0.0971 -0.0297  0.2887
  968POPC   NC311605  12.910   9.671  13.956 -0.2524 -0.0231 -0.3526
  968POPC   PO411606  12.931   9.351  13.708  0.3005  0.1110  0.0766
  968POPC   GL111607  12.543   9.261  13.666 -0.2029  0.1171 -0.1977
  968POPC   GL211608  12.669   8.944  13.704 -0.1231 -0.3515  0.0325
  968POPC   C1A11609  12.308   9.098  13.995 -0.0183 -0.0664 -0.4744
  968POPC   D2A11610  12.401   9.003  14.417  0.0290  0.0938  0.2310
  968POPC   C3A11611  11.980   8.867  14.593 -0.2476  0.1428 -0.2891
  968POPC   C4A11612  11.553   8.697  14.530 -0.1755 -0.3830 -0.0843
  968POPC   C1B11613  12.882   8.662  13.391  0.0731 -0.0470  0.0937
  968POPC   C2B11614  12.792   8.245  13.218  0.0707 -0.0377 -0.3320
  968POPC   C3B11615  12.708   7.807  13.345 -0.0012 -0.3638 -0.0270
  968POPC   C4B11616  12.532   7.433  13.568  0.1120  0.2388  0.1897
  969POPC   NC311617  15.279   8.250  15.848  0.0082 -0.1283  0.0639
  969POPC   PO411618  15.557   8.253  15.614  0.0441  0.2235  0.0148
  969POPC   GL111619  15.712   8.483  16.007  0.0629  0.2657  0.1909
  969POPC   GL211620  15.896   8.368  16.181  0.3421  0.2202 -0.1678
  969POPC   C1A11621  15.376   8.459  16.317 -0.2150 -0.0033  0.4436
  969POPC   D2A11622  15.003   8.432  16.574 -0.0724  0.2478 -0.1993
  969POPC   C3A11623  14.895   8.373  17.070 -0.5186  0.3057 -0.1251
  969POPC   C4A11624  14.654   8.200  17.336 -0.0640 -0.1466  0.2813
  969POPC   C1B11625  15.734   8.133  16.574 -0.1942  0.2424 -0.0334
  969POPC   C2B11626  15.916   7.717  16.774  0.3782 -0.1689 -0.0584
  969POPC   C3B11627  15.881   7.653  17.293  0.0450  0.1031 -0.2622
  969POPC   C4B11628  15.782   7.525  17.743  0.2304 -0.0783  0.1726
  970POPC   NC311629  11.281  14.390  15.570  0.1110 -0.1446 -0.1125
  970POPC   PO411630  11.605  14.362  15.832 -0.0242  0.1303  0.2336
  970POPC   GL111631  11.553  14.504  16.229  0.0467  0.0791  0.1138
  970POPC   GL211632  11.507  14.298  16.378 -0.1870  0.0429 -0.1983
  970POPC   C1A11633  11.402  14.976  16.324 -0.0019 -0.1128 -0.0617
  970POPC   D2A11634  11.282  15.352  16.559 -0.0920 -0.3398  0.0948
  970POPC   C3A11635  11.372  15.500  16.996  0.2935 -0.1930  0.0827
  970POPC   C4A11636  11.566  15.499  17.322  0.0541 -0.1921  0.0508
  970POPC   C1B11637  11.180  14.250  16.741 -0.4127 -0.1092  0.0849
  970POPC   C2B11638  11.007  14.333  17.175  0.0890 -0.2107  0.0971
  970POPC   C3B11639  10.843  14.373  17.626 -0.1311 -0.2215  0.2406
  970POPC   C4B11640  10.931  14.486  18.105  0.3218 -0.0286 -0.3269
  971POPC   NC311641  12.457  14.117  16.470  0.2029 -0.0890  0.0668
  971POPC   PO411642  12.834  14.096  16.429 -0.1261  0.2178  0.1788
  971POPC   GL111643  13.025  14.115  16.790 -0.5226  0.2901 -0.2680
  971POPC   GL211644  13.185  14.323  16.757 -0.3942  0.2131  0.0043
  971POPC   C1A11645  13.168  13.917  17.158 -0.0645 -0.0110 -0.0120
  971POPC   D2A11646  13.424  14.107  17.482  0.1361 -0.1913 -0.0841
  971POPC   C3A11647  13.489  14.082  17.972  0.2212 -0.0663  0.1444
  971POPC   C4A11648  13.534  14.018  18.438 -0.0644  0.0106  0.0219
  971POPC   C1B11649  13.012  14.435  17.206  0.2159  0.0951 -0.6285
  971POPC   C2B11650  12.798  14.378  17.625  0.0148  0.2303 -0.2097
  971POPC   C3B11651  12.578  14.598  17.972 -0.0399  0.0282 -0.1168
  971POPC   C4B11652  12.546  14.721  18.420 -0.1388  0.0349 -0.2254
  972POPC   NC311653   1.303  10.884  16.409  0.0463  0.2451 -0.0436
  972POPC   PO411654   1.112  11.246  16.476  0.1597 -0.2042 -0.3236
  972POPC   GL111655   1.302  11.258  16.784  0.1922 -0.1980 -0.1224
  972POPC   GL211656   1.593  11.242  16.692 -0.0271  0.2298 -0.2317
  972POPC   C1A11657   1.313  11.222  17.211 -0.0470 -0.1511 -0.0079
  972POPC   D2A11658   1.625  11.214  17.528  0.0297 -0.0517 -0.1204
  972POPC   C3A11659   1.540  11.567  17.750 -0.0801  0.1649 -0.0673
  972POPC   C4A11660   1.578  11.808  18.131 -0.0737  0.2726 -0.0859
  972POPC   C1B11661   1.765  11.501  17.109 -0.2260  0.0763 -0.2111
  972POPC   C2B11662   1.803  11.937  17.212  0.0873  0.0753 -0.1573
  972POPC   C3B11663   1.499  12.286  17.234  0.0197  0.1537 -0.0770
  972POPC   C4B11664   1.127  12.432  17.405 -0.0202 -0.1403 -0.3674
  973POPC   NC311665   0.406  10.356  16.423  0.1073 -0.2912  0.0328
  973POPC   PO411666   0.021  10.387  16.403  0.1738 -0.0443 -0.0195
  973POPC   GL111667  -0.177  10.469  16.830 -0.0767  0.2195 -0.0620
  973POPC   GL211668   0.043  10.365  16.896 -0.5732 -0.2134  0.1340
  973POPC   C1A11669  -0.409  10.744  17.107  0.2143  0.0532 -0.1464
  973POPC   D2A11670  -0.786  10.986  17.221  0.1304 -0.0518 -0.1367
  973POPC   C3A11671  -0.787  11.185  17.669  0.0833 -0.0614 -0.0916
  973POPC   C4A11672  -0.552  11.095  18.041  0.3464 -0.1808  0.0024
  973POPC   C1B11673  -0.014  10.461  17.319  0.2180 -0.0807  0.0730
  973POPC   C2B11674   0.109  10.611  17.739  0.3423  0.0684 -0.0736
  973POPC   C3B11675   0.172  10.637  18.221  0.1513 -0.0473 -0.0623
  973POPC   C4B11676   0.216  10.486  18.691 -0.0954  0.1347 -0.2288
  974POPC   NC311677  16.177   9.618  16.122 -0.1614  0.0867  0.1182
  974POPC   PO411678  16.505   9.372  16.191  0.2742 -0.1979 -0.0085
  974POPC   GL111679  16.469   9.461  16.626 -0.1678 -0.2323  0.2062
  974POPC   GL211680  16.289   9.618  16.686  0.0625 -0.2288 -0.0725
  974POPC   C1A11681  16.742   9.446  16.965 -0.1584 -0.0906 -0.3963
  974POPC   D2A11682  16.743   9.505  17.474  0.1904  0.2375 -0.2296
  974POPC   C3A11683  17.084   9.789  17.579 -0.1531  0.0038  0.0621
  974POPC   C4A11684  17.225  10.045  17.923 -0.2345  0.1676 -0.2274
  974POPC   C1B11685  16.215   9.385  17.053  0.0446 -0.1409 -0.0011
  974POPC   C2B11686  15.860   9.306  17.405  0.0708 -0.1299  0.0085
  974POPC   C3B11687  15.630   9.356  17.784  0.1198  0.2085 -0.3585
  974POPC   C4B11688  15.493   9.331  18.247 -0.1463  0.0080  0.0203
  975POPC   NC311689  12.086  13.148  16.819 -0.0032  0.0850  0.1808
  975POPC   PO411690  11.861  13.388  16.586  0.5570 -0.1559 -0.3150
  975POPC   GL111691  11.972  13.594  16.918  0.1964 -0.3043 -0.0091
  975POPC   GL211692  11.698  13.530  17.039  0.1744 -0.2677  0.2485
  975POPC   C1A11693  11.922  13.915  17.278  0.1485 -0.1194 -0.3183
  975POPC   D2A11694  11.835  13.999  17.743  0.0559  0.1921  0.0590
  975POPC   C3A11695  12.065  13.884  18.075  0.2801  0.3871 -0.2377
  975POPC   C4A11696  12.148  13.727  18.468  0.0153 -0.1589  0.1456
  975POPC   C1B11697  11.538  13.482  17.430 -0.1737 -0.0868 -0.0831
  975POPC   C2B11698  11.665  13.280  17.859  0.0464  0.1101 -0.1031
  975POPC   C3B11699  11.458  12.998  18.181 -0.0943 -0.0538 -0.0474
  975POPC   C4B11700  11.038  12.976  18.313  0.3536 -0.2042 -0.0720
  976POPC   NC311701   3.388   0.574  15.789  0.0755 -0.1073  0.5032
  976POPC   PO411702   3.514   0.831  15.547 -0.1761 -0.0221  0.0650
  976POPC   GL111703   3.606   0.930  15.959 -0.2697 -0.0000 -0.0226
  976POPC   GL211704   3.697   0.749  16.141  0.1993 -0.2546  0.2201
  976POPC   C1A11705   3.988   1.154  16.042  0.2120 -0.3378 -0.0449
  976POPC   D2A11706   4.315   1.404  15.911  0.3062 -0.0837  0.0868
  976POPC   C3A11707   4.544   1.614  16.288  0.2233  0.2010  0.0849
  976POPC   C4A11708   4.589   1.474  16.729  0.1130 -0.3919  0.0984
  976POPC   C1B11709   3.917   0.884  16.498 -0.1419 -0.1807 -0.1019
  976POPC   C2B11710   4.283   0.753  16.748  0.0852  0.3837  0.0724
  976POPC   C3B11711   4.285   0.559  17.132 -0.1311  0.0613 -0.2712
  976POPC   C4B11712   4.579   0.458  17.516 -0.0837 -0.1197  0.2920
  977POPC   NC311713  11.709  10.379  11.199 -0.1205 -0.0542  0.1538
  977POPC   PO411714  11.673  10.270  11.544  0.0567  0.1091  0.1840
  977POPC   GL111715  11.704   9.966  11.373  0.0236  0.2084 -0.2992
  977POPC   GL211716  11.615   9.922  11.068  0.0124 -0.0999  0.0714
  977POPC   C1A11717  11.495   9.578  11.516 -0.2113 -0.0559  0.2494
  977POPC   D2A11718  11.545   9.131  11.487 -0.0742 -0.0355  0.0220
  977POPC   C3A11719  11.566   8.918  11.148  0.0685  0.1071  0.2328
  977POPC   C4A11720  11.204   8.762  10.884  0.0878 -0.1927 -0.1717
  977POPC   C1B11721  11.533   9.519  10.930  0.0084  0.0397  0.0151
  977POPC   C2B11722  11.188   9.311  10.707  0.2649 -0.2565  0.1551
  977POPC   C3B11723  10.950   8.963  10.491  0.0787 -0.1193 -0.3495
  977POPC   C4B11724  10.813   8.495  10.607  0.0491 -0.2495 -0.0952
  978POPC   NC311725  12.903  14.367  15.996 -0.1527 -0.1145  0.0426
  978POPC   PO411726  13.208  14.495  16.218  0.0243  0.0836 -0.2014
  978POPC   GL111727  13.015  14.665  16.473 -0.0555 -0.1458 -0.3615
  978POPC   GL211728  12.753  14.585  16.475  0.1505 -0.2412 -0.0267
  978POPC   C1A11729  13.077  14.932  16.838  0.0868  0.2471 -0.2143
  978POPC   D2A11730  12.924  14.923  17.274  0.1086 -0.2010  0.1277
  978POPC   C3A11731  12.938  14.945  17.731  0.0750 -0.1000  0.2299
  978POPC   C4A11732  13.190  14.635  17.991  0.0163  0.0819  0.2272
  978POPC   C1B11733  12.659  14.628  16.922 -0.1206 -0.1911 -0.0840
  978POPC   C2B11734  12.423  14.771  17.301  0.1654 -0.4564  0.0414
  978POPC   C3B11735  12.406  15.101  17.581 -0.1537 -0.4192  0.0405
  978POPC   C4B11736  12.246  15.540  17.715 -0.1748 -0.0485  0.2701
  979POPC   NC311737  16.238  10.828  16.495  0.1357  0.1275 -0.1462
  979POPC   PO411738  15.907  10.559  16.472 -0.0437 -0.1370  0.0100
  979POPC   GL111739  15.702  10.374  16.779 -0.4989 -0.1845  0.2595
  979POPC   GL211740  15.606  10.555  16.909  0.1145  0.0688 -0.1242
  979POPC   C1A11741  15.924  10.169  17.136 -0.0902 -0.2386 -0.1144
  979POPC   D2A11742  15.994  10.327  17.577 -0.4080 -0.0679  0.2769
  979POPC   C3A11743  16.219  10.140  17.961  0.0102 -0.3387  0.2669
  979POPC   C4A11744  16.155   9.887  18.381 -0.2732  0.0414  0.3697
  979POPC   C1B11745  15.492  10.399  17.344  0.2174  0.1219  0.1006
  979POPC   C2B11746  15.261  10.280  17.671  0.2876 -0.0614  0.0968
  979POPC   C3B11747  14.958   9.932  17.828 -0.0675 -0.1358  0.0866
  979POPC   C4B11748  15.000   9.548  18.033  0.3042 -0.4527 -0.0379
  980POPC   NC311749  16.327   3.405  15.260  0.2071  0.0281 -0.1135
  980POPC   PO411750  16.174   3.119  15.523  0.2335  0.1465  0.0454
  980POPC   GL111751  16.285   3.170  15.866 -0.0899 -0.1966  0.2551
  980POPC   GL211752  16.462   2.901  15.862  0.1715 -0.2625  0.0300
  980POPC   C1A11753  16.217   3.200  16.308 -0.0598  0.0390 -0.1423
  980POPC   D2A11754  16.112   3.174  16.708 -0.2109 -0.1260  0.4398
  980POPC   C3A11755  16.299   2.940  17.027  0.0027 -0.2046 -0.2758
  980POPC   C4A11756  16.618   2.885  17.297 -0.4009 -0.2100 -0.0476
  980POPC   C1B11757  16.206   2.668  16.133  0.2964 -0.1207 -0.0468
  980POPC   C2B11758  15.996   2.471  16.558 -0.1196 -0.1034  0.3273
  980POPC   C3B11759  16.020   2.494  17.000  0.2308  0.2840 -0.3405
  980POPC   C4B11760  15.967   2.478  17.448  0.0960 -0.1071  0.0309
  981POPC   NC311761   4.966   0.070  15.601  0.1657  0.0269  0.1123
  981POPC   PO411762   5.116   0.246  15.280  0.0113  0.0817 -0.0046
  981POPC   GL111763   5.405   0.136  15.485  0.1090 -0.0299  0.3521
  981POPC   GL211764   5.685   0.236  15.411 -0.2146 -0.2879  0.2397
  981POPC   C1A11765   5.492   0.233  15.896  0.2355 -0.0516  0.2016
  981POPC   D2A11766   5.680   0.424  16.250  0.1111 -0.2337  0.0530
  981POPC   C3A11767   5.571   0.840  16.405 -0.1329 -0.3440 -0.1039
  981POPC   C4A11768   5.469   1.209  16.671 -0.0044  0.2451  0.0573
  981POPC   C1B11769   5.929   0.489  15.737  0.1608  0.1103  0.0562
  981POPC   C2B11770   6.143   0.621  16.145 -0.3343 -0.2446  0.2042
  981POPC   C3B11771   6.059   0.799  16.547 -0.0541 -0.0520 -0.1405
  981POPC   C4B11772   6.143   0.586  16.978  0.0192 -0.1403  0.2936
  982POPC   NC311773   4.159  14.743  16.540 -0.1026  0.0505  0.1781
  982POPC   PO411774   4.079  15.083  16.447  0.0865  0.3716 -0.3738
  982POPC   GL111775   4.081  15.195  16.826  0.1175  0.1654  0.1022
  982POPC   GL211776   4.294  15.110  16.899  0.0491 -0.0473  0.2544
  982POPC   C1A11777   4.030  15.516  17.173 -0.1470 -0.0555 -0.0218
  982POPC   D2A11778   4.260  15.623  17.549  0.1453 -0.2436 -0.1526
  982POPC   C3A11779   4.477  15.325  17.750  0.1145 -0.0944 -0.0072
  982POPC   C4A11780   4.562  14.980  18.091  0.3193 -0.1020  0.2107
  982POPC   C1B11781   4.181  15.089  17.329 -0.0116  0.0187 -0.0258
  982POPC   C2B11782   3.910  15.248  17.732  0.0841 -0.1072 -0.2241
  982POPC   C3B11783   3.557  15.294  18.067  0.2381  0.1918 -0.2039
  982POPC   C4B11784   3.166  14.992  18.076  0.1426 -0.1332  0.0464
  983POPC   NC311785  13.444  11.489  16.588 -0.2408 -0.0219  0.1995
  983POPC   PO411786  13.614  11.803  16.429 -0.1270  0.1833 -0.0878
  983POPC   GL111787  13.768  11.774  16.767  0.1571 -0.0861  0.1202
  983POPC   GL211788  13.889  11.863  16.960  0.0124  0.1628 -0.2582
  983POPC   C1A11789  13.501  11.548  17.101  0.1153 -0.4744 -0.1029
  983POPC   D2A11790  13.481  11.690  17.519 -0.2067 -0.4001 -0.0552
  983POPC   C3A11791  13.518  11.344  17.806  0.3764 -0.2980  0.1222
  983POPC   C4A11792  13.302  10.896  17.730 -0.1477  0.2208 -0.2520
  983POPC   C1B11793  14.013  11.740  17.376  0.0363  0.0037  0.1809
  983POPC   C2B11794  13.894  11.757  17.825  0.1821 -0.1613 -0.2101
  983POPC   C3B11795  13.855  11.524  18.228  0.0665 -0.0757 -0.3090
  983POPC   C4B11796  13.985  11.227  18.564 -0.0815 -0.3835  0.2211
  984POPC   NC311797  11.088  10.565  10.736  0.1316  0.2238 -0.1992
  984POPC   PO411798  11.136  10.536  11.119 -0.1750  0.3913  0.1840
  984POPC   GL111799  11.180  10.119  11.036 -0.2916  0.2021  0.2317
  984POPC   GL211800  11.154  10.023  11.312 -0.2209 -0.2264  0.1401
  984POPC   C1A11801  11.191   9.823  10.660  0.2682  0.0354 -0.1445
  984POPC   D2A11802  11.368   9.721  10.208 -0.0876  0.0212  0.0119
  984POPC   C3A11803  11.295   9.254  10.209 -0.0252  0.1256  0.1454
  984POPC   C4A11804  11.147   8.847  10.098 -0.0897 -0.3022  0.2302
  984POPC   C1B11805  11.076   9.560  11.161 -0.0340  0.0385  0.0062
  984POPC   C2B11806  11.034   9.135  11.217  0.0425  0.2088 -0.0446
  984POPC   C3B11807  11.163   8.748  11.438 -0.2881 -0.2660 -0.1038
  984POPC   C4B11808  11.285   8.305  11.308  0.1386 -0.1218 -0.0992
  985POPC   NC311809   6.226   2.279  14.033  0.2330 -0.2129 -0.1342
  985POPC   PO411810   6.158   1.998  14.331  0.1510  0.1174 -0.2742
  985POPC   GL111811   6.501   2.164  14.477 -0.0409 -0.2825 -0.0671
  985POPC   GL211812   6.636   1.937  14.558  0.4967  0.2004 -0.3867
  985POPC   C1A11813   6.744   2.538  14.736 -0.4316 -0.0555  0.3115
  985POPC   D2A11814   6.790   2.895  15.010 -0.1620 -0.1995  0.2647
  985POPC   C3A11815   6.502   2.830  15.366  0.1169  0.1263  0.0754
  985POPC   C4A11816   6.521   2.928  15.837  0.2071 -0.0671  0.0343
  985POPC   C1B11817   6.878   2.045  14.907 -0.0215 -0.1394 -0.0020
  985POPC   C2B11818   6.814   2.431  15.198  0.0230 -0.0614  0.0042
  985POPC   C3B11819   7.040   2.766  15.423 -0.0186 -0.0164  0.0648
  985POPC   C4B11820   7.088   3.224  15.520  0.2231 -0.2109  0.3025
  986POPC   NC311821   3.032   4.601  15.098  0.2325 -0.1377  0.0569
  986POPC   PO411822   2.952   4.227  15.133  0.2861 -0.1381  0.2650
  986POPC   GL111823   3.195   4.208  15.392  0.0542  0.0774 -0.0160
  986POPC   GL211824   2.983   4.189  15.615 -0.2855  0.2671  0.0496
  986POPC   C1A11825   3.191   4.633  15.593 -0.5608 -0.0087  0.0687
  986POPC   D2A11826   3.593   4.877  15.685  0.0984  0.1066  0.3281
  986POPC   C3A11827   3.855   5.049  16.138  0.3634  0.4788  0.0073
  986POPC   C4A11828   4.040   4.767  16.440 -0.2860 -0.0003  0.1488
  986POPC   C1B11829   3.059   4.271  16.048 -0.1829 -0.0989 -0.0922
  986POPC   C2B11830   3.148   4.650  16.359  0.2954 -0.1632  0.0465
  986POPC   C3B11831   3.185   4.776  16.758 -0.2741 -0.3337  0.4467
  986POPC   C4B11832   2.983   4.781  17.147 -0.1311  0.2825 -0.0793
  987POPC   NC311833   3.974  10.120   9.211  0.0120  0.2215 -0.0395
  987POPC   PO411834   3.625  10.118   9.057 -0.2693 -0.1069  0.1424
  987POPC   GL111835   3.689  10.076   8.571  0.0558 -0.1577  0.1916
  987POPC   GL211836   3.807  10.359   8.423  0.1474  0.1507  0.0855
  987POPC   C1A11837   3.422  10.153   8.155  0.1038 -0.1935 -0.0514
  987POPC   D2A11838   3.120  10.048   7.840 -0.4544  0.0279 -0.1169
  987POPC   C3A11839   3.008  10.288   7.481  0.0895 -0.1306 -0.2194
  987POPC   C4A11840   2.740  10.602   7.344 -0.0867  0.0649 -0.1425
  987POPC   C1B11841   4.050  10.064   8.156  0.0192 -0.2261  0.0736
  987POPC   C2B11842   4.062   9.950   7.682  0.2987  0.0705  0.0167
  987POPC   C3B11843   4.028   9.679   7.308 -0.0659  0.1444  0.1264
  987POPC   C4B11844   4.223   9.340   7.145 -0.1559 -0.0753 -0.0549
  988POPC   NC311845  14.489   5.532  14.588 -0.0728  0.1878 -0.0244
  988POPC   PO411846  14.522   5.909  14.709  0.0008 -0.0875 -0.0455
  988POPC   GL111847  14.417   5.729  15.017 -0.0094 -0.0045 -0.3319
  988POPC   GL211848  14.568   5.866  15.239  0.0553 -0.1982 -0.0670
  988POPC   C1A11849  14.006   5.748  15.275 -0.0739 -0.4160  0.0844
  988POPC   D2A11850  13.667   6.103  15.221  0.0299  0.1741  0.2131
  988POPC   C3A11851  13.239   5.989  15.311  0.2459  0.2708  0.0899
  988POPC   C4A11852  13.033   6.028  15.712  0.0232 -0.1020 -0.0522
  988POPC   C1B11853  14.471   5.898  15.713 -0.1823  0.0252  0.0380
  988POPC   C2B11854  14.308   5.919  16.155  0.1755 -0.1793  0.0797
  988POPC   C3B11855  14.199   5.597  16.523  0.0236 -0.0465 -0.1055
  988POPC   C4B11856  14.197   5.395  16.925 -0.0818 -0.0396  0.0425
  989POPC   NC311857  12.473  11.071  10.210  0.3543  0.3045  0.1720
  989POPC   PO411858  12.435  10.715  10.328 -0.0868  0.1133 -0.2030
  989POPC   GL111859  12.473  10.325  10.156  0.1654 -0.0657  0.1423
  989POPC   GL211860  12.448  10.114  10.388  0.4701  0.0177  0.0403
  989POPC   C1A11861  12.206   9.945  10.012  0.2076 -0.0339  0.0112
  989POPC   D2A11862  11.854   9.641  10.037 -0.1993 -0.2397 -0.1584
  989POPC   C3A11863  11.496   9.584   9.759 -0.2183  0.1327 -0.2306
  989POPC   C4A11864  11.090   9.390   9.737  0.0839 -0.0602 -0.0301
  989POPC   C1B11865  12.247   9.691  10.401  0.3161  0.2353 -0.0207
  989POPC   C2B11866  12.087   9.272  10.213 -0.1436 -0.3149 -0.0432
  989POPC   C3B11867  11.951   8.821  10.192 -0.0226  0.0382 -0.1188
  989POPC   C4B11868  11.825   8.537   9.811  0.0836 -0.1349 -0.1206
  990POPC   NC311869   1.686  14.069  16.327 -0.0081 -0.0224 -0.0989
  990POPC   PO411870   1.679  13.830  16.633 -0.1323 -0.0140 -0.0468
  990POPC   GL111871   1.628  13.798  17.093  0.1627  0.0268  0.2111
  990POPC   GL211872   1.703  14.043  17.253  0.0573  0.3152 -0.0387
  990POPC   C1A11873   1.864  13.541  17.386 -0.0655  0.2311 -0.0241
  990POPC   D2A11874   1.906  13.564  17.872 -0.3709 -0.0270  0.0340
  990POPC   C3A11875   1.706  13.261  18.131 -0.3104 -0.0796  0.4460
  990POPC   C4A11876   1.413  12.872  18.207  0.3704 -0.2952  0.5258
  990POPC   C1B11877   1.563  13.913  17.682 -0.1835  0.0982 -0.3694
  990POPC   C2B11878   1.282  14.071  18.012  0.0622 -0.1804  0.0301
  990POPC   C3B11879   0.900  14.095  18.223  0.1012 -0.0980  0.1832
  990POPC   C4B11880   0.712  14.055  18.631  0.4054 -0.0186  0.2371
  991POPC   NC311881   9.257  12.461  16.364  0.0604 -0.0121 -0.2169
  991POPC   PO411882   9.451  12.113  16.398  0.2310  0.2596  0.0500
  991POPC   GL111883   9.284  12.174  16.787  0.0491 -0.4423  0.0642
  991POPC   GL211884   9.500  11.958  16.889  0.2613  0.0747  0.4731
  991POPC   C1A11885   9.020  12.034  17.125  0.1205  0.2733  0.0017
  991POPC   D2A11886   8.955  11.952  17.613  0.0728 -0.0938  0.0166
  991POPC   C3A11887   9.303  11.776  17.875 -0.1425 -0.0439  0.1245
  991POPC   C4A11888   9.761  11.865  17.958  0.1628 -0.0468 -0.1745
  991POPC   C1B11889   9.795  11.561  16.925 -0.1386 -0.0527  0.0052
  991POPC   C2B11890   9.586  11.280  17.192  0.0197 -0.0190 -0.1917
  991POPC   C3B11891   9.523  10.936  17.569 -0.2961  0.2866  0.0149
  991POPC   C4B11892   9.594  10.720  17.939  0.1027 -0.0817  0.0478
  992POPC   NC311893  15.114  11.989  16.144 -0.0756 -0.0726 -0.1200
  992POPC   PO411894  15.188  12.301  16.406 -0.0588 -0.2970  0.2249
  992POPC   GL111895  15.307  12.323  16.770 -0.2008  0.2901 -0.0192
  992POPC   GL211896  15.122  12.480  16.859  0.0200 -0.1891 -0.4379
  992POPC   C1A11897  15.434  12.111  17.181 -0.0914 -0.1813  0.1050
  992POPC   D2A11898  15.331  11.792  17.520  0.1343  0.1546  0.1065
  992POPC   C3A11899  15.390  11.571  17.920 -0.0699  0.0470 -0.0700
  992POPC   C4A11900  15.389  11.078  18.112 -0.0118 -0.0828 -0.1424
  992POPC   C1B11901  15.061  12.453  17.316 -0.1284  0.0223  0.0752
  992POPC   C2B11902  15.109  12.343  17.751 -0.0123  0.1455 -0.1393
  992POPC   C3B11903  14.905  12.367  18.149 -0.1332 -0.1026 -0.0554
  992POPC   C4B11904  15.060  12.305  18.593  0.0348 -0.1860 -0.4400
  993POPC   NC311905   1.920  14.915  16.503  0.0534 -0.1412 -0.1762
  993POPC   PO411906   2.070  15.277  16.550  0.2384  0.0529  0.3042
  993POPC   GL111907   1.933  15.478  16.815 -0.2482  0.4055  0.2054
  993POPC   GL211908   2.093  15.749  16.844 -0.1629 -0.1335 -0.0976
  993POPC   C1A11909   1.777  15.681  17.219 -0.1969  0.1799 -0.1172
  993POPC   D2A11910   1.572  15.914  17.665 -0.0841  0.0440  0.1780
  993POPC   C3A11911   1.619  15.820  18.104 -0.0029 -0.2941  0.3976
  993POPC   C4A11912   1.453  15.600  18.473  0.0631  0.3228 -0.0123
  993POPC   C1B11913   2.177  16.015  17.192  0.1703 -0.0618 -0.2052
  993POPC   C2B11914   2.142  16.073  17.627 -0.1395 -0.1282 -0.2946
  993POPC   C3B11915   2.466  16.207  17.972  0.4939  0.1884 -0.3176
  993POPC   C4B11916   2.484  16.341  18.381 -0.0199 -0.0299  0.2362
  994POPC   NC311917  13.080  32.782  15.464  0.0370  0.1521  0.3086
  994POPC   PO411918  13.159  32.571  15.779  0.0862 -0.4872 -0.0502
  994POPC   GL111919  13.325  32.527  16.136 -0.2983 -0.2864 -0.2690
  994POPC   GL211920  13.077  32.338  16.338 -0.1412 -0.1443 -0.0540
  994POPC   C1A11921  13.267  32.783  16.543 -0.1493 -0.3247 -0.0882
  994POPC   D2A11922  13.480  32.905  16.865  0.1259  0.0185  0.0133
  994POPC   C3A11923  13.565  33.024  17.332 -0.0502  0.2587 -0.1308
  994POPC   C4A11924  13.629  33.090  17.794  0.0375  0.0242  0.1650
  994POPC   C1B11925  12.860  32.589  16.656  0.4200  0.0049 -0.1657
  994POPC   C2B11926  13.012  32.813  17.015 -0.4161  0.3260 -0.0258
  994POPC   C3B11927  13.134  33.265  17.031 -0.0265 -0.0156 -0.0127
  994POPC   C4B11928  13.391  33.609  17.284 -0.1816  0.2783  0.0550
  995POPC   NC311929  10.187  10.141  12.583 -0.0541 -0.2074  0.2725
  995POPC   PO411930   9.829  10.266  12.666 -0.2978  0.2368 -0.5350
  995POPC   GL111931   9.815   9.877  12.695  0.0859  0.0523 -0.0525
  995POPC   GL211932   9.681   9.882  12.391  0.1453  0.4074 -0.3064
  995POPC   C1A11933   9.867   9.434  12.630 -0.1903 -0.0775  0.3893
  995POPC   D2A11934  10.046   9.149  12.273 -0.0377  0.0403 -0.0142
  995POPC   C3A11935   9.901   8.742  12.369 -0.1603 -0.1135  0.0204
  995POPC   C4A11936   9.819   8.276  12.240  0.1197  0.2830 -0.1898
  995POPC   C1B11937   9.542   9.437  12.246  0.1060  0.1498 -0.1473
  995POPC   C2B11938   9.471   9.027  12.503 -0.0859  0.0269  0.0211
  995POPC   C3B11939   9.461   8.587  12.435  0.1393  0.1028 -0.1711
  995POPC   C4B11940   9.377   8.128  12.534 -0.0644  0.1098 -0.0731
  996POPC   NC311941   1.202  10.146  16.227 -0.1730 -0.1208  0.2029
  996POPC   PO411942   1.094  10.428  16.486 -0.0589 -0.1923  0.2246
  996POPC   GL111943   1.159  10.128  16.766  0.1405  0.2858  0.1363
  996POPC   GL211944   1.482  10.109  16.691  0.2830  0.2371  0.1595
  996POPC   C1A11945   1.182   9.759  17.067  0.4693  0.2758 -0.4047
  996POPC   D2A11946   1.366   9.558  17.500  0.1336  0.2517 -0.3200
  996POPC   C3A11947   1.713   9.450  17.705 -0.1968  0.1239 -0.0480
  996POPC   C4A11948   1.793   9.009  17.872  0.1614  0.4109 -0.3226
  996POPC   C1B11949   1.709   9.862  17.003  0.2645 -0.1535  0.0277
  996POPC   C2B11950   1.870   9.516  17.263  0.0093  0.2697  0.4295
  996POPC   C3B11951   2.019   9.088  17.422  0.4257  0.0202 -0.5767
  996POPC   C4B11952   2.012   8.674  17.618  0.1263  0.0836  0.1005
  997POPC   NC311953   9.224  11.017  10.568 -0.0795  0.1519  0.2318
  997POPC   PO411954   9.465  10.855  10.830  0.0823 -0.2271  0.1123
  997POPC   GL111955   9.406  10.477  10.652 -0.4110 -0.0080 -0.2286
  997POPC   GL211956   9.286  10.541  10.443 -0.0834 -0.1818 -0.2712
  997POPC   C1A11957   9.601  10.042  10.618 -0.0517  0.0791  0.1057
  997POPC   D2A11958   9.859   9.694  10.568 -0.0738 -0.0064  0.2218
  997POPC   C3A11959   9.570   9.366  10.573  0.4264  0.1061 -0.0382
  997POPC   C4A11960   9.080   9.226  10.632  0.0749 -0.3587 -0.3055
  997POPC   C1B11961   9.392  10.165  10.194 -0.0550 -0.0768 -0.3147
  997POPC   C2B11962   9.547   9.771  10.112 -0.1059  0.2513  0.3007
  997POPC   C3B11963   9.614   9.316  10.090 -0.3773  0.2559  0.2873
  997POPC   C4B11964   9.675   8.997   9.803  0.0643  0.1520 -0.1465
  998POPC   NC311965  15.597   1.497  15.672 -0.1866 -0.1314 -0.1576
  998POPC   PO411966  15.269   1.390  15.825  0.0432  0.0258  0.0589
  998POPC   GL111967  15.322   1.402  16.208 -0.1353  0.0567 -0.2792
  998POPC   GL211968  15.004   1.576  16.185  0.0044 -0.1511  0.1074
  998POPC   C1A11969  15.445   1.574  16.586  0.1072  0.1235  0.0135
  998POPC   D2A11970  15.286   1.708  16.997 -0.1475  0.3054  0.0180
  998POPC   C3A11971  15.380   1.422  17.344 -0.0507 -0.1040 -0.1453
  998POPC   C4A11972  15.421   1.625  17.754  0.2270  0.2318 -0.1595
  998POPC   C1B11973  14.950   1.756  16.649  0.1284  0.0462 -0.2860
  998POPC   C2B11974  14.901   2.017  17.030 -0.3099  0.2019 -0.0328
  998POPC   C3B11975  14.853   2.345  17.404  0.0127  0.1076 -0.3911
  998POPC   C4B11976  14.567   2.707  17.615  0.2633 -0.1664  0.0772
  999POPC   NC311977   3.742   5.842  15.178  0.1186  0.0887 -0.1035
  999POPC   PO411978   3.647   5.512  14.986  0.0135  0.1621 -0.3124
  999POPC   GL111979   3.588   5.180  15.280  0.2988 -0.0077 -0.2257
  999POPC   GL211980   3.880   5.043  15.221 -0.1812  0.1950 -0.3223
  999POPC   C1A11981   3.827   5.316  15.678  0.1536  0.0924  0.0661
  999POPC   D2A11982   4.006   5.522  16.041 -0.0737 -0.0490 -0.4237
  999POPC   C3A11983   4.028   5.347  16.522 -0.0792  0.0524  0.3209
  999POPC   C4A11984   4.193   5.454  16.890  0.0697 -0.0598  0.1155
  999POPC   C1B11985   4.130   4.853  15.543  0.0595 -0.0825 -0.0770
  999POPC   C2B11986   4.562   4.638  15.555  0.0477 -0.0796 -0.0681
  999POPC   C3B11987   4.794   4.588  15.967  0.0363 -0.0192  0.2394
  999POPC   C4B11988   5.096   4.794  16.205  0.1162  0.3262  0.2135
 1000POPC   NC311989  13.501   2.280  14.203  0.3856  0.1069 -0.0579
 1000POPC   PO411990  13.289   2.036  13.975 -0.1348  0.1064 -0.0919
 1000POPC   GL111991  13.028   2.353  14.133 -0.1331 -0.0131  0.3360
 1000POPC   GL211992  13.195   2.522  13.920 -0.1627  0.1481  0.1919
 1000POPC   C1A11993  12.658   2.380  14.341 -0.0071  0.0395 -0.5171
 1000POPC   D2A11994  12.215   2.462  14.407  0.0333 -0.2298 -0.1143
 1000POPC   C3A11995  12.073   2.886  14.332 -0.1186  0.0444 -0.1545
 1000POPC   C4A11996  11.730   3.147  14.354 -0.0171  0.1729  0.2086
 1000POPC   C1B11997  12.861   2.778  14.150 -0.0149 -0.0784  0.0980
 1000POPC   C2B11998  12.465   3.098  14.193 -0.0601  0.0526  0.0860
 1000POPC   C3B11999  12.237   3.431  13.965  0.0758  0.0153  0.0659
 1000POPC   C4B12000  11.912   3.541  13.618  0.1313 -0.0853 -0.0836
 1001POPC   NC312001   8.239  14.877  15.699 -0.3803 -0.3603 -0.4486
 1001POPC   PO412002   8.600  15.049  15.717 -0.1262  0.0899 -0.3092
 1001POPC   GL112003   8.523  15.078  16.169  0.1388 -0.1104 -0.0112
 1001POPC   GL212004   8.572  14.822  16.251  0.3512 -0.0641  0.0104
 1001POPC   C1A12005   8.543  15.503  16.266 -0.1900 -0.2527 -0.0392
 1001POPC   D2A12006   8.851  15.801  16.499 -0.0436 -0.2163 -0.1978
 1001POPC   C3A12007   9.047  15.687  16.921 -0.1212  0.2779 -0.0469
 1001POPC   C4A12008   9.330  15.779  17.315 -0.2543 -0.0041  0.1775
 1001POPC   C1B12009   8.436  15.114  16.621  0.1038 -0.0008 -0.0260
 1001POPC   C2B12010   8.529  15.548  16.778  0.1622  0.1922 -0.2564
 1001POPC   C3B12011   8.415  16.005  16.784  0.3086  0.0454 -0.2022
 1001POPC   C4B12012   8.255  16.421  16.560 -0.0784  0.1671 -0.0536
 1002POPC   NC312013   6.421   9.383  13.747 -0.5448 -0.0468 -0.1453
 1002POPC   PO412014   6.179   9.152  13.484  0.1322  0.4469 -0.3134
 1002POPC   GL112015   6.401   8.897  13.632 -0.1533 -0.1062  0.2585
 1002POPC   GL212016   6.361   8.945  13.959 -0.0869 -0.1977  0.2002
 1002POPC   C1A12017   6.822   8.664  13.600  0.1323 -0.2032  0.0107
 1002POPC   D2A12018   7.213   8.397  13.620  0.2163  0.1748 -0.1845
 1002POPC   C3A12019   7.622   8.144  13.593 -0.2426  0.1071  0.0486
 1002POPC   C4A12020   7.972   7.836  13.676 -0.1011 -0.1306 -0.4111
 1002POPC   C1B12021   6.453   8.627  14.275 -0.1190 -0.2563 -0.0624
 1002POPC   C2B12022   6.583   8.239  14.433 -0.0113 -0.0671  0.2160
 1002POPC   C3B12023   6.899   7.931  14.636  0.0029 -0.1467 -0.3094
 1002POPC   C4B12024   7.134   7.908  15.050 -0.0707  0.0967 -0.2599
 1003POPC   NC312025   5.807  15.773  16.174 -0.4573  0.0739 -0.0123
 1003POPC   PO412026   5.571  16.057  16.050  0.0504 -0.1667 -0.0827
 1003POPC   GL112027   5.675  15.996  16.531  0.2984  0.1048  0.4026
 1003POPC   GL212028   5.569  15.655  16.624 -0.0676  0.2317  0.2536
 1003POPC   C1A12029   5.805  16.334  16.792  0.0282 -0.1636 -0.0534
 1003POPC   D2A12030   6.056  16.560  17.192  0.2809  0.3735  0.2849
 1003POPC   C3A12031   5.838  16.867  17.491 -0.0315  0.0207 -0.6520
 1003POPC   C4A12032   5.774  17.278  17.730  0.1628 -0.0122  0.4231
 1003POPC   C1B12033   5.491  15.853  17.075 -0.1288  0.4237  0.2235
 1003POPC   C2B12034   5.335  15.820  17.564 -0.0576 -0.0455 -0.0491
 1003POPC   C3B12035   5.093  16.010  17.822  0.0288  0.2251 -0.2212
 1003POPC   C4B12036   5.251  16.206  18.192  0.1352  0.2349  0.2774
 1004POPC   NC312037  14.702   7.741  14.273  0.1145 -0.1339  0.2256
 1004POPC   PO412038  14.441   7.593  14.589 -0.0123  0.1438  0.0458
 1004POPC   GL112039  14.240   7.315  14.807  0.2533  0.0762  0.0779
 1004POPC   GL212040  14.262   7.221  15.072  0.0514  0.0597  0.1534
 1004POPC   C1A12041  13.821   7.084  14.860 -0.1727 -0.1045  0.1146
 1004POPC   D2A12042  13.394   7.134  14.768 -0.2039 -0.1297 -0.2791
 1004POPC   C3A12043  13.119   7.197  15.165 -0.2458  0.1701  0.0037
 1004POPC   C4A12044  12.898   6.985  15.510  0.1856 -0.0904 -0.0083
 1004POPC   C1B12045  14.065   7.204  15.507 -0.3436  0.0908  0.0619
 1004POPC   C2B12046  13.859   7.020  15.876  0.1749 -0.1126 -0.0721
 1004POPC   C3B12047  13.531   6.901  16.167 -0.4413  0.0066  0.0265
 1004POPC   C4B12048  13.291   7.034  16.467  0.1994 -0.0513  0.5067
 1005POPC   NC312049   9.408  10.616  11.552 -0.0381 -0.1169  0.0724
 1005POPC   PO412050   9.386  10.427  11.157  0.1494  0.0301 -0.0656
 1005POPC   GL112051   9.200  10.170  10.876 -0.0887  0.2070 -0.2217
 1005POPC   GL212052   9.027  10.051  11.089 -0.0438  0.1324 -0.0808
 1005POPC   C1A12053   8.805   9.988  10.657  0.2412  0.0278 -0.0588
 1005POPC   D2A12054   8.340   9.963  10.457  0.0598  0.0824 -0.2988
 1005POPC   C3A12055   8.097   9.514  10.575 -0.0023  0.1974 -0.3698
 1005POPC   C4A12056   8.208   9.118  10.367 -0.3511 -0.0581  0.1871
 1005POPC   C1B12057   8.954   9.643  11.257 -0.2073  0.2324 -0.1508
 1005POPC   C2B12058   8.938   9.224  11.225 -0.0740  0.0426  0.0792
 1005POPC   C3B12059   9.003   8.757  11.368  0.2915  0.2125  0.2868
 1005POPC   C4B12060   9.145   8.336  11.464  0.0889  0.0739  0.4584
 1006POPC   NC312061   4.796   7.439  12.897  0.1346  0.4329  0.1654
 1006POPC   PO412062   5.055   7.239  13.114  0.0192 -0.0014  0.1487
 1006POPC   GL112063   5.374   7.040  12.941  0.0440 -0.3048 -0.0172
 1006POPC   GL212064   5.542   7.283  13.035  0.2756 -0.0348  0.0889
 1006POPC   C1A12065   5.704   7.013  12.609 -0.3054  0.3292 -0.1143
 1006POPC   D2A12066   6.006   6.823  12.359  0.3323 -0.0879 -0.0037
 1006POPC   C3A12067   6.422   6.835  12.626 -0.2527 -0.1468  0.0439
 1006POPC   C4A12068   6.746   7.110  12.842 -0.3545  0.1813 -0.1212
 1006POPC   C1B12069   6.050   7.171  13.005 -0.0766 -0.1654 -0.0830
 1006POPC   C2B12070   6.427   7.207  13.286  0.0782  0.0862  0.1529
 1006POPC   C3B12071   6.893   7.266  13.274 -0.0149  0.1480  0.0674
 1006POPC   C4B12072   7.294   7.286  12.979  0.3259 -0.1318  0.4202
 1007POPC   NC312073   6.611  14.117  16.839  0.1434  0.2340  0.3747
 1007POPC   PO412074   6.378  14.159  16.524  0.0808 -0.1171  0.0091
 1007POPC   GL112075   6.200  14.366  16.708 -0.0315 -0.1313  0.1749
 1007POPC   GL212076   6.434  14.641  16.809  0.0868 -0.1161 -0.1115
 1007POPC   C1A12077   6.173  14.431  17.167 -0.2664 -0.1983  0.0774
 1007POPC   D2A12078   6.265  14.218  17.589 -0.1700  0.0171  0.2770
 1007POPC   C3A12079   6.602  14.459  17.852  0.2212  0.1298  0.4131
 1007POPC   C4A12080   6.631  14.894  17.975  0.0071 -0.1031  0.2721
 1007POPC   C1B12081   6.510  14.842  17.204 -0.1146 -0.0341 -0.0289
 1007POPC   C2B12082   6.225  14.787  17.574 -0.2315 -0.0162 -0.3375
 1007POPC   C3B12083   5.994  14.967  17.950  0.1606  0.0334  0.1469
 1007POPC   C4B12084   5.859  15.168  18.348  0.0191 -0.1718  0.3695
 1008POPC   NC312085  11.382  32.774  14.470 -0.1164 -0.0422 -0.2297
 1008POPC   PO412086  11.018  32.864  14.559  0.1650  0.1288 -0.2714
 1008POPC   GL112087  10.935  33.194  14.871 -0.4280 -0.0127  0.1162
 1008POPC   GL212088  10.873  33.045  15.011 -0.2053 -0.2242 -0.0149
 1008POPC   C1A12089  11.055  33.570  15.152 -0.1964 -0.0374 -0.0825
 1008POPC   D2A12090  11.109  33.951  15.418 -0.0849  0.0657 -0.0794
 1008POPC   C3A12091  11.179  34.337  15.561  0.0607  0.2118  0.0910
 1008POPC   C4A12092  11.025  34.773  15.679  0.0120 -0.1930  0.1710
 1008POPC   C1B12093  10.530  33.302  15.247  0.0355  0.1382  0.0957
 1008POPC   C2B12094  10.275  33.406  15.562  0.1564  0.2046  0.1028
 1008POPC   C3B12095  10.094  33.562  15.920 -0.2012  0.0127  0.0106
 1008POPC   C4B12096   9.820  33.845  16.095  0.4255 -0.1980  0.1825
 1009POPC   NC312097   0.060   0.207  16.208  0.0976 -0.0688 -0.1272
 1009POPC   PO412098   0.351   0.020  16.394 -0.0321 -0.1160  0.2493
 1009POPC   GL112099   0.189   0.265  16.676 -0.3168 -0.2988  0.0374
 1009POPC   GL212100   0.174   0.543  16.565  0.0044 -0.3490 -0.4451
 1009POPC   C1A12101   0.364   0.419  17.061  0.0482  0.3152 -0.2160
 1009POPC   D2A12102   0.437   0.388  17.523  0.2100  0.1155  0.0889
 1009POPC   C3A12103   0.849   0.395  17.708 -0.0070  0.2441  0.2911
 1009POPC   C4A12104   1.067   0.559  18.045  0.0374  0.0570 -0.0189
 1009POPC   C1B12105   0.161   0.910  16.862 -0.0765  0.0804  0.0006
 1009POPC   C2B12106   0.091   1.074  17.288 -0.2189 -0.2328  0.0751
 1009POPC   C3B12107  -0.077   1.330  17.631  0.0875 -0.1386 -0.0162
 1009POPC   C4B12108  -0.410   1.637  17.808  0.0014  0.1095 -0.1518
 1010POPC   NC312109   4.094   4.040  14.154 -0.1771  0.0673  0.1228
 1010POPC   PO412110   4.271   3.795  14.416 -0.2225 -0.0145 -0.0131
 1010POPC   GL112111   4.667   3.875  14.142 -0.0409 -0.1349 -0.1633
 1010POPC   GL212112   4.729   3.643  14.287  0.1731 -0.4154  0.0136
 1010POPC   C1A12113   5.001   4.180  13.975 -0.1637  0.2219  0.0057
 1010POPC   D2A12114   5.246   4.393  13.694  0.0297  0.2666  0.0684
 1010POPC   C3A12115   5.392   4.337  13.252  0.0357  0.0900 -0.4052
 1010POPC   C4A12116   5.572   3.964  13.043  0.1040 -0.1656 -0.2848
 1010POPC   C1B12117   5.126   3.883  14.354 -0.0306  0.1302 -0.1450
 1010POPC   C2B12118   5.453   3.917  14.691  0.2806 -0.1528 -0.0924
 1010POPC   C3B12119   5.791   3.969  14.950 -0.1382  0.0756 -0.2896
 1010POPC   C4B12120   6.109   4.285  15.135 -0.1191 -0.3844 -0.2543
 1011POPC   NC312121   9.518  13.264  16.445 -0.1549  0.2627  0.0309
 1011POPC   PO412122   9.639  12.874  16.401  0.1772  0.4266 -0.0285
 1011POPC   GL112123   9.846  12.949  16.754 -0.0971  0.0068  0.1712
 1011POPC   GL212124  10.004  12.726  16.838 -0.1396 -0.1334 -0.0047
 1011POPC   C1A12125   9.813  13.274  17.097 -0.3172 -0.0188 -0.2948
 1011POPC   D2A12126  10.140  13.363  17.426  0.1615 -0.0014  0.1153
 1011POPC   C3A12127  10.117  13.537  17.863  0.2274  0.0913  0.1305
 1011POPC   C4A12128   9.855  13.784  18.206  0.0854  0.0449  0.3134
 1011POPC   C1B12129   9.949  12.755  17.298 -0.5435  0.3400  0.0446
 1011POPC   C2B12130   9.761  13.105  17.614 -0.0598 -0.0279 -0.1952
 1011POPC   C3B12131   9.769  13.055  18.099 -0.2665 -0.0285  0.0520
 1011POPC   C4B12132   9.380  12.850  18.332 -0.0909 -0.1670 -0.4765
 1012POPC   NC312133   6.243   1.681  14.793 -0.2817  0.2683 -0.2050
 1012POPC   PO412134   6.304   1.378  14.549 -0.0792 -0.1910  0.0542
 1012POPC   GL112135   6.490   1.295  14.964 -0.0074 -0.2750 -0.6821
 1012POPC   GL212136   6.735   1.403  14.904 -0.0535 -0.2494 -0.1505
 1012POPC   C1A12137   6.547   1.252  15.423  0.1690  0.0052 -0.1375
 1012POPC   D2A12138   6.783   1.170  15.777 -0.0425  0.2314 -0.0147
 1012POPC   C3A12139   6.934   1.551  15.977  0.0238 -0.1839 -0.1321
 1012POPC   C4A12140   7.237   1.949  16.181  0.2731 -0.1297 -0.2997
 1012POPC   C1B12141   6.751   1.675  15.246 -0.1845  0.2126 -0.3611
 1012POPC   C2B12142   7.105   1.977  15.423  0.1141  0.1327 -0.3003
 1012POPC   C3B12143   7.347   2.240  15.208 -0.1127 -0.0342  0.2279
 1012POPC   C4B12144   7.633   2.351  14.901  0.1513 -0.1055  0.3114
 1013POPC   NC312145   4.148  10.161  16.050  0.1359  0.1203  0.0609
 1013POPC   PO412146   4.315  10.480  16.189  0.1028  0.0743 -0.2919
 1013POPC   GL112147   4.365  10.346  16.575 -0.0328 -0.2600 -0.0877
 1013POPC   GL212148   4.568  10.164  16.495 -0.1613  0.1969 -0.0404
 1013POPC   C1A12149   4.450  10.532  16.973 -0.0002 -0.3666 -0.1912
 1013POPC   D2A12150   4.299  10.662  17.392 -0.3998 -0.0029  0.2000
 1013POPC   C3A12151   4.084  10.439  17.751  0.0595 -0.0972  0.1260
 1013POPC   C4A12152   3.846  10.090  17.926  0.0549  0.0110  0.0265
 1013POPC   C1B12153   4.760  10.142  16.954 -0.1471  0.1131 -0.1226
 1013POPC   C2B12154   5.106  10.087  17.182  0.0067 -0.0410 -0.0269
 1013POPC   C3B12155   5.404   9.884  17.487 -0.5145 -0.2548  0.0393
 1013POPC   C4B12156   5.564   9.603  17.748 -0.1749  0.1832 -0.2204
 1014POPC   NC312157  10.100  10.560  13.993 -0.1290  0.2667  0.0646
 1014POPC   PO412158  10.268  10.557  13.634 -0.2586  0.0498  0.0388
 1014POPC   GL112159  10.358  10.166  13.642  0.0916  0.0647  0.1078
 1014POPC   GL212160  10.605   9.958  13.577 -0.1019  0.3025  0.0868
 1014POPC   C1A12161  10.096   9.870  13.386 -0.0418  0.4248  0.0218
 1014POPC   D2A12162   9.762   9.636  13.189 -0.2431  0.1807  0.3657
 1014POPC   C3A12163   9.672   9.209  13.058 -0.0968  0.1776  0.0837
 1014POPC   C4A12164   9.786   8.850  12.821  0.0111 -0.3451  0.2016
 1014POPC   C1B12165  10.577   9.624  13.875  0.2747 -0.1218  0.0464
 1014POPC   C2B12166  10.514   9.219  13.806  0.0365  0.0731  0.3892
 1014POPC   C3B12167  10.282   8.832  13.671  0.2534  0.0953  0.0081
 1014POPC   C4B12168  10.259   8.356  13.554  0.0572 -0.0619  0.1389
 1015POPC   NC312169   4.248   4.580  15.050 -0.3467  0.2949  0.1143
 1015POPC   PO412170   3.916   4.595  14.890  0.0556  0.1423  0.0760
 1015POPC   GL112171   3.838   4.539  15.343  0.3371  0.1025  0.0866
 1015POPC   GL212172   3.661   4.278  15.344  0.1546  0.0366 -0.0699
 1015POPC   C1A12173   4.165   4.296  15.630  0.2018 -0.3238 -0.1916
 1015POPC   D2A12174   4.449   4.133  15.955  0.0656  0.1396  0.1897
 1015POPC   C3A12175   4.494   4.361  16.361 -0.0239  0.0532  0.4667
 1015POPC   C4A12176   4.555   4.582  16.705  0.0471  0.0427 -0.1562
 1015POPC   C1B12177   3.684   4.397  15.731 -0.2091  0.2382  0.0292
 1015POPC   C2B12178   3.585   4.571  16.120  0.0832 -0.1811  0.1470
 1015POPC   C3B12179   3.618   4.462  16.532  0.5435  0.0184  0.0405
 1015POPC   C4B12180   3.654   4.105  16.828  0.2951 -0.0519  0.0766
 1016POPC   NC312181   4.012   0.851  15.625  0.2156  0.0871  0.1286
 1016POPC   PO412182   4.051   0.548  15.846  0.2669 -0.0666  0.0823
 1016POPC   GL112183   4.171   0.676  16.242  0.3578 -0.2938 -0.0875
 1016POPC   GL212184   4.264   0.406  16.332 -0.3012  0.0678 -0.0355
 1016POPC   C1A12185   4.332   1.145  16.405  0.4173  0.0275  0.2540
 1016POPC   D2A12186   4.157   1.297  16.832  0.0597  0.1366  0.2083
 1016POPC   C3A12187   4.175   1.198  17.298  0.2485 -0.1367  0.1377
 1016POPC   C4A12188   4.079   1.277  17.732 -0.0133  0.0094 -0.0434
 1016POPC   C1B12189   4.214   0.208  16.754  0.0642 -0.0689  0.2119
 1016POPC   C2B12190   4.445   0.109  17.105  0.1232  0.1095 -0.1151
 1016POPC   C3B12191   4.721  -0.054  17.472 -0.1252  0.0095  0.0315
 1016POPC   C4B12192   4.721   0.161  17.955  0.0184  0.3493  0.1108
 1017POPC   NC312193  13.233   8.817  14.856 -0.0424  0.3511  0.0372
 1017POPC   PO412194  13.020   8.990  14.567 -0.3284  0.0273  0.2018
 1017POPC   GL112195  12.934   8.620  14.551  0.1050 -0.1948  0.0257
 1017POPC   GL212196  12.674   8.541  14.588  0.0622 -0.1203 -0.0241
 1017POPC   C1A12197  12.883   8.247  14.858 -0.0210  0.2177 -0.0219
 1017POPC   D2A12198  12.647   7.939  15.141  0.1839 -0.0986  0.0204
 1017POPC   C3A12199  12.288   8.010  15.441  0.0549  0.0300  0.0626
 1017POPC   C4A12200  12.040   7.820  15.725  0.2998 -0.1384  0.1246
 1017POPC   C1B12201  12.291   8.396  14.557  0.1933 -0.2308  0.1674
 1017POPC   C2B12202  11.811   8.225  14.585 -0.1625  0.1335  0.2024
 1017POPC   C3B12203  11.481   7.958  14.457 -0.2292  0.0841 -0.0806
 1017POPC   C4B12204  11.212   7.618  14.145 -0.3176 -0.2557 -0.0318
 1018POPC   NC312205  12.897  10.415  10.185 -0.5513  0.2727  0.0209
 1018POPC   PO412206  13.027  10.085  10.369 -0.0537  0.2052  0.1200
 1018POPC   GL112207  12.768   9.884  10.177 -0.1803 -0.1492  0.3062
 1018POPC   GL212208  12.919   9.804   9.946  0.0604  0.1214 -0.2867
 1018POPC   C1A12209  12.535   9.476  10.105 -0.1618 -0.0742 -0.0676
 1018POPC   D2A12210  12.256   9.319   9.756 -0.0408 -0.0357  0.4051
 1018POPC   C3A12211  11.867   9.133   9.796 -0.0905 -0.1240 -0.0871
 1018POPC   C4A12212  11.498   8.922   9.798 -0.1106 -0.2269 -0.2703
 1018POPC   C1B12213  13.085   9.831   9.491 -0.2821 -0.2113  0.0179
 1018POPC   C2B12214  12.870   9.718   9.059  0.1190  0.0562 -0.0243
 1018POPC   C3B12215  12.852   9.540   8.652 -0.4869  0.0909 -0.4729
 1018POPC   C4B12216  13.089   9.354   8.238 -0.0920  0.0840 -0.1737
 1019POPC   NC312217  13.618   0.669   9.686 -0.1241 -0.1080 -0.1833
 1019POPC   PO412218  13.393   0.562   9.407  0.3273 -0.0468  0.2985
 1019POPC   GL112219  13.417   0.656   8.918  0.0412  0.0094  0.1964
 1019POPC   GL212220  13.570   0.931   8.768  0.2462 -0.5605  0.0055
 1019POPC   C1A12221  13.309   0.614   8.468  0.1172 -0.0778 -0.2346
 1019POPC   D2A12222  13.035   0.839   8.244  0.1092 -0.0864  0.0423
 1019POPC   C3A12223  13.126   1.190   7.972  0.1671  0.2548  0.3186
 1019POPC   C4A12224  13.511   1.441   7.946  0.2595  0.1421 -0.3197
 1019POPC   C1B12225  13.458   1.426   8.643 -0.3644  0.1272 -0.2017
 1019POPC   C2B12226  13.362   1.731   8.349  0.1493  0.0996  0.1672
 1019POPC   C3B12227  13.286   2.200   8.234  0.0362  0.0666  0.3219
 1019POPC   C4B12228  13.250   2.656   8.057 -0.1905 -0.0820  0.1192
 1020POPC   NC312229   2.492   9.406  16.397  0.3494  0.3197  0.1338
 1020POPC   PO412230   2.190   9.624  16.302 -0.0547 -0.3859 -0.2568
 1020POPC   GL112231   2.163   9.507  16.727 -0.2759 -0.0707 -0.0134
 1020POPC   GL212232   2.051   9.210  16.678 -0.1398 -0.2429 -0.1238
 1020POPC   C1A12233   2.349   9.306  17.113  0.2623 -0.1177 -0.2453
 1020POPC   D2A12234   2.575   9.188  17.540  0.0810 -0.1499  0.0952
 1020POPC   C3A12235   2.374   9.039  17.957 -0.1640  0.1132 -0.1508
 1020POPC   C4A12236   2.111   8.655  18.208 -0.0587  0.0442  0.0864
 1020POPC   C1B12237   2.156   8.872  16.994  0.2079  0.1011  0.0344
 1020POPC   C2B12238   2.386   8.698  17.352 -0.2275 -0.3735  0.0912
 1020POPC   C3B12239   2.444   8.512  17.757  0.0642  0.1465  0.2193
 1020POPC   C4B12240   2.570   8.426  18.174 -0.2457  0.0851 -0.0711
 1021POPC   NC312241   4.805   6.294  14.489 -0.1334  0.0363  0.1359
 1021POPC   PO412242   4.833   6.646  14.360 -0.2168  0.1293  0.3189
 1021POPC   GL112243   5.206   6.667  14.546  0.1825 -0.3443 -0.2251
 1021POPC   GL212244   5.141   6.518  14.845  0.0288 -0.0167 -0.0382
 1021POPC   C1A12245   5.547   6.825  14.827 -0.1782 -0.0256  0.1579
 1021POPC   D2A12246   5.964   6.762  15.070 -0.2152  0.2012 -0.3438
 1021POPC   C3A12247   6.122   6.354  14.989 -0.1472 -0.1994  0.3707
 1021POPC   C4A12248   6.223   5.840  15.028  0.3083 -0.0214  0.2175
 1021POPC   C1B12249   5.423   6.200  14.978  0.1856 -0.0994  0.1300
 1021POPC   C2B12250   5.802   6.009  15.259  0.2879  0.0415 -0.0286
 1021POPC   C3B12251   6.156   5.894  15.553  0.0312 -0.0012 -0.3037
 1021POPC   C4B12252   6.571   5.734  15.745 -0.1540  0.3812 -0.0237
 1022POPC   NC312253   8.477  11.061  15.560 -0.0438 -0.2960 -0.1078
 1022POPC   PO412254   8.822  11.276  15.563 -0.2647 -0.0842 -0.1330
 1022POPC   GL112255   8.959  10.930  15.738  0.0460  0.3815 -0.1807
 1022POPC   GL212256   9.195  11.017  15.889  0.3053  0.2275 -0.2046
 1022POPC   C1A12257   8.960  10.634  16.064  0.0470 -0.2328  0.2513
 1022POPC   D2A12258   8.836  10.232  16.262 -0.1290  0.2506  0.1175
 1022POPC   C3A12259   8.986  10.049  16.654  0.2224 -0.0068 -0.0962
 1022POPC   C4A12260   9.350   9.784  16.793  0.0713 -0.2622  0.1190
 1022POPC   C1B12261   9.399  10.877  16.254 -0.0455  0.0158 -0.0124
 1022POPC   C2B12262   9.554  10.855  16.717 -0.2199  0.2308  0.0811
 1022POPC   C3B12263   9.470  10.759  17.141  0.3048 -0.3025 -0.3185
 1022POPC   C4B12264   9.237  10.430  17.325 -0.3468  0.0836 -0.0804
 1023POPC   NC312265   8.472  13.985  16.073  0.3264 -0.0034 -0.0167
 1023POPC   PO412266   8.736  14.272  16.013 -0.0264  0.1599  0.1431
 1023POPC   GL112267   8.675  14.413  16.383  0.2174 -0.1501  0.3177
 1023POPC   GL212268   8.498  14.155  16.511 -0.0251  0.0111  0.0003
 1023POPC   C1A12269   8.950  14.292  16.766  0.1019 -0.0641  0.3359
 1023POPC   D2A12270   9.364  14.173  16.902 -0.2421 -0.1788  0.3511
 1023POPC   C3A12271   9.397  14.313  17.333 -0.3002  0.2141 -0.2031
 1023POPC   C4A12272   9.538  14.673  17.538  0.0651 -0.1345  0.0613
 1023POPC   C1B12273   8.461  14.340  16.931 -0.1904 -0.0612  0.4283
 1023POPC   C2B12274   8.500  14.351  17.417  0.2858  0.0688  0.0143
 1023POPC   C3B12275   8.545  14.477  17.947 -0.2851 -0.1729  0.1563
 1023POPC   C4B12276   8.744  14.811  18.243 -0.0444 -0.0186  0.2414
 1024POPC   NC312277   0.675   5.844  15.267 -0.1851 -0.2413  0.1988
 1024POPC   PO412278   0.345   5.745  15.453  0.0444  0.1319 -0.0843
 1024POPC   GL112279   0.356   5.529  15.840  0.0362 -0.1026 -0.0184
 1024POPC   GL212280   0.090   5.565  15.980  0.0661 -0.2077 -0.3307
 1024POPC   C1A12281   0.552   5.375  16.194 -0.0220 -0.2825 -0.2851
 1024POPC   D2A12282   0.711   5.050  16.501  0.5579  0.1413  0.1882
 1024POPC   C3A12283   0.503   4.758  16.816 -0.1853  0.1229  0.0509
 1024POPC   C4A12284   0.534   4.610  17.293 -0.2069  0.0428 -0.0964
 1024POPC   C1B12285   0.191   5.700  16.350 -0.2509 -0.0268  0.1025
 1024POPC   C2B12286   0.455   5.473  16.677  0.0610 -0.0362  0.0081
 1024POPC   C3B12287   0.513   5.226  17.048  0.1414 -0.0047 -0.1560
 1024POPC   C4B12288   0.507   5.201  17.487 -0.2505 -0.0299 -0.0285
 1025POPC   NC312289  15.231   6.627  15.436 -0.1521 -0.2740  0.0134
 1025POPC   PO412290  14.909   6.439  15.294 -0.1670  0.4895  0.1222
 1025POPC   GL112291  14.855   6.574  15.648  0.1659 -0.1060  0.1584
 1025POPC   GL212292  14.815   6.871  15.664 -0.2022 -0.1652 -0.1352
 1025POPC   C1A12293  14.878   6.285  16.006 -0.3508 -0.2603 -0.1593
 1025POPC   D2A12294  14.784   5.956  16.243 -0.0892  0.0291 -0.0196
 1025POPC   C3A12295  14.662   6.005  16.632 -0.0916  0.1644  0.5822
 1025POPC   C4A12296  14.490   6.184  17.017 -0.0932  0.0778 -0.2306
 1025POPC   C1B12297  14.749   6.770  16.119  0.0726  0.1046 -0.2318
 1025POPC   C2B12298  14.910   6.591  16.571  0.0943 -0.1716  0.0588
 1025POPC   C3B12299  15.069   6.717  16.954 -0.3504 -0.0413 -0.0566
 1025POPC   C4B12300  14.896   6.794  17.393  0.1655 -0.1051  0.0520
 1026POPC   NC312301   8.078  15.965  15.269 -0.1844  0.2228 -0.2768
 1026POPC   PO412302   8.252  16.221  15.031  0.2010 -0.0520 -0.0476
 1026POPC   GL112303   8.279  16.736  15.087  0.2354 -0.3900 -0.0845
 1026POPC   GL212304   8.160  16.926  14.967  0.0216 -0.0158  0.2319
 1026POPC   C1A12305   8.673  16.927  15.373  0.1936  0.1069  0.2516
 1026POPC   D2A12306   8.897  16.899  15.767 -0.1829  0.0418 -0.1607
 1026POPC   C3A12307   8.904  17.186  16.144 -0.4872  0.1084 -0.0102
 1026POPC   C4A12308   9.244  17.443  16.236 -0.1396 -0.1309  0.0716
 1026POPC   C1B12309   8.180  17.045  15.485 -0.4046 -0.1291 -0.1909
 1026POPC   C2B12310   8.335  17.045  15.930 -0.0777 -0.2573  0.0125
 1026POPC   C3B12311   8.413  17.348  16.303 -0.1733 -0.3732 -0.1364
 1026POPC   C4B12312   8.787  17.574  16.421  0.0138 -0.0105  0.0377
 1027POPC   NC312313   5.717  11.654  16.120  0.3409  0.1063  0.0711
 1027POPC   PO412314   5.442  11.509  16.286  0.2701  0.0319  0.1281
 1027POPC   GL112315   5.412  11.420  16.666  0.0032  0.2138 -0.3103
 1027POPC   GL212316   5.346  11.693  16.797 -0.3885  0.1269  0.0262
 1027POPC   C1A12317   5.364  11.080  16.969 -0.0641 -0.1065 -0.0377
 1027POPC   D2A12318   5.285  10.857  17.392 -0.1846 -0.1967 -0.0524
 1027POPC   C3A12319   5.203  11.204  17.590 -0.0863 -0.1064  0.0743
 1027POPC   C4A12320   5.263  11.433  18.029  0.0501 -0.0458  0.0728
 1027POPC   C1B12321   5.193  11.876  17.172 -0.0926  0.3711 -0.2328
 1027POPC   C2B12322   5.071  11.750  17.625 -0.1297 -0.1145 -0.2547
 1027POPC   C3B12323   4.630  11.866  17.856 -0.1914 -0.3587 -0.3164
 1027POPC   C4B12324   4.412  11.796  18.209 -0.3354 -0.1634 -0.2388
 1028POPC   NC312325   6.975  14.491   8.367 -0.1499 -0.0420 -0.1479
 1028POPC   PO412326   7.331  14.468   8.483 -0.1753  0.0936 -0.2188
 1028POPC   GL112327   7.429  14.529   8.210  0.1991 -0.1015  0.0639
 1028POPC   GL212328   7.615  14.664   8.043  0.1740 -0.0199  0.2181
 1028POPC   C1A12329   7.131  14.668   7.870 -0.1202  0.0811 -0.0925
 1028POPC   D2A12330   7.041  14.796   7.439  0.2065 -0.1771  0.0036
 1028POPC   C3A12331   6.710  14.636   7.141  0.1231 -0.1819 -0.3324
 1028POPC   C4A12332   6.441  14.650   6.819  0.0004 -0.2652  0.2383
 1028POPC   C1B12333   7.571  14.748   7.605 -0.0741 -0.0801 -0.0939
 1028POPC   C2B12334   7.756  14.942   7.213  0.1476  0.3280  0.0242
 1028POPC   C3B12335   7.976  15.094   6.792 -0.1168  0.0895 -0.2109
 1028POPC   C4B12336   7.898  15.389   6.448 -0.0074  0.1620 -0.1395
 1029POPC   NC312337   5.214  10.702  16.030  0.1141  0.0109  0.0369
 1029POPC   PO412338   5.591  10.684  16.185 -0.0340 -0.3532 -0.2578
 1029POPC   GL112339   5.580  10.767  16.563  0.2164  0.2848 -0.1146
 1029POPC   GL212340   5.755  10.911  16.724  0.1175  0.1195  0.0204
 1029POPC   C1A12341   5.426  10.469  16.929  0.3188 -0.0484  0.1937
 1029POPC   D2A12342   5.638  10.258  17.265 -0.0052 -0.0168 -0.1693
 1029POPC   C3A12343   5.445  10.358  17.674 -0.1049 -0.3316  0.0290
 1029POPC   C4A12344   5.100  10.245  17.809  0.1306 -0.2066 -0.1605
 1029POPC   C1B12345   5.839  10.728  17.178 -0.2840 -0.0434  0.0357
 1029POPC   C2B12346   5.854  10.702  17.595 -0.0974 -0.1088 -0.2364
 1029POPC   C3B12347   5.986  10.429  17.977 -0.0118 -0.1591 -0.2055
 1029POPC   C4B12348   6.271  10.110  18.073  0.1318 -0.1222  0.0907
 1030POPC   NC312349   5.614   9.760  14.738 -0.1030  0.2695  0.0007
 1030POPC   PO412350   5.525   9.378  14.789 -0.2872 -0.2205 -0.0558
 1030POPC   GL112351   5.784   9.145  15.101 -0.2370 -0.0607  0.2458
 1030POPC   GL212352   5.720   8.864  15.069 -0.1531  0.1290 -0.0835
 1030POPC   C1A12353   6.160   8.950  15.125  0.1570 -0.0248  0.0236
 1030POPC   D2A12354   6.281   8.509  15.183 -0.3275 -0.0843  0.1793
 1030POPC   C3A12355   6.756   8.454  15.315  0.1343 -0.0038 -0.0531
 1030POPC   C4A12356   7.042   8.156  15.489 -0.0618  0.1586  0.0224
 1030POPC   C1B12357   5.786   8.481  15.255 -0.1987 -0.1959 -0.3411
 1030POPC   C2B12358   5.899   8.304  15.667 -0.0540  0.2457  0.1778
 1030POPC   C3B12359   5.905   7.889  15.919  0.2887 -0.2760  0.1510
 1030POPC   C4B12360   6.168   7.674  16.181 -0.0943  0.1504 -0.2512
 1031POPC   NC312361  11.566  12.616  15.903 -0.2173  0.3127 -0.2689
 1031POPC   PO412362  11.338  12.635  16.228  0.0283  0.1043  0.2998
 1031POPC   GL112363  11.326  12.463  16.626 -0.1681 -0.0004 -0.0553
 1031POPC   GL212364  11.462  12.541  16.843  0.1411 -0.0235  0.1781
 1031POPC   C1A12365  11.045  12.104  16.731 -0.1450  0.0389  0.3539
 1031POPC   D2A12366  10.899  11.955  17.205 -0.2714 -0.0814  0.1624
 1031POPC   C3A12367  10.821  11.895  17.649  0.2479 -0.0700  0.0294
 1031POPC   C4A12368  10.552  11.812  18.033 -0.0253  0.0081 -0.0181
 1031POPC   C1B12369  11.507  12.569  17.301  0.2310  0.1719  0.0379
 1031POPC   C2B12370  11.751  12.613  17.723 -0.1156 -0.0418  0.2856
 1031POPC   C3B12371  11.836  12.679  18.174 -0.2866 -0.0761  0.2387
 1031POPC   C4B12372  12.267  12.673  18.363 -0.4534 -0.0115 -0.0737
 1032POPC   NC312373   8.687   0.155  14.588  0.1643 -0.3552 -0.3101
 1032POPC   PO412374   8.860   0.354  14.331 -0.0741  0.2222  0.2350
 1032POPC   GL112375   8.849   0.725  14.494  0.0594 -0.0618 -0.2075
 1032POPC   GL212376   8.620   0.657  14.682 -0.3305  0.1046  0.3287
 1032POPC   C1A12377   8.967   1.198  14.407 -0.2277 -0.1837  0.0571
 1032POPC   D2A12378   9.152   1.591  14.343 -0.4036 -0.3280 -0.0844
 1032POPC   C3A12379   8.956   1.979  14.456  0.3042  0.2576 -0.0862
 1032POPC   C4A12380   8.696   2.369  14.406 -0.0255  0.2683 -0.0146
 1032POPC   C1B12381   8.693   1.118  14.785  0.0033  0.2850 -0.0955
 1032POPC   C2B12382   8.636   1.420  15.171 -0.0750  0.0164  0.0712
 1032POPC   C3B12383   8.608   1.676  15.577  0.0171  0.1154 -0.0006
 1032POPC   C4B12384   8.254   1.699  15.901 -0.1384  0.2514 -0.1605
 1033POPC   NC312385   4.330  13.057  16.605  0.1257  0.2209  0.2026
 1033POPC   PO412386   4.649  12.892  16.732 -0.0232  0.1805  0.1981
 1033POPC   GL112387   4.962  12.659  17.016 -0.0093  0.2590 -0.0215
 1033POPC   GL212388   4.712  12.541  17.084  0.0859 -0.1921 -0.2207
 1033POPC   C1A12389   5.106  12.709  17.443  0.0118  0.3915 -0.1612
 1033POPC   D2A12390   5.278  12.674  17.912 -0.0219  0.1175 -0.2815
 1033POPC   C3A12391   5.329  12.882  18.358 -0.0049 -0.0910 -0.1344
 1033POPC   C4A12392   5.220  12.925  18.776  0.0966  0.2324  0.1175
 1033POPC   C1B12393   4.548  12.736  17.475  0.3555 -0.0319 -0.1261
 1033POPC   C2B12394   4.410  12.855  17.870  0.1421 -0.2774 -0.0349
 1033POPC   C3B12395   4.083  13.146  17.949 -0.3396  0.3626 -0.4600
 1033POPC   C4B12396   3.624  13.131  17.778  0.3162  0.0440  0.0025
 1034POPC   NC312397   9.102  14.450  16.306 -0.2817 -0.5602 -0.1300
 1034POPC   PO412398   9.313  14.823  16.280  0.3864 -0.1030  0.0394
 1034POPC   GL112399   9.486  15.049  16.601  0.2099 -0.0615 -0.0922
 1034POPC   GL212400   9.778  14.966  16.699  0.2572 -0.3904 -0.1058
 1034POPC   C1A12401   9.383  15.319  16.965 -0.2970  0.2654 -0.2965
 1034POPC   D2A12402   9.030  15.307  17.327 -0.3443 -0.2428 -0.0458
 1034POPC   C3A12403   8.680  15.542  17.277 -0.0366  0.1238  0.3089
 1034POPC   C4A12404   8.389  15.838  17.243  0.1092  0.1617 -0.1381
 1034POPC   C1B12405   9.811  15.146  17.128 -0.1633  0.0919  0.0638
 1034POPC   C2B12406   9.924  15.437  17.379 -0.0597  0.0761  0.1567
 1034POPC   C3B12407  10.238  15.774  17.551  0.1641 -0.2473  0.1450
 1034POPC   C4B12408  10.649  15.945  17.755  0.2847 -0.0048  0.0565
 1035POPC   NC312409   4.148  11.959  15.891 -0.0318  0.2412  0.1113
 1035POPC   PO412410   4.493  11.792  16.024  0.1343 -0.2812  0.2382
 1035POPC   GL112411   4.236  11.765  16.341 -0.5798  0.1329 -0.0986
 1035POPC   GL212412   4.440  11.581  16.514 -0.1889  0.0186 -0.1655
 1035POPC   C1A12413   4.030  11.907  16.714 -0.3042 -0.0061 -0.0312
 1035POPC   D2A12414   4.222  12.171  17.075 -0.0398 -0.1467  0.1600
 1035POPC   C3A12415   4.281  12.248  17.526  0.1334  0.1103  0.0003
 1035POPC   C4A12416   4.396  12.310  17.993 -0.0840 -0.0502 -0.2252
 1035POPC   C1B12417   4.583  11.660  16.929 -0.3359 -0.0305 -0.0419
 1035POPC   C2B12418   4.698  12.060  17.122  0.1445  0.5237 -0.0220
 1035POPC   C3B12419   4.872  12.263  17.521  0.1181 -0.3573 -0.0005
 1035POPC   C4B12420   4.826  12.501  17.922 -0.3075 -0.1933 -0.0344
 1036POPC   NC312421  13.679   8.612  12.908 -0.0855 -0.2867 -0.0103
 1036POPC   PO412422  13.416   8.420  13.077 -0.0867 -0.2260 -0.2152
 1036POPC   GL112423  13.209   8.167  13.038 -0.3894 -0.0889 -0.2888
 1036POPC   GL212424  13.236   8.041  13.312  0.1751 -0.2781 -0.0798
 1036POPC   C1A12425  12.897   8.208  12.701  0.1482 -0.4042  0.2121
 1036POPC   D2A12426  12.586   7.975  12.454  0.0723  0.0995  0.1898
 1036POPC   C3A12427  12.202   7.703  12.354  0.0038  0.0641 -0.1215
 1036POPC   C4A12428  11.975   7.380  12.103 -0.3492 -0.0099  0.0114
 1036POPC   C1B12429  13.135   7.594  13.143 -0.0576 -0.1964  0.0305
 1036POPC   C2B12430  12.763   7.292  13.129 -0.0221 -0.1585  0.2590
 1036POPC   C3B12431  12.299   7.171  13.096 -0.0649  0.2170  0.0477
 1036POPC   C4B12432  11.908   6.929  13.047 -0.1615 -0.1225 -0.0735
 1037POPC   NC312433   0.788  13.730  16.544 -0.1672 -0.1122 -0.0389
 1037POPC   PO412434   0.734  14.130  16.633 -0.2914  0.1444  0.0349
 1037POPC   GL112435   0.663  13.935  16.989 -0.2479  0.2411 -0.0381
 1037POPC   GL212436   0.764  14.130  17.124  0.0783 -0.0226 -0.2249
 1037POPC   C1A12437   0.347  13.806  17.275 -0.2223  0.1040 -0.2327
 1037POPC   D2A12438  -0.066  13.674  17.426  0.1452  0.1309 -0.1103
 1037POPC   C3A12439  -0.034  13.345  17.769 -0.1263  0.0350 -0.1997
 1037POPC   C4A12440  -0.354  13.151  18.041 -0.1814  0.1021  0.2365
 1037POPC   C1B12441   0.853  14.379  17.484  0.0756 -0.0275 -0.0347
 1037POPC   C2B12442   0.958  14.482  17.914 -0.0840  0.0091 -0.0245
 1037POPC   C3B12443   0.923  14.763  18.326  0.1114  0.0337  0.2579
 1037POPC   C4B12444   1.185  14.686  18.741  0.0166  0.0310  0.3182
 1038POPC   NC312445   6.179  11.553  16.349  0.1301  0.1139  0.0436
 1038POPC   PO412446   6.476  11.791  16.481  0.1660 -0.1286  0.6152
 1038POPC   GL112447   6.418  11.537  16.830  0.0545  0.3007 -0.2547
 1038POPC   GL212448   6.630  11.638  16.971 -0.0354 -0.1694  0.0080
 1038POPC   C1A12449   6.375  11.138  17.082 -0.2140 -0.0167 -0.0443
 1038POPC   D2A12450   6.174  11.019  17.470 -0.0198 -0.1125  0.2458
 1038POPC   C3A12451   6.367  10.717  17.734  0.0628 -0.2727 -0.1393
 1038POPC   C4A12452   6.624  10.471  17.952 -0.0484  0.0322 -0.2731
 1038POPC   C1B12453   6.536  11.518  17.391  0.1379  0.0993  0.0689
 1038POPC   C2B12454   6.491  11.275  17.773  0.0196  0.1454  0.0900
 1038POPC   C3B12455   6.355  11.109  18.168  0.0375  0.1257  0.1794
 1038POPC   C4B12456   6.250  10.795  18.452 -0.3485  0.3040 -0.0480
 1039POPC   NC312457   7.167  14.990   8.427 -0.2985  0.6948 -0.0956
 1039POPC   PO412458   6.802  14.930   8.329 -0.1847  0.2568 -0.1587
 1039POPC   GL112459   6.960  15.163   8.055 -0.2481 -0.0351 -0.1066
 1039POPC   GL212460   6.969  15.427   8.119  0.4425  0.1067 -0.0893
 1039POPC   C1A12461   7.379  15.162   7.886  0.1695 -0.0776  0.0358
 1039POPC   D2A12462   7.428  15.279   7.445  0.1800  0.0357  0.0297
 1039POPC   C3A12463   7.400  15.203   6.976 -0.3486  0.3390 -0.1345
 1039POPC   C4A12464   7.463  15.026   6.570 -0.0738  0.2522 -0.5707
 1039POPC   C1B12465   7.208  15.598   7.791 -0.1827 -0.1326  0.0149
 1039POPC   C2B12466   7.391  15.770   7.401 -0.0430 -0.0227  0.2139
 1039POPC   C3B12467   7.633  16.072   7.181  0.2320  0.0527  0.0007
 1039POPC   C4B12468   7.849  16.302   6.821 -0.0418 -0.1484  0.3259
 1040POPC   NC312469   7.275  11.272   9.698 -0.0781  0.1249 -0.0640
 1040POPC   PO412470   7.243  10.922   9.557 -0.3368  0.1755  0.2510
 1040POPC   GL112471   7.216  10.784   9.233 -0.0348  0.3807 -0.3916
 1040POPC   GL212472   7.177  10.985   9.040 -0.0534 -0.0425  0.0317
 1040POPC   C1A12473   7.530  10.670   8.881 -0.0419 -0.0602 -0.2003
 1040POPC   D2A12474   7.779  10.415   8.536 -0.2158 -0.1921  0.0928
 1040POPC   C3A12475   7.896  10.041   8.244 -0.0488 -0.2382  0.2085
 1040POPC   C4A12476   7.713   9.895   7.849 -0.0005 -0.2479 -0.2018
 1040POPC   C1B12477   7.301  11.003   8.556  0.0846 -0.0713  0.0163
 1040POPC   C2B12478   7.397  10.987   8.125  0.0211  0.2847 -0.0285
 1040POPC   C3B12479   7.440  10.877   7.661 -0.0924 -0.0798 -0.0879
 1040POPC   C4B12480   7.698  10.600   7.373  0.0315 -0.1393 -0.0445
 1041POPC   NC312481  13.710  13.562  16.307 -0.3364  0.1095  0.0372
 1041POPC   PO412482  14.121  13.498  16.317 -0.0009 -0.0272  0.3947
 1041POPC   GL112483  14.162  13.618  16.620 -0.2699  0.3047 -0.1416
 1041POPC   GL212484  14.406  13.581  16.669 -0.0749 -0.0977  0.2834
 1041POPC   C1A12485  14.281  13.971  16.955 -0.0048 -0.0686 -0.1332
 1041POPC   D2A12486  14.334  14.074  17.370  0.0694 -0.3380  0.1908
 1041POPC   C3A12487  14.581  14.525  17.399  0.0206 -0.1284  0.1059
 1041POPC   C4A12488  14.792  14.899  17.427  0.0245 -0.3175 -0.1668
 1041POPC   C1B12489  14.173  13.494  17.047  0.0613 -0.0345 -0.0545
 1041POPC   C2B12490  14.060  13.625  17.446  0.4136  0.1548  0.2955
 1041POPC   C3B12491  14.087  13.636  17.898 -0.0406  0.0010 -0.3039
 1041POPC   C4B12492  13.826  13.643  18.270 -0.2677  0.0022  0.0075
 1042POPC   NC312493   3.487  14.297  17.042  0.2124  0.1337 -0.1190
 1042POPC   PO412494   3.388  13.966  16.833 -0.3913  0.3233  0.2152
 1042POPC   GL112495   3.532  13.594  16.982 -0.1527  0.2018  0.1842
 1042POPC   GL212496   3.793  13.587  17.081  0.0009  0.0147 -0.0099
 1042POPC   C1A12497   3.594  13.176  17.252 -0.0941  0.0643 -0.0713
 1042POPC   D2A12498   3.605  12.742  17.267  0.2146  0.3313  0.2302
 1042POPC   C3A12499   3.547  12.605  17.699  0.2003 -0.1402  0.1678
 1042POPC   C4A12500   3.438  12.551  18.104 -0.3258 -0.2294 -0.0181
 1042POPC   C1B12501   3.629  13.690  17.489 -0.2361 -0.2471 -0.0999
 1042POPC   C2B12502   3.617  13.598  17.933  0.0672 -0.0913  0.0678
 1042POPC   C3B12503   3.983  13.698  18.248 -0.1240 -0.1522 -0.2219
 1042POPC   C4B12504   4.262  14.072  18.305  0.1881 -0.1868 -0.0224
 1043POPC   NC312505  16.206   4.175  15.273  0.1146  0.0690 -0.0626
 1043POPC   PO412506  16.209   4.523  15.229  0.1015 -0.1465 -0.0614
 1043POPC   GL112507  15.904   4.616  15.584 -0.0348 -0.1183 -0.1473
 1043POPC   GL212508  15.767   4.849  15.553 -0.1819 -0.0102  0.1614
 1043POPC   C1A12509  15.776   4.585  16.040  0.0658  0.1726 -0.0837
 1043POPC   D2A12510  15.579   4.642  16.385 -0.0762  0.1346  0.1075
 1043POPC   C3A12511  15.341   4.748  16.804  0.0568 -0.0406 -0.1412
 1043POPC   C4A12512  15.028   4.845  17.143 -0.2115  0.0387  0.0958
 1043POPC   C1B12513  15.593   5.115  15.922 -0.0336 -0.0848  0.2470
 1043POPC   C2B12514  15.377   5.042  16.294 -0.2952  0.0587  0.3222
 1043POPC   C3B12515  15.070   5.156  16.670  0.0123  0.0484 -0.0836
 1043POPC   C4B12516  14.691   5.121  16.909 -0.1782 -0.0156 -0.2874
 1044POPC   NC312517  14.410  10.475   9.803 -0.0763 -0.0972  0.1118
 1044POPC   PO412518  14.260  10.338   9.483  0.1691  0.2489  0.2015
 1044POPC   GL112519  14.062  10.204   9.228 -0.1876  0.0258  0.1896
 1044POPC   GL212520  13.919   9.982   9.270 -0.0572  0.2241  0.2392
 1044POPC   C1A12521  14.057  10.485   8.835 -0.1489 -0.3032 -0.0587
 1044POPC   D2A12522  13.966  10.942   8.676  0.1353  0.2172  0.2010
 1044POPC   C3A12523  13.948  11.052   8.217  0.3565 -0.1700  0.0092
 1044POPC   C4A12524  13.616  10.928   7.935 -0.0345 -0.0263 -0.1344
 1044POPC   C1B12525  13.776  10.112   8.862  0.0471  0.0681  0.0762
 1044POPC   C2B12526  13.696   9.891   8.442 -0.0063 -0.2130  0.0983
 1044POPC   C3B12527  13.612   9.660   8.033  0.3823 -0.3578 -0.1889
 1044POPC   C4B12528  13.591   9.703   7.500  0.3445  0.0889 -0.2735
 1045POPC   NC312529   4.060   7.794  15.524 -0.3495 -0.0169  0.1012
 1045POPC   PO412530   3.696   7.993  15.539 -0.0851 -0.1163  0.1797
 1045POPC   GL112531   4.046   8.195  15.741  0.2297 -0.0233  0.3297
 1045POPC   GL212532   4.048   8.389  15.959  0.2278  0.0170  0.1062
 1045POPC   C1A12533   4.210   7.860  16.068 -0.1082  0.1021  0.4140
 1045POPC   D2A12534   4.163   7.763  16.452  0.1222 -0.1622 -0.1332
 1045POPC   C3A12535   3.766   7.970  16.669 -0.2969 -0.4380  0.2412
 1045POPC   C4A12536   3.552   7.803  16.993 -0.1713 -0.0069 -0.2787
 1045POPC   C1B12537   4.078   8.254  16.372 -0.2072  0.1426 -0.0050
 1045POPC   C2B12538   4.238   8.160  16.812 -0.0514  0.2372 -0.4020
 1045POPC   C3B12539   4.003   8.014  17.224  0.0034  0.0363  0.1400
 1045POPC   C4B12540   3.654   7.791  17.450  0.5063  0.3363 -0.2117
 1046POPC   NC312541  14.366  15.228  16.048 -0.1594 -0.1115 -0.0136
 1046POPC   PO412542  13.991  15.103  16.087 -0.0111 -0.0589 -0.1684
 1046POPC   GL112543  14.064  15.242  16.457 -0.2840 -0.1557 -0.0565
 1046POPC   GL212544  13.790  15.189  16.584 -0.2906 -0.0599 -0.0274
 1046POPC   C1A12545  14.326  15.537  16.724  0.2913  0.1021  0.0079
 1046POPC   D2A12546  14.570  15.679  17.145  0.1887 -0.1007  0.1205
 1046POPC   C3A12547  14.466  15.575  17.576  0.1653 -0.0013 -0.1979
 1046POPC   C4A12548  14.134  15.330  17.782 -0.2192  0.2937 -0.0417
 1046POPC   C1B12549  13.431  15.298  16.887  0.2187  0.0446  0.0278
 1046POPC   C2B12550  13.390  15.112  17.299  0.1625  0.0327 -0.0038
 1046POPC   C3B12551  13.435  15.117  17.732  0.0514  0.0924 -0.0232
 1046POPC   C4B12552  13.539  14.946  18.193 -0.0198  0.1206  0.1449
 1047POPC   NC312553   5.981   8.398  11.224 -0.1246  0.1355 -0.3552
 1047POPC   PO412554   5.863   8.002  11.240 -0.2707 -0.2631 -0.1064
 1047POPC   GL112555   6.184   7.804  11.336 -0.2148  0.0965  0.0488
 1047POPC   GL212556   6.086   7.582  11.418 -0.0101 -0.1895  0.0073
 1047POPC   C1A12557   6.617   7.872  11.161 -0.2945  0.0680  0.0583
 1047POPC   D2A12558   7.051   7.930  11.079  0.1944 -0.0920  0.0055
 1047POPC   C3A12559   7.316   7.739  10.778 -0.1194 -0.2916  0.0465
 1047POPC   C4A12560   7.459   7.538  10.393 -0.2157  0.1324  0.0095
 1047POPC   C1B12561   6.325   7.183  11.408 -0.2974  0.2866  0.1387
 1047POPC   C2B12562   6.349   6.692  11.381  0.1728 -0.0301  0.1528
 1047POPC   C3B12563   6.246   6.339  11.660  0.0842 -0.1750 -0.1339
 1047POPC   C4B12564   6.022   5.993  11.869  0.1805 -0.1418  0.1001
 1048POPC   NC312565   5.196   3.016  10.979  0.1470  0.0352  0.1986
 1048POPC   PO412566   5.059   2.877  10.651  0.0093 -0.3839  0.1238
 1048POPC   GL112567   5.221   3.180  10.438 -0.1277  0.0539  0.2106
 1048POPC   GL212568   5.443   2.979  10.302  0.1870 -0.0152 -0.1672
 1048POPC   C1A12569   5.489   3.530  10.324 -0.0428 -0.1060 -0.0098
 1048POPC   D2A12570   5.652   3.775  10.027  0.1393 -0.1748 -0.2204
 1048POPC   C3A12571   5.784   3.790   9.599  0.0594  0.0111  0.4453
 1048POPC   C4A12572   5.900   3.445   9.332  0.5120  0.1111 -0.0693
 1048POPC   C1B12573   5.874   3.160  10.295  0.0378 -0.0159  0.0428
 1048POPC   C2B12574   6.179   3.461  10.175 -0.1722 -0.3359 -0.1214
 1048POPC   C3B12575   6.115   3.921  10.088 -0.3710 -0.0157 -0.0879
 1048POPC   C4B12576   6.215   4.410  10.149 -0.0663  0.1413  0.0415
 1049POPC   NC312577   2.351  12.482  16.474 -0.0507 -0.2617  0.0155
 1049POPC   PO412578   2.440  12.854  16.501  0.0670 -0.0834  0.1190
 1049POPC   GL112579   2.296  12.733  16.887  0.2775  0.1862  0.0234
 1049POPC   GL212580   2.264  13.004  17.094  0.1080  0.2148  0.1643
 1049POPC   C1A12581   2.435  12.563  17.295  0.1254  0.2519  0.1738
 1049POPC   D2A12582   2.193  12.559  17.681  0.0802  0.0308 -0.4790
 1049POPC   C3A12583   2.388  12.651  18.109 -0.2054  0.2790 -0.0240
 1049POPC   C4A12584   2.602  12.758  18.515 -0.0071  0.1030 -0.0021
 1049POPC   C1B12585   2.255  13.064  17.523 -0.1997  0.0679 -0.0003
 1049POPC   C2B12586   2.200  13.122  17.984  0.3653  0.1076  0.2632
 1049POPC   C3B12587   2.230  13.222  18.454 -0.0657 -0.1772  0.1697
 1049POPC   C4B12588   1.943  13.408  18.747  0.0247 -0.0745 -0.0515
 1050POPC   NC312589  14.448   6.658  11.462  0.1727 -0.0436 -0.1918
 1050POPC   PO412590  14.676   6.345  11.562 -0.1678  0.0997 -0.1931
 1050POPC   GL112591  14.231   6.283  11.556  0.1060 -0.0287  0.3438
 1050POPC   GL212592  13.979   6.520  11.622  0.3591  0.1615  0.0530
 1050POPC   C1A12593  13.787   6.181  11.368 -0.1804 -0.2633  0.1892
 1050POPC   D2A12594  13.350   6.122  11.471  0.0631  0.1087 -0.2337
 1050POPC   C3A12595  12.992   6.230  11.196  0.1282 -0.0715 -0.2205
 1050POPC   C4A12596  12.661   6.339  10.923  0.3479 -0.1061  0.2118
 1050POPC   C1B12597  13.541   6.567  11.604 -0.0003 -0.1032  0.0905
 1050POPC   C2B12598  13.136   6.583  11.728  0.1935  0.1320  0.1045
 1050POPC   C3B12599  12.866   6.323  11.966  0.2228 -0.5465 -0.1182
 1050POPC   C4B12600  12.561   6.038  11.940  0.2240 -0.0870  0.1445
 1051POPC   NC312601  14.132   3.293  14.459 -0.0983 -0.0616 -0.2506
 1051POPC   PO412602  14.116   2.999  14.713 -0.1428  0.0674 -0.1119
 1051POPC   GL112603  13.743   3.065  14.756 -0.1218 -0.0377 -0.2282
 1051POPC   GL212604  13.655   3.183  14.526  0.2269 -0.1009  0.1087
 1051POPC   C1A12605  13.466   3.173  15.098  0.1598  0.0253  0.3055
 1051POPC   D2A12606  13.214   3.318  15.502  0.2114 -0.1403  0.0545
 1051POPC   C3A12607  12.768   3.488  15.383 -0.0033 -0.0484 -0.2973
 1051POPC   C4A12608  12.544   3.860  15.374 -0.0465  0.1489 -0.2048
 1051POPC   C1B12609  13.230   3.173  14.652 -0.0756 -0.0790  0.1274
 1051POPC   C2B12610  12.922   3.357  14.939  0.1160 -0.0550 -0.0454
 1051POPC   C3B12611  12.566   3.676  14.919 -0.0006  0.2256 -0.0075
 1051POPC   C4B12612  12.073   3.593  14.917 -0.0431  0.2481  0.0463
 1052POPC   NC312613   5.904  10.389  15.480 -0.0478 -0.1276  0.1121
 1052POPC   PO412614   5.946  10.041  15.257 -0.2068 -0.1728  0.0845
 1052POPC   GL112615   6.010   9.759  15.399 -0.1833  0.0133  0.2292
 1052POPC   GL212616   5.939   9.568  15.126  0.4515 -0.0445 -0.0025
 1052POPC   C1A12617   6.381   9.535  15.366 -0.3942  0.0964  0.0879
 1052POPC   D2A12618   6.571   9.386  15.750  0.0168 -0.0303  0.1061
 1052POPC   C3A12619   6.562   9.492  16.188 -0.1750 -0.4918  0.1281
 1052POPC   C4A12620   6.348   9.323  16.544  0.1259  0.1445  0.0674
 1052POPC   C1B12621   5.991   9.308  15.494 -0.0099 -0.1301 -0.1314
 1052POPC   C2B12622   6.213   8.912  15.641  0.1145 -0.0832 -0.3036
 1052POPC   C3B12623   6.392   8.542  15.782  0.0786 -0.3299 -0.0787
 1052POPC   C4B12624   6.301   8.168  15.967  0.1903  0.2864 -0.4598
 1053POPC   NC312625   0.150  13.570  16.308 -0.1712  0.0911  0.2023
 1053POPC   PO412626   0.150  13.916  16.418  0.1819  0.1493 -0.3427
 1053POPC   GL112627  -0.006  14.208  16.685  0.1155 -0.2243 -0.1164
 1053POPC   GL212628   0.240  14.262  16.823  0.0666  0.3274  0.2884
 1053POPC   C1A12629  -0.104  14.132  17.158 -0.2639 -0.2735  0.2034
 1053POPC   D2A12630   0.076  14.194  17.564  0.0682 -0.0388 -0.0739
 1053POPC   C3A12631  -0.056  14.250  18.010 -0.3292  0.3584 -0.1618
 1053POPC   C4A12632  -0.043  14.425  18.448  0.1289 -0.2341  0.3595
 1053POPC   C1B12633   0.355  14.452  17.258 -0.1581  0.0155  0.1276
 1053POPC   C2B12634   0.420  14.635  17.724 -0.1994  0.4179  0.0754
 1053POPC   C3B12635   0.435  14.580  18.186 -0.1504 -0.4117  0.4903
 1053POPC   C4B12636   0.495  14.472  18.654 -0.4566 -0.2847  0.0475
 1054POPC   NC312637   4.718   1.919  14.198  0.4304 -0.3117  0.0471
 1054POPC   PO412638   4.504   2.116  14.486 -0.0478 -0.2077  0.1709
 1054POPC   GL112639   4.735   2.517  14.610 -0.2105  0.0063 -0.1000
 1054POPC   GL212640   4.543   2.779  14.722  0.1162  0.1364  0.1011
 1054POPC   C1A12641   5.136   2.690  14.800 -0.0546  0.0913 -0.0946
 1054POPC   D2A12642   5.562   2.551  14.998 -0.0395  0.0425 -0.1681
 1054POPC   C3A12643   5.661   2.681  15.444  0.1195  0.1051 -0.0283
 1054POPC   C4A12644   5.949   2.952  15.632  0.3796  0.3649  0.0994
 1054POPC   C1B12645   4.533   2.770  15.177  0.3271 -0.0503  0.3833
 1054POPC   C2B12646   4.736   2.852  15.602  0.1223 -0.0044  0.4146
 1054POPC   C3B12647   4.830   2.936  15.995  0.3132  0.0074  0.0357
 1054POPC   C4B12648   5.141   2.906  16.296 -0.2613 -0.0507  0.0360
 1055POPC   NC312649  10.306   0.457  12.773 -0.2744 -0.1682  0.1823
 1055POPC   PO412650  10.362   0.798  12.584  0.1993 -0.0248 -0.0383
 1055POPC   GL112651  10.393   1.090  12.467 -0.0874 -0.4136  0.1425
 1055POPC   GL212652  10.621   1.190  12.333 -0.0798  0.4626  0.1056
 1055POPC   C1A12653  10.256   1.514  12.410  0.1080 -0.1651 -0.2711
 1055POPC   D2A12654   9.997   1.851  12.198  0.2534 -0.1786 -0.2626
 1055POPC   C3A12655  10.076   2.312  12.337  0.2908 -0.0714 -0.0865
 1055POPC   C4A12656  10.093   2.776  12.288  0.3174 -0.0550  0.0373
 1055POPC   C1B12657  10.650   1.635  12.180  0.0920  0.3337  0.0029
 1055POPC   C2B12658  10.462   1.958  11.974  0.3755  0.0157  0.0094
 1055POPC   C3B12659  10.193   2.290  11.858  0.1067  0.1134  0.0590
 1055POPC   C4B12660  10.271   2.695  11.730 -0.0820 -0.0543  0.0582
 1056POPC   NC312661   4.951  11.309  16.161  0.0195  0.1085  0.1675
 1056POPC   PO412662   4.971  11.500  16.475 -0.1415  0.3059  0.0418
 1056POPC   GL112663   4.938  11.243  16.760 -0.1040 -0.1467 -0.0097
 1056POPC   GL212664   4.705  11.157  16.651  0.0800  0.1437  0.2021
 1056POPC   C1A12665   4.891  11.312  17.176  0.3880 -0.2222  0.3905
 1056POPC   D2A12666   4.606  11.474  17.461 -0.1307  0.2649  0.1283
 1056POPC   C3A12667   4.774  11.405  17.899 -0.0081 -0.0577  0.3409
 1056POPC   C4A12668   4.890  11.063  18.204 -0.3627 -0.0125  0.2012
 1056POPC   C1B12669   4.466  11.137  17.070  0.1424  0.0593 -0.0305
 1056POPC   C2B12670   4.693  10.937  17.465  0.2819 -0.0503  0.0437
 1056POPC   C3B12671   4.542  10.857  17.899 -0.0391 -0.1641  0.3272
 1056POPC   C4B12672   4.128  10.835  18.035 -0.0361 -0.1083  0.2064
 1057POPC   NC312673   1.678   1.163  15.666  0.2664 -0.2554  0.0836
 1057POPC   PO412674   1.847   1.537  15.636 -0.2677  0.4992 -0.0901
 1057POPC   GL112675   1.997   1.439  15.980  0.0012 -0.1958  0.0515
 1057POPC   GL212676   2.129   1.716  15.979 -0.3297  0.0561 -0.0526
 1057POPC   C1A12677   2.026   1.522  16.467  0.1020  0.0152 -0.2467
 1057POPC   D2A12678   2.222   1.591  16.860  0.2394 -0.3047 -0.0497
 1057POPC   C3A12679   2.357   1.934  17.126 -0.2423 -0.1096  0.3327
 1057POPC   C4A12680   2.345   2.366  17.158 -0.3344  0.0734 -0.1989
 1057POPC   C1B12681   2.120   2.019  16.272  0.2574  0.1700  0.2436
 1057POPC   C2B12682   2.014   2.083  16.761 -0.2545  0.0345  0.0204
 1057POPC   C3B12683   1.807   2.320  17.154  0.1406  0.0253 -0.0465
 1057POPC   C4B12684   1.825   2.425  17.564 -0.2155  0.0195 -0.1016
 1058POPC   NC312685  13.742   8.166  14.460 -0.0268 -0.0619 -0.0673
 1058POPC   PO412686  13.615   8.075  14.123  0.2528 -0.0671  0.3128
 1058POPC   GL112687  13.352   7.861  14.328  0.1908 -0.2045 -0.1175
 1058POPC   GL212688  13.495   7.604  14.190  0.1835  0.2624 -0.0643
 1058POPC   C1A12689  12.946   7.851  14.344 -0.1099  0.1389  0.2861
 1058POPC   D2A12690  12.537   8.002  14.557 -0.0705  0.0879 -0.1945
 1058POPC   C3A12691  12.480   7.551  14.759 -0.0975  0.1392 -0.4734
 1058POPC   C4A12692  12.557   7.246  15.099  0.0924 -0.2562 -0.1308
 1058POPC   C1B12693  13.173   7.378  14.437 -0.2211 -0.1351 -0.0416
 1058POPC   C2B12694  12.910   7.142  14.725 -0.3539 -0.1787  0.2497
 1058POPC   C3B12695  12.685   6.804  14.992  0.2996  0.0843  0.0073
 1058POPC   C4B12696  12.418   6.813  15.414  0.0870 -0.0956 -0.1057
 1059POPC   NC312697   3.062   7.023  15.636  0.2016 -0.1576 -0.0635
 1059POPC   PO412698   2.709   7.180  15.586 -0.1761  0.0611 -0.2755
 1059POPC   GL112699   2.863   7.166  15.986  0.2754 -0.0528 -0.5554
 1059POPC   GL212700   2.858   7.222  16.254 -0.0269 -0.0838  0.1507
 1059POPC   C1A12701   3.255   6.950  16.087 -0.0014  0.1440 -0.2580
 1059POPC   D2A12702   3.621   6.635  16.221  0.0403 -0.1335  0.0314
 1059POPC   C3A12703   4.100   6.574  16.307  0.1926  0.2668  0.1988
 1059POPC   C4A12704   4.504   6.705  16.390  0.0623  0.2016 -0.1398
 1059POPC   C1B12705   3.075   7.211  16.610  0.0898 -0.1675  0.2970
 1059POPC   C2B12706   3.437   7.234  16.896  0.2686  0.0647 -0.1084
 1059POPC   C3B12707   3.818   7.349  17.179 -0.0449 -0.0329  0.0635
 1059POPC   C4B12708   4.136   7.575  17.447  0.0796  0.0369 -0.2384
 1060POPC   NC312709  13.637   4.015  12.736  0.3486 -0.2796  0.2020
 1060POPC   PO412710  13.836   4.168  13.013 -0.1841 -0.3710  0.0834
 1060POPC   GL112711  13.421   4.218  13.081  0.0889 -0.5507 -0.0207
 1060POPC   GL212712  13.341   4.098  13.330 -0.0964 -0.2985  0.0062
 1060POPC   C1A12713  13.107   4.158  12.739  0.0614  0.2169  0.2445
 1060POPC   D2A12714  12.678   4.268  12.701  0.0096 -0.2348  0.1853
 1060POPC   C3A12715  12.202   4.193  12.737  0.0550  0.0624 -0.1330
 1060POPC   C4A12716  11.781   4.372  12.636  0.1651  0.1111  0.1980
 1060POPC   C1B12717  12.892   4.295  13.180  0.1895  0.1739 -0.3470
 1060POPC   C2B12718  12.407   4.408  13.151 -0.4507 -0.0077  0.1389
 1060POPC   C3B12719  12.021   4.519  13.213  0.1581 -0.0250  0.3034
 1060POPC   C4B12720  11.682   4.467  13.517 -0.0982  0.0610  0.1147
 1061POPC   NC312721   3.552  10.525  15.751 -0.0695 -0.3713  0.2281
 1061POPC   PO412722   3.688  10.445  16.123  0.1226 -0.3822 -0.2262
 1061POPC   GL112723   3.899  10.250  16.458  0.1558 -0.0548 -0.1603
 1061POPC   GL212724   3.687  10.089  16.551 -0.1385  0.1508  0.0009
 1061POPC   C1A12725   3.965  10.424  16.849  0.2184 -0.4112 -0.0821
 1061POPC   D2A12726   3.931  10.312  17.307 -0.2051 -0.1938  0.0500
 1061POPC   C3A12727   3.572  10.087  17.506 -0.0077 -0.3051 -0.1263
 1061POPC   C4A12728   3.352  10.040  17.916  0.0738  0.0206 -0.2161
 1061POPC   C1B12729   3.852   9.936  16.980 -0.1527 -0.0471  0.0432
 1061POPC   C2B12730   4.041   9.816  17.377 -0.0066 -0.0633 -0.1729
 1061POPC   C3B12731   4.299   9.879  17.783  0.3986 -0.0763 -0.2773
 1061POPC   C4B12732   4.695  10.017  18.023  0.0449  0.0290  0.0288
 1062POPC   NC312733   7.191   0.320  14.165  0.1761  0.1542  0.1060
 1062POPC   PO412734   7.221   0.395  14.532  0.2389  0.0629 -0.1086
 1062POPC   GL112735   7.253   0.783  14.727  0.3432  0.0730  0.1287
 1062POPC   GL212736   7.570   0.792  14.810  0.1774 -0.0913 -0.1540
 1062POPC   C1A12737   7.122   1.115  15.041 -0.2596 -0.0684 -0.2892
 1062POPC   D2A12738   7.049   1.320  15.408 -0.2537  0.1384  0.1840
 1062POPC   C3A12739   7.320   1.580  15.594 -0.2356  0.0086 -0.0791
 1062POPC   C4A12740   7.512   2.005  15.699 -0.0463  0.0737 -0.3458
 1062POPC   C1B12741   7.836   0.924  15.120 -0.3545  0.1922 -0.0372
 1062POPC   C2B12742   8.044   1.208  15.436 -0.1043  0.0100  0.0398
 1062POPC   C3B12743   8.379   1.273  15.683 -0.0106  0.2351  0.0296
 1062POPC   C4B12744   8.699   1.471  16.032  0.3117 -0.0905 -0.3498
 1063POPC   NC312745   0.800   3.206  15.393  0.0154  0.1111  0.2171
 1063POPC   PO412746   1.093   3.379  15.513 -0.0263 -0.0181 -0.3629
 1063POPC   GL112747   0.932   3.306  15.861  0.1848 -0.0140 -0.0918
 1063POPC   GL212748   1.054   3.097  15.993  0.0205  0.3121  0.0159
 1063POPC   C1A12749   1.194   3.472  16.244  0.0851  0.0367  0.2299
 1063POPC   D2A12750   0.909   3.874  16.375 -0.4273  0.1932  0.1556
 1063POPC   C3A12751   0.993   3.958  16.794  0.0365 -0.2053  0.0644
 1063POPC   C4A12752   1.154   3.828  17.168  0.1023  0.0763  0.3159
 1063POPC   C1B12753   0.884   3.061  16.432  0.0677 -0.4782  0.2750
 1063POPC   C2B12754   0.777   3.023  16.852  0.0252  0.0476 -0.0812
 1063POPC   C3B12755   0.661   3.084  17.292 -0.1006 -0.0522 -0.1039
 1063POPC   C4B12756   0.521   3.049  17.715  0.2295 -0.0614 -0.0385
 1064POPC   NC312757   6.530  10.617  15.848 -0.0099 -0.0154 -0.1716
 1064POPC   PO412758   6.144  10.597  15.869  0.2885  0.0336 -0.2699
 1064POPC   GL112759   6.291  10.261  16.090 -0.1085 -0.1743  0.3274
 1064POPC   GL212760   6.590  10.145  16.077  0.1806  0.1825  0.4605
 1064POPC   C1A12761   6.211   9.882  16.376 -0.0992  0.1626  0.1862
 1064POPC   D2A12762   6.100   9.680  16.756  0.0151  0.1609 -0.3321
 1064POPC   C3A12763   6.176   9.428  17.182  0.1626  0.3171 -0.0219
 1064POPC   C4A12764   6.333   9.624  17.529  0.0155  0.1457 -0.1218
 1064POPC   C1B12765   6.881   9.865  16.265  0.0697  0.1367  0.0925
 1064POPC   C2B12766   7.321   9.725  16.353  0.0919 -0.0617 -0.0681
 1064POPC   C3B12767   7.739   9.815  16.492  0.0830 -0.1918  0.0013
 1064POPC   C4B12768   8.075   9.569  16.573  0.1202 -0.1443  0.3045
 1065POPC   NC312769   5.945  10.991  15.983  0.2958 -0.0247  0.2827
 1065POPC   PO412770   5.846  11.212  16.303  0.1075 -0.0117  0.1044
 1065POPC   GL112771   6.041  11.282  16.695 -0.3377 -0.1464  0.0318
 1065POPC   GL212772   6.233  11.072  16.614  0.3417 -0.0937 -0.1255
 1065POPC   C1A12773   5.876  11.225  17.090  0.2223 -0.0420 -0.3225
 1065POPC   D2A12774   5.667  11.388  17.439 -0.1999 -0.1502  0.0249
 1065POPC   C3A12775   5.707  11.173  17.828 -0.2775  0.0520  0.0168
 1065POPC   C4A12776   5.898  10.872  18.047  0.1686  0.0425 -0.1386
 1065POPC   C1B12777   6.285  10.716  16.851 -0.0647  0.0126 -0.4045
 1065POPC   C2B12778   6.291  10.496  17.249 -0.2354  0.2035 -0.1245
 1065POPC   C3B12779   6.346  10.158  17.596  0.1107 -0.2230  0.2918
 1065POPC   C4B12780   6.694   9.993  17.761 -0.1099 -0.3597 -0.4235
 1066POPC   NC312781  13.810   1.126   9.551  0.3843 -0.0267 -0.5579
 1066POPC   PO412782  13.650   1.157   9.194  0.2069 -0.1951 -0.0200
 1066POPC   GL112783  13.493   1.571   9.130 -0.0776 -0.2100  0.2714
 1066POPC   GL212784  13.543   1.910   9.110  0.1166  0.0263  0.2647
 1066POPC   C1A12785  13.139   1.756   8.904 -0.0907  0.0001 -0.0193
 1066POPC   D2A12786  12.931   2.051   8.555  0.5414  0.1710 -0.1074
 1066POPC   C3A12787  12.748   2.148   8.097  0.1743 -0.1973  0.0222
 1066POPC   C4A12788  12.734   2.570   7.929 -0.0153  0.2682  0.0289
 1066POPC   C1B12789  13.637   2.186   8.681 -0.1326 -0.3585 -0.0353
 1066POPC   C2B12790  13.593   2.608   8.444 -0.1470 -0.3182 -0.1438
 1066POPC   C3B12791  13.536   3.054   8.301 -0.0747  0.1202  0.0266
 1066POPC   C4B12792  13.291   3.153   7.909  0.3493 -0.0973  0.1526
 1067POPC   NC312793   9.960   1.055  11.605 -0.0385  0.1598 -0.0490
 1067POPC   PO412794  10.325   0.781  11.478  0.0491  0.0789 -0.1249
 1067POPC   GL112795  10.440   1.099  11.448 -0.1769 -0.2988  0.2745
 1067POPC   GL212796  10.572   1.174  11.209  0.1933  0.0584 -0.1827
 1067POPC   C1A12797  10.156   1.487  11.396  0.3331 -0.3022 -0.1786
 1067POPC   D2A12798  10.068   1.847  11.629 -0.1001 -0.1865  0.0208
 1067POPC   C3A12799   9.819   2.210  11.507 -0.3564  0.0830 -0.1597
 1067POPC   C4A12800   9.348   2.326  11.567 -0.1252 -0.0876  0.2403
 1067POPC   C1B12801  10.457   1.560  10.966  0.0993 -0.0499  0.0526
 1067POPC   C2B12802  10.353   1.975  10.740  0.0337  0.1502  0.1761
 1067POPC   C3B12803  10.140   2.113  10.350  0.0301  0.2334 -0.0365
 1067POPC   C4B12804   9.943   2.488  10.187  0.2770  0.1154 -0.1588
 1068POPC   NC312805   7.105  11.638  16.230 -0.0353  0.0874 -0.1189
 1068POPC   PO412806   6.955  11.960  16.388  0.1490  0.0002 -0.1700
 1068POPC   GL112807   7.045  11.848  16.786  0.6809 -0.2307  0.6810
 1068POPC   GL212808   7.090  11.557  16.796  0.1079 -0.3212 -0.1447
 1068POPC   C1A12809   7.178  12.022  17.217 -0.2024  0.0302 -0.2275
 1068POPC   D2A12810   7.474  12.082  17.594  0.1802  0.1838  0.1912
 1068POPC   C3A12811   7.488  11.958  18.053  0.0772  0.3705  0.0708
 1068POPC   C4A12812   7.783  11.702  18.319  0.2043 -0.3003  0.3012
 1068POPC   C1B12813   6.901  11.128  16.898  0.0139 -0.0683  0.1536
 1068POPC   C2B12814   6.753  10.921  17.272  0.2435 -0.0420 -0.1521
 1068POPC   C3B12815   6.834  10.529  17.507 -0.0280  0.0085  0.2462
 1068POPC   C4B12816   7.138  10.425  17.842  0.0211  0.0038  0.0447
 1069POPC   NC312817  12.278  10.507  10.877 -0.2099  0.0857  0.1886
 1069POPC   PO412818  12.083  10.171  10.897 -0.1557 -0.1305 -0.2279
 1069POPC   GL112819  12.004  10.040  10.595 -0.2519 -0.0461 -0.1099
 1069POPC   GL212820  11.820   9.766  10.662 -0.0988 -0.0120  0.1510
 1069POPC   C1A12821  11.732  10.094  10.224 -0.0452  0.0684  0.0065
 1069POPC   D2A12822  11.781  10.089   9.787 -0.1734  0.1995  0.0883
 1069POPC   C3A12823  12.022   9.760   9.586  0.2616  0.0238  0.1001
 1069POPC   C4A12824  11.963   9.335   9.298  0.1392 -0.2413  0.0224
 1069POPC   C1B12825  11.708   9.364  10.467  0.0516  0.0001  0.0700
 1069POPC   C2B12826  11.506   8.916  10.479 -0.3168  0.0255 -0.1291
 1069POPC   C3B12827  11.245   8.518  10.481 -0.2690 -0.0329 -0.2052
 1069POPC   C4B12828  11.165   8.116  10.285  0.1296  0.0283 -0.1997
 1070POPC   NC312829   3.213  10.077  16.231  0.0346 -0.1339  0.3153
 1070POPC   PO412830   3.175  10.423  16.084 -0.0874  0.1190 -0.1649
 1070POPC   GL112831   3.156  10.425  16.503 -0.0169 -0.0639  0.2862
 1070POPC   GL212832   3.395  10.517  16.572  0.1138  0.1327 -0.1176
 1070POPC   C1A12833   2.994  10.118  16.762  0.0884  0.1057  0.2959
 1070POPC   D2A12834   2.674   9.978  17.104  0.0088  0.3411  0.1883
 1070POPC   C3A12835   2.439   9.711  17.413 -0.1234  0.1680 -0.1307
 1070POPC   C4A12836   2.273   9.523  17.787  0.1232 -0.1795  0.0249
 1070POPC   C1B12837   3.458  10.231  16.975 -0.3411  0.1048 -0.2615
 1070POPC   C2B12838   3.159  10.103  17.304 -0.0245 -0.1377  0.2140
 1070POPC   C3B12839   2.942   9.970  17.674  0.2483 -0.1896 -0.1491
 1070POPC   C4B12840   2.524   9.945  17.889  0.1257  0.0369  0.1638
 1071POPC   NC312841   0.555  11.649  16.603 -0.0711 -0.2150 -0.2443
 1071POPC   PO412842   0.445  12.039  16.627 -0.6108 -0.0573 -0.1132
 1071POPC   GL112843   0.432  12.147  16.988 -0.1136  0.0743  0.0576
 1071POPC   GL212844   0.649  12.335  16.988 -0.0064 -0.0745  0.1242
 1071POPC   C1A12845   0.210  11.959  17.320  0.0322 -0.2533 -0.1104
 1071POPC   D2A12846  -0.023  11.756  17.646 -0.1743  0.1013  0.2249
 1071POPC   C3A12847   0.075  11.609  18.057  0.1181 -0.2325 -0.2671
 1071POPC   C4A12848   0.358  11.578  18.412 -0.2722  0.0248  0.0634
 1071POPC   C1B12849   0.585  12.235  17.420  0.1671  0.2633  0.1156
 1071POPC   C2B12850   0.755  12.328  17.792 -0.0405 -0.1213 -0.3309
 1071POPC   C3B12851   0.940  12.339  18.176 -0.3158  0.1939  0.0167
 1071POPC   C4B12852   1.267  12.168  18.423  0.1093  0.1062 -0.3595
 1072POPC   NC312853   6.997  15.167  16.359 -0.0406 -0.2310  0.2132
 1072POPC   PO412854   6.726  14.917  16.395  0.2920  0.1906 -0.3212
 1072POPC   GL112855   6.863  14.815  16.779  0.0081 -0.2049 -0.0555
 1072POPC   GL212856   6.801  15.098  16.878  0.1060  0.0505  0.0884
 1072POPC   C1A12857   6.874  14.547  17.155 -0.0598 -0.1599 -0.1965
 1072POPC   D2A12858   6.745  14.238  17.377 -0.0223  0.1438 -0.0021
 1072POPC   C3A12859   7.034  14.241  17.780 -0.0727  0.0428  0.2600
 1072POPC   C4A12860   7.312  14.314  18.139  0.2549 -0.1417  0.1375
 1072POPC   C1B12861   7.192  14.962  17.059 -0.1617 -0.1934  0.1088
 1072POPC   C2B12862   7.602  14.864  17.050  0.1320 -0.0418  0.2499
 1072POPC   C3B12863   7.923  14.961  17.362  0.1458 -0.1722 -0.0840
 1072POPC   C4B12864   8.349  15.212  17.375  0.0425  0.0040 -0.4489
 1073POPC   NC312865  11.569   0.239  13.783 -0.2626 -0.1942 -0.1714
 1073POPC   PO412866  11.268   0.175  14.018  0.0796 -0.2000  0.4032
 1073POPC   GL112867  11.007   0.485  14.256  0.0674 -0.0156 -0.0530
 1073POPC   GL212868  11.268   0.493  14.420  0.0329  0.0670  0.1089
 1073POPC   C1A12869  10.818   0.895  14.358  0.1517 -0.1713  0.2385
 1073POPC   D2A12870  10.463   1.158  14.584  0.1395 -0.0294 -0.0924
 1073POPC   C3A12871  10.450   1.600  14.523 -0.1951  0.2372  0.0961
 1073POPC   C4A12872  10.586   1.917  14.810 -0.1071 -0.1703 -0.1261
 1073POPC   C1B12873  11.179   0.864  14.692  0.0569  0.0307  0.1282
 1073POPC   C2B12874  10.969   1.247  14.818 -0.1238  0.3038 -0.0084
 1073POPC   C3B12875  10.770   1.441  15.191  0.2878 -0.1143  0.0283
 1073POPC   C4B12876  10.687   1.598  15.606 -0.2705  0.2760 -0.0600
 1074POPC   NC312877   2.539   0.282  16.003  0.2180  0.1914  0.1168
 1074POPC   PO412878   2.918   0.300  15.846 -0.0502  0.0656  0.0055
 1074POPC   GL112879   2.967   0.307  16.186 -0.0490  0.1507 -0.3157
 1074POPC   GL212880   2.984   0.115  16.406  0.3729 -0.1958 -0.1494
 1074POPC   C1A12881   3.323   0.558  16.379 -0.1406  0.2809  0.1748
 1074POPC   D2A12882   3.497   0.525  16.801  0.0274  0.2352 -0.1064
 1074POPC   C3A12883   3.414   0.730  17.242 -0.0535  0.1070 -0.2910
 1074POPC   C4A12884   3.400   0.805  17.699  0.0784 -0.0089 -0.4872
 1074POPC   C1B12885   3.032   0.403  16.832  0.1584 -0.0006 -0.0025
 1074POPC   C2B12886   2.953   0.541  17.241  0.2328 -0.0260 -0.4371
 1074POPC   C3B12887   2.939   0.830  17.577 -0.2941 -0.3145 -0.0803
 1074POPC   C4B12888   3.067   1.138  17.915 -0.0734 -0.2040 -0.0004
 1075POPC   NC312889   4.797  10.466  16.193  0.0710 -0.0403  0.1588
 1075POPC   PO412890   4.802  10.837  16.265 -0.0253  0.0823  0.0174
 1075POPC   GL112891   4.845  10.663  16.621  0.0339  0.3502 -0.3779
 1075POPC   GL212892   5.118  10.544  16.549 -0.0444  0.0143  0.0765
 1075POPC   C1A12893   4.917  10.790  17.042 -0.1277 -0.2416  0.0402
 1075POPC   D2A12894   4.944  10.492  17.437 -0.2049  0.0756 -0.0908
 1075POPC   C3A12895   5.027  10.731  17.868  0.0879 -0.0719  0.2078
 1075POPC   C4A12896   5.409  10.715  18.130 -0.0326  0.1135 -0.1100
 1075POPC   C1B12897   5.166  10.106  16.647 -0.1914 -0.3049 -0.0128
 1075POPC   C2B12898   5.502   9.795  16.873  0.1327 -0.1162  0.2280
 1075POPC   C3B12899   5.816   9.771  17.257  0.1015  0.1030  0.1121
 1075POPC   C4B12900   5.843  10.047  17.644 -0.0447  0.2380  0.0282
 1076POPC   NC312901  10.538  31.886  14.619  0.0076 -0.1477 -0.2013
 1076POPC   PO412902  10.560  32.232  14.865 -0.0891  0.0204 -0.0463
 1076POPC   GL112903  10.385  32.538  15.054  0.0416 -0.1502 -0.1374
 1076POPC   GL212904  10.259  32.376  15.262 -0.2298 -0.0644  0.0841
 1076POPC   C1A12905  10.173  32.914  15.231  0.3216  0.1955 -0.5398
 1076POPC   D2A12906   9.704  32.949  15.304 -0.0254 -0.3031  0.1385
 1076POPC   C3A12907   9.606  33.294  15.570  0.0596 -0.1356  0.2134
 1076POPC   C4A12908   9.225  33.526  15.770  0.0039  0.1464 -0.1671
 1076POPC   C1B12909  10.153  32.655  15.615 -0.0361  0.1295 -0.1771
 1076POPC   C2B12910   9.932  33.016  15.799  0.0476 -0.0300  0.1770
 1076POPC   C3B12911   9.631  33.347  16.059  0.0084  0.0330  0.1651
 1076POPC   C4B12912   9.337  33.722  16.210 -0.0396  0.3642 -0.0167
 1077POPC   NC312913   2.096   7.937  16.315  0.1364 -0.0981  0.0071
 1077POPC   PO412914   2.468   7.903  16.194  0.0470 -0.0526 -0.2074
 1077POPC   GL112915   2.419   7.472  16.354  0.1769  0.2099  0.0230
 1077POPC   GL212916   2.187   7.385  16.432  0.3024 -0.0985 -0.2154
 1077POPC   C1A12917   2.542   7.316  16.747  0.1116 -0.1279 -0.2510
 1077POPC   D2A12918   2.558   7.185  17.213  0.0546 -0.0620 -0.0779
 1077POPC   C3A12919   2.743   6.804  17.336  0.2098  0.2042  0.0415
 1077POPC   C4A12920   2.696   6.431  17.636 -0.3179 -0.0734 -0.0166
 1077POPC   C1B12921   2.171   7.707  16.760  0.0315  0.1059 -0.1623
 1077POPC   C2B12922   2.422   7.700  17.081  0.0719 -0.2829  0.0841
 1077POPC   C3B12923   2.791   7.673  17.361  0.1147 -0.0313  0.0756
 1077POPC   C4B12924   2.930   7.368  17.710 -0.0398  0.0261  0.1797
 1078POPC   NC312925   5.261   9.685  15.759  0.3625  0.0226  0.0867
 1078POPC   PO412926   4.973   9.894  15.546 -0.2028  0.1119  0.0597
 1078POPC   GL112927   5.098   9.476  15.403  0.0531 -0.0223  0.1809
 1078POPC   GL212928   5.034   9.200  15.546  0.0897 -0.4337  0.0115
 1078POPC   C1A12929   5.491   9.247  15.470  0.0669  0.1055  0.0177
 1078POPC   D2A12930   5.708   8.862  15.606 -0.3341 -0.1061 -0.1588
 1078POPC   C3A12931   5.815   8.828  16.041  0.2144 -0.2528 -0.4592
 1078POPC   C4A12932   5.985   8.446  16.243  0.2639 -0.0480  0.2745
 1078POPC   C1B12933   5.282   8.854  15.793 -0.3260 -0.0549  0.2336
 1078POPC   C2B12934   5.452   8.467  16.046 -0.3791  0.1282 -0.0746
 1078POPC   C3B12935   5.538   8.149  16.323  0.1757 -0.0364  0.1372
 1078POPC   C4B12936   5.644   7.782  16.563  0.1482 -0.4432 -0.0538
 1079POPC   NC312937   8.167  11.579  16.260 -0.3812  0.3850  0.2549
 1079POPC   PO412938   7.986  11.926  16.265  0.1148 -0.1082  0.3591
 1079POPC   GL112939   7.999  11.878  16.650 -0.3699  0.0545  0.2782
 1079POPC   GL212940   8.337  11.807  16.640 -0.1759  0.3312  0.2065
 1079POPC   C1A12941   8.034  11.466  16.876  0.1126  0.0243 -0.0454
 1079POPC   D2A12942   8.014  11.019  16.952  0.3231 -0.1304 -0.3278
 1079POPC   C3A12943   7.691  10.962  17.362 -0.1902 -0.3573  0.2067
 1079POPC   C4A12944   7.381  10.908  17.740  0.2517  0.1957  0.0565
 1079POPC   C1B12945   8.612  11.664  16.986  0.0760  0.2745  0.1433
 1079POPC   C2B12946   8.668  11.509  17.417  0.0239  0.4121 -0.0901
 1079POPC   C3B12947   8.544  11.466  17.854 -0.0695  0.0428 -0.2673
 1079POPC   C4B12948   8.597  11.564  18.287 -0.3664 -0.1589 -0.1181
 1080POPC   NC312949   7.773  10.397  14.833  0.1841 -0.2173  0.1836
 1080POPC   PO412950   8.139  10.589  14.846  0.3533 -0.1819  0.1073
 1080POPC   GL112951   8.156  10.156  14.896  0.1195  0.3006 -0.3571
 1080POPC   GL212952   8.427  10.219  14.983  0.0312  0.1499  0.0292
 1080POPC   C1A12953   8.301   9.687  14.905  0.2634  0.2463  0.1125
 1080POPC   D2A12954   8.281   9.241  14.814  0.2485 -0.0980 -0.0688
 1080POPC   C3A12955   8.447   9.019  14.398  0.0318  0.2133  0.1594
 1080POPC   C4A12956   8.298   8.740  14.030 -0.0729  0.0973  0.1585
 1080POPC   C1B12957   8.448   9.939  15.370  0.1379  0.0266 -0.3366
 1080POPC   C2B12958   8.637   9.798  15.767  0.1058 -0.2440 -0.0915
 1080POPC   C3B12959   8.442   9.665  16.180 -0.1140  0.2043 -0.3763
 1080POPC   C4B12960   8.604   9.571  16.633  0.2425 -0.0859  0.1408
 1081POPC   NC312961  10.188  14.881  15.525 -0.1274 -0.1078 -0.0134
 1081POPC   PO412962  10.525  15.020  15.663 -0.1862 -0.3600 -0.0901
 1081POPC   GL112963  10.410  15.203  15.917 -0.0241 -0.1945  0.2866
 1081POPC   GL212964  10.099  15.163  15.955 -0.0002 -0.1086  0.0312
 1081POPC   C1A12965  10.573  15.424  16.271 -0.2569 -0.1038 -0.0028
 1081POPC   D2A12966  10.597  15.543  16.711  0.2976  0.2765 -0.1879
 1081POPC   C3A12967  10.589  16.009  16.662  0.1591 -0.0701 -0.1181
 1081POPC   C4A12968  10.631  16.392  16.800 -0.0172 -0.0092 -0.3820
 1081POPC   C1B12969  10.180  15.081  16.436  0.2341  0.0549  0.0080
 1081POPC   C2B12970  10.394  15.134  16.868  0.2616  0.1367  0.2585
 1081POPC   C3B12971  10.384  15.318  17.326  0.0372 -0.0321  0.0141
 1081POPC   C4B12972  10.372  15.229  17.805 -0.0645 -0.2701 -0.1510
 1082POPC   NC312973   5.209   1.971  14.214 -0.0514 -0.0228  0.1026
 1082POPC   PO412974   5.018   1.916  14.572  0.0217  0.2498  0.1236
 1082POPC   GL112975   5.057   2.133  14.907 -0.2115  0.1023 -0.1639
 1082POPC   GL212976   5.281   1.998  14.980 -0.1224  0.0849 -0.2290
 1082POPC   C1A12977   5.071   2.406  15.295  0.0108  0.2716  0.1936
 1082POPC   D2A12978   5.158   2.549  15.721  0.3395  0.0850 -0.3451
 1082POPC   C3A12979   5.410   2.909  15.899  0.0786 -0.1418 -0.0903
 1082POPC   C4A12980   5.547   3.186  16.333 -0.2428 -0.0245  0.3079
 1082POPC   C1B12981   5.511   2.153  15.392  0.0215  0.1768 -0.0724
 1082POPC   C2B12982   5.580   2.257  15.777  0.1116 -0.1613  0.2226
 1082POPC   C3B12983   5.748   2.150  16.187  0.2580  0.0297  0.2909
 1082POPC   C4B12984   5.943   2.291  16.568 -0.0410 -0.1340 -0.1783
 1083POPC   NC312985  16.065  10.121  16.623  0.3684  0.0873 -0.2177
 1083POPC   PO412986  15.871   9.803  16.460  0.1926  0.0283  0.2371
 1083POPC   GL112987  15.894   9.769  16.898 -0.0633 -0.0012  0.0003
 1083POPC   GL212988  15.700   9.549  16.912  0.2808  0.0329 -0.0975
 1083POPC   C1A12989  16.063   9.765  17.310  0.0774  0.0856  0.0221
 1083POPC   D2A12990  16.161   9.718  17.750  0.3033  0.3435  0.0009
 1083POPC   C3A12991  16.309   9.316  17.848 -0.1511 -0.0385 -0.1959
 1083POPC   C4A12992  16.489   9.019  17.626 -0.0316  0.0535 -0.0537
 1083POPC   C1B12993  15.406   9.219  17.160 -0.0429 -0.0528  0.0155
 1083POPC   C2B12994  15.495   8.934  17.538  0.0718  0.1220  0.0483
 1083POPC   C3B12995  15.337   8.531  17.579 -0.0486  0.0547 -0.2725
 1083POPC   C4B12996  15.013   8.164  17.683 -0.0817 -0.3427  0.0331
 1084POPC   NC312997   5.899  12.545  16.165  0.2230 -0.1816  0.2364
 1084POPC   PO412998   6.114  12.905  16.248  0.2698  0.0188  0.3207
 1084POPC   GL112999   6.285  12.952  16.634 -0.0082  0.3459  0.1957
 1084POPC   GL213000   6.056  12.704  16.704  0.0658 -0.1194 -0.0188
 1084POPC   C1A13001   6.531  12.705  16.968 -0.0672  0.0151 -0.0223
 1084POPC   D2A13002   6.811  12.529  17.297  0.2146  0.0200  0.2357
 1084POPC   C3A13003   6.907  12.144  17.576  0.2069 -0.1827  0.2191
 1084POPC   C4A13004   6.961  11.880  17.927 -0.2555 -0.0930 -0.2347
 1084POPC   C1B13005   5.876  12.663  17.089  0.3181  0.1977 -0.0391
 1084POPC   C2B13006   5.736  12.613  17.512  0.0872 -0.1386 -0.2517
 1084POPC   C3B13007   5.704  12.445  17.934  0.2620  0.1664  0.2886
 1084POPC   C4B13008   5.596  12.473  18.366 -0.3313  0.2029  0.0856
 1085POPC   NC313009   1.374  13.522  16.807  0.2429 -0.0601  0.0401
 1085POPC   PO413010   1.133  13.865  16.795 -0.2667  0.0666  0.0207
 1085POPC   GL113011   1.247  14.089  17.151  0.1358  0.0345 -0.1527
 1085POPC   GL213012   1.214  13.860  17.328 -0.2017  0.2341 -0.2930
 1085POPC   C1A13013   1.378  14.345  17.569 -0.1384 -0.1932  0.3344
 1085POPC   D2A13014   1.731  14.456  17.769 -0.3693  0.1148  0.1199
 1085POPC   C3A13015   1.968  14.206  18.011  0.0757 -0.0765 -0.0226
 1085POPC   C4A13016   1.694  13.926  18.275  0.1844  0.1433  0.1334
 1085POPC   C1B13017   0.961  13.901  17.691  0.1033 -0.0530  0.1075
 1085POPC   C2B13018   0.571  14.125  17.855 -0.0028 -0.2387  0.0705
 1085POPC   C3B13019   0.331  14.105  18.299  0.1296 -0.2395 -0.1201
 1085POPC   C4B13020   0.132  13.943  18.660  0.2561  0.0148  0.0498
 1086POPC   NC313021  13.605  10.740  16.295 -0.1230 -0.1991 -0.2872
 1086POPC   PO413022  13.402  11.087  16.259  0.2525 -0.4273 -0.0722
 1086POPC   GL113023  13.328  11.019  16.621  0.2346  0.0957  0.1524
 1086POPC   GL213024  13.554  10.892  16.762 -0.1318  0.1172 -0.2799
 1086POPC   C1A13025  13.107  10.688  16.882  0.1785 -0.0946 -0.0512
 1086POPC   D2A13026  12.709  10.471  17.000 -0.0452  0.0167 -0.1727
 1086POPC   C3A13027  12.541  10.361  17.407 -0.0596  0.0345 -0.2039
 1086POPC   C4A13028  12.336  10.382  17.828 -0.2810 -0.2444  0.1675
 1086POPC   C1B13029  13.380  11.009  17.188 -0.2232  0.0589  0.0318
 1086POPC   C2B13030  12.959  10.884  17.396 -0.0414 -0.0413  0.3136
 1086POPC   C3B13031  12.906  10.639  17.787 -0.0349 -0.1424  0.0202
 1086POPC   C4B13032  12.768  10.350  18.098 -0.3048  0.0722  0.0140
 1087POPC   NC313033   7.331  14.170  16.358 -0.0054  0.2187 -0.3682
 1087POPC   PO413034   7.570  14.034  16.665  0.1865 -0.0719  0.1331
 1087POPC   GL113035   7.597  14.175  17.019  0.0001  0.4628  0.0172
 1087POPC   GL213036   7.644  13.996  17.204  0.0421  0.0519 -0.2255
 1087POPC   C1A13037   7.392  14.378  17.348  0.0234 -0.0173  0.1420
 1087POPC   D2A13038   7.198  14.697  17.589  0.0635 -0.2114  0.1108
 1087POPC   C3A13039   6.869  15.007  17.500  0.1930  0.4069  0.1334
 1087POPC   C4A13040   6.906  15.435  17.339 -0.2316  0.1799  0.2729
 1087POPC   C1B13041   7.650  14.041  17.652 -0.0956  0.0637  0.2848
 1087POPC   C2B13042   7.614  14.464  17.786 -0.0138  0.4091  0.1164
 1087POPC   C3B13043   7.691  14.910  17.875  0.1887  0.1344 -0.2689
 1087POPC   C4B13044   7.912  15.271  17.794 -0.2174  0.0646  0.1641
 1088POPC   NC313045   1.287   8.004  16.262 -0.0718  0.2186  0.1598
 1088POPC   PO413046   1.657   7.833  16.221  0.0971  0.4260 -0.1724
 1088POPC   GL113047   1.503   7.748  16.517 -0.0596  0.0912  0.1068
 1088POPC   GL213048   1.486   7.966  16.719  0.1124 -0.0320  0.1206
 1088POPC   C1A13049   1.720   7.446  16.722  0.1714 -0.1026  0.3888
 1088POPC   D2A13050   2.105   7.251  16.966  0.1745 -0.3866 -0.0485
 1088POPC   C3A13051   2.146   7.340  17.378  0.0046 -0.3148  0.0587
 1088POPC   C4A13052   2.427   7.486  17.692 -0.2162  0.1679  0.2284
 1088POPC   C1B13053   1.685   7.734  17.114  0.2197  0.1193 -0.0986
 1088POPC   C2B13054   1.917   7.740  17.496 -0.1897 -0.1614 -0.0704
 1088POPC   C3B13055   2.033   7.714  17.996 -0.0608  0.1273 -0.1530
 1088POPC   C4B13056   2.263   7.370  18.176  0.0111  0.1025  0.4807
 1089POPC   NC313057  12.130  10.467   9.902  0.2426  0.1890  0.0015
 1089POPC   PO413058  12.448  10.678   9.843 -0.0398 -0.1514 -0.1425
 1089POPC   GL113059  12.340  10.638   9.488  0.0602 -0.2777  0.2888
 1089POPC   GL213060  12.385  10.608   9.156  0.1296 -0.4407 -0.4826
 1089POPC   C1A13061  12.181  10.208   9.402  0.1453  0.3591  0.1293
 1089POPC   D2A13062  11.976   9.914   9.083  0.0773 -0.0330 -0.0104
 1089POPC   C3A13063  11.979   9.778   8.623  0.3920 -0.0065  0.1392
 1089POPC   C4A13064  11.768   9.986   8.271 -0.0341 -0.2443  0.0124
 1089POPC   C1B13065  12.122  10.388   8.889 -0.1966 -0.0767 -0.0683
 1089POPC   C2B13066  12.231  10.203   8.508  0.0609  0.0965 -0.0544
 1089POPC   C3B13067  12.175  10.198   8.030 -0.3842  0.0018  0.1599
 1089POPC   C4B13068  11.906  10.024   7.733  0.1589  0.2445 -0.0036
 1090POPC   NC313069  16.257   5.593  15.571  0.1696  0.3345 -0.0429
 1090POPC   PO413070  16.467   5.272  15.525 -0.5006  0.1982 -0.1665
 1090POPC   GL113071  16.602   5.105  15.837  0.0722  0.1919  0.1530
 1090POPC   GL213072  16.929   5.111  15.800  0.1568 -0.0471  0.2419
 1090POPC   C1A13073  16.567   5.138  16.287  0.3430  0.0404 -0.2460
 1090POPC   D2A13074  16.394   5.305  16.735 -0.0118 -0.2929  0.0807
 1090POPC   C3A13075  16.109   5.096  17.057  0.1297 -0.0037  0.0058
 1090POPC   C4A13076  16.046   4.863  17.435 -0.1780 -0.1858 -0.1224
 1090POPC   C1B13077  16.895   4.734  16.020 -0.1243  0.0855 -0.0792
 1090POPC   C2B13078  16.683   4.601  16.378  0.0536  0.1133  0.0386
 1090POPC   C3B13079  16.499   4.367  16.743  0.2375 -0.0147 -0.2632
 1090POPC   C4B13080  16.534   4.366  17.167 -0.2007 -0.3029 -0.0402
 1091POPC   NC313081  11.108  11.966   8.999  0.1160 -0.1191 -0.2661
 1091POPC   PO413082  11.133  11.925   9.413 -0.3476  0.2155 -0.2220
 1091POPC   GL113083  11.272  11.567   9.263 -0.0142 -0.1420 -0.2167
 1091POPC   GL213084  11.492  11.560   9.366 -0.1561 -0.2025  0.1350
 1091POPC   C1A13085  11.081  11.240   9.026 -0.0816 -0.1490 -0.1185
 1091POPC   D2A13086  10.858  11.086   8.620  0.0305  0.0170 -0.0615
 1091POPC   C3A13087  11.174  10.949   8.270  0.0782  0.3919  0.2479
 1091POPC   C4A13088  11.468  10.790   7.956 -0.1326  0.1083 -0.0341
 1091POPC   C1B13089  11.547  11.178   9.113  0.0136 -0.0483 -0.3767
 1091POPC   C2B13090  11.340  10.859   8.832 -0.2285 -0.0384 -0.0681
 1091POPC   C3B13091  11.327  10.532   8.516 -0.1324  0.1645  0.0316
 1091POPC   C4B13092  11.089  10.503   8.105  0.0549  0.0761 -0.2012
 1092POPC   NC313093  14.760   1.368  15.772 -0.2265 -0.0919 -0.1300
 1092POPC   PO413094  14.754   1.662  15.518  0.2739  0.2444  0.5137
 1092POPC   GL113095  14.881   1.902  15.806  0.1924 -0.0478  0.1991
 1092POPC   GL213096  15.185   1.867  15.804  0.2934  0.1756 -0.0401
 1092POPC   C1A13097  14.652   1.931  16.221 -0.1126  0.1450  0.2157
 1092POPC   D2A13098  14.434   1.695  16.577 -0.0072 -0.1252 -0.1673
 1092POPC   C3A13099  14.375   1.828  17.013  0.0497  0.0731 -0.1199
 1092POPC   C4A13100  14.596   1.861  17.392  0.1680  0.0402  0.1271
 1092POPC   C1B13101  15.259   1.921  16.288  0.1627 -0.2603 -0.5616
 1092POPC   C2B13102  15.273   2.170  16.723 -0.3338  0.3299 -0.3071
 1092POPC   C3B13103  15.028   2.501  16.900 -0.0162  0.3417 -0.0935
 1092POPC   C4B13104  14.693   2.720  17.104  0.1697  0.0357 -0.1142
 1093POPC   NC313105   6.236  17.111  14.985 -0.2570 -0.2754 -0.0823
 1093POPC   PO413106   6.187  17.018  15.342  0.1773  0.0743  0.0552
 1093POPC   GL113107   6.228  17.167  15.719 -0.0052 -0.1271  0.1439
 1093POPC   GL213108   6.183  16.922  15.831  0.0632 -0.0904  0.1903
 1093POPC   C1A13109   6.583  17.316  15.908 -0.2694 -0.3203 -0.0705
 1093POPC   D2A13110   6.962  17.288  16.260  0.1559  0.0618 -0.2017
 1093POPC   C3A13111   7.221  17.629  16.446 -0.2366 -0.2855 -0.4782
 1093POPC   C4A13112   7.227  17.720  16.894 -0.0912 -0.0854 -0.0077
 1093POPC   C1B13113   6.298  17.054  16.239  0.1288 -0.0885 -0.1280
 1093POPC   C2B13114   6.566  17.195  16.555 -0.1592  0.0913  0.1049
 1093POPC   C3B13115   6.491  17.133  17.017 -0.2234  0.3483 -0.0592
 1093POPC   C4B13116   6.316  16.963  17.346 -0.0597  0.1243 -0.0212
 1094POPC   NC313117  13.981   6.467  13.571 -0.0697  0.0636 -0.0601
 1094POPC   PO413118  14.218   6.773  13.620  0.0822 -0.2234  0.1734
 1094POPC   GL113119  13.829   6.963  13.676  0.0294  0.2143 -0.0493
 1094POPC   GL213120  13.719   7.094  13.443  0.0995  0.1286  0.0203
 1094POPC   C1A13121  13.433   7.069  13.884 -0.4017 -0.2686  0.1425
 1094POPC   D2A13122  13.123   6.945  14.217 -0.1100  0.0648  0.0368
 1094POPC   C3A13123  12.765   6.949  14.015 -0.0719  0.0497  0.1043
 1094POPC   C4A13124  12.322   6.796  14.012 -0.1540  0.1806  0.1056
 1094POPC   C1B13125  13.455   6.706  13.369  0.0856  0.4215 -0.2778
 1094POPC   C2B13126  13.084   6.424  13.319 -0.2623 -0.0165 -0.0211
 1094POPC   C3B13127  12.657   6.397  13.416  0.0408  0.0083  0.1350
 1094POPC   C4B13128  12.349   6.053  13.328 -0.0581 -0.2690 -0.0369
 1095POPC   NC313129  13.994   7.732  12.709  0.2014 -0.0819  0.3746
 1095POPC   PO413130  14.204   7.761  13.040  0.0722 -0.0540 -0.1756
 1095POPC   GL113131  13.842   7.592  13.085 -0.0159 -0.2494 -0.0555
 1095POPC   GL213132  13.598   7.679  13.266 -0.0552 -0.0318  0.1267
 1095POPC   C1A13133  13.506   7.567  12.786  0.0983  0.2691  0.1486
 1095POPC   D2A13134  13.164   7.257  12.734  0.0433 -0.4072 -0.0888
 1095POPC   C3A13135  12.773   7.169  12.546 -0.0405  0.2862 -0.0685
 1095POPC   C4A13136  12.496   7.228  12.243 -0.0361 -0.4891 -0.1481
 1095POPC   C1B13137  13.291   7.575  13.630 -0.1318 -0.1397 -0.2359
 1095POPC   C2B13138  12.984   7.403  13.944 -0.2308 -0.0847 -0.0563
 1095POPC   C3B13139  12.681   7.401  14.316 -0.0567  0.3699  0.0819
 1095POPC   C4B13140  12.439   7.066  14.582 -0.0837 -0.2789  0.0022
 1096POPC   NC313141   7.494   0.284  14.977  0.2236 -0.1018  0.4982
 1096POPC   PO413142   7.704  -0.037  15.043 -0.2199  0.0151 -0.1784
 1096POPC   GL113143   7.635   0.104  15.388  0.1536 -0.0677 -0.2156
 1096POPC   GL213144   7.813   0.335  15.405 -0.2239 -0.1779 -0.1731
 1096POPC   C1A13145   7.444   0.347  15.761 -0.3915  0.0438  0.0509
 1096POPC   D2A13146   7.618   0.687  16.099 -0.1517 -0.1521  0.0644
 1096POPC   C3A13147   7.744   0.994  16.444  0.2011  0.0439 -0.0477
 1096POPC   C4A13148   8.108   1.047  16.728 -0.4013 -0.0672  0.3903
 1096POPC   C1B13149   7.993   0.720  15.660  0.2161 -0.4166  0.0181
 1096POPC   C2B13150   8.100   0.857  16.054 -0.0429  0.1872  0.1511
 1096POPC   C3B13151   8.509   0.987  16.211 -0.0698 -0.0428 -0.0650
 1096POPC   C4B13152   8.887   1.121  16.350 -0.0625  0.0320  0.0822
 1097POPC   NC313153   2.010   2.539  15.405  0.1298  0.2246 -0.3922
 1097POPC   PO413154   1.774   2.889  15.484  0.0319 -0.1309 -0.2490
 1097POPC   GL113155   1.845   2.807  15.866 -0.1177  0.0649 -0.1768
 1097POPC   GL213156   1.530   2.768  15.907  0.0696 -0.1617 -0.3213
 1097POPC   C1A13157   1.931   2.775  16.343 -0.1595  0.1327 -0.1748
 1097POPC   D2A13158   2.055   3.135  16.578 -0.0613 -0.1401 -0.1484
 1097POPC   C3A13159   1.872   3.601  16.404  0.0349  0.2177  0.1345
 1097POPC   C4A13160   1.628   3.730  16.034  0.0673  0.1515  0.1472
 1097POPC   C1B13161   1.287   2.764  16.331  0.2469  0.1438 -0.0517
 1097POPC   C2B13162   1.166   2.776  16.781 -0.2409  0.2795 -0.1204
 1097POPC   C3B13163   1.172   3.005  17.235  0.0968  0.0250 -0.1882
 1097POPC   C4B13164   1.463   3.392  17.411 -0.1227  0.0489  0.0665
 1098POPC   NC313165   0.601   5.301  15.342  0.1001  0.2039 -0.1710
 1098POPC   PO413166   0.412   4.955  15.273  0.1688 -0.2404 -0.2649
 1098POPC   GL113167   0.110   4.820  15.496  0.2954 -0.1851 -0.0516
 1098POPC   GL213168   0.187   4.494  15.542 -0.2444 -0.1461 -0.1539
 1098POPC   C1A13169  -0.094   4.736  15.922  0.0920  0.0127  0.0939
 1098POPC   D2A13170  -0.249   4.635  16.331  0.0437 -0.1824  0.0213
 1098POPC   C3A13171  -0.024   4.848  16.675 -0.1227  0.0435 -0.0878
 1098POPC   C4A13172   0.137   4.854  17.130  0.0964 -0.1456 -0.0342
 1098POPC   C1B13173   0.209   4.283  15.989 -0.1586  0.1416  0.1793
 1098POPC   C2B13174   0.026   3.987  16.313  0.0254  0.0694 -0.0655
 1098POPC   C3B13175  -0.174   3.960  16.696  0.1575 -0.3516 -0.0301
 1098POPC   C4B13176  -0.358   4.008  17.128 -0.0452 -0.1291 -0.0030
 1099POPC   NC313177   6.183   9.628  14.478  0.1867  0.0368  0.0103
 1099POPC   PO413178   5.959   9.290  14.529  0.5118 -0.1489 -0.1983
 1099POPC   GL113179   6.133   8.969  14.684  0.3198  0.1825 -0.3431
 1099POPC   GL213180   6.401   9.021  14.621  0.3406 -0.1833  0.2047
 1099POPC   C1A13181   6.002   8.545  14.677 -0.3085 -0.1961 -0.1680
 1099POPC   D2A13182   6.063   8.151  14.558 -0.0211  0.3045  0.2659
 1099POPC   C3A13183   6.381   8.050  14.852 -0.1031  0.0529  0.0552
 1099POPC   C4A13184   6.680   7.926  15.125  0.2121 -0.0357  0.2115
 1099POPC   C1B13185   6.702   8.660  14.726 -0.1158 -0.3062  0.1503
 1099POPC   C2B13186   7.086   8.365  14.804 -0.0087 -0.1083 -0.1185
 1099POPC   C3B13187   7.418   8.326  15.098 -0.1749 -0.0868 -0.0162
 1099POPC   C4B13188   7.610   8.166  15.481  0.0296  0.1341 -0.2278
 1100POPC   NC313189   5.771   0.191  14.660  0.3437 -0.0540 -0.0970
 1100POPC   PO413190   6.040   0.241  14.940  0.0715  0.0271  0.2888
 1100POPC   GL113191   6.257   0.235  15.366 -0.1440 -0.2098 -0.1537
 1100POPC   GL213192   6.150   0.004  15.594  0.0225 -0.3823  0.1508
 1100POPC   C1A13193   6.471   0.396  15.750  0.2123  0.0933 -0.4980
 1100POPC   D2A13194   6.604   0.781  15.969  0.0448  0.1232  0.0570
 1100POPC   C3A13195   6.548   0.902  16.378 -0.1157 -0.2639  0.1450
 1100POPC   C4A13196   6.419   0.987  16.757  0.1441 -0.1773  0.0656
 1100POPC   C1B13197   6.087   0.118  16.088 -0.1915  0.0093  0.3763
 1100POPC   C2B13198   6.019   0.195  16.535  0.0061  0.1939 -0.1658
 1100POPC   C3B13199   5.713   0.501  16.731  0.2951  0.0419  0.0814
 1100POPC   C4B13200   5.666   0.745  17.110  0.2656  0.1415  0.0537
 1101POPC   NC313201   0.242   8.444  16.043  0.0542  0.3412 -0.0131
 1101POPC   PO413202   0.043   8.108  15.953 -0.1174 -0.0253 -0.0074
 1101POPC   GL113203   0.094   8.110  16.402 -0.0545 -0.4367  0.1060
 1101POPC   GL213204  -0.109   8.283  16.448 -0.0391  0.5720  0.2048
 1101POPC   C1A13205  -0.048   8.017  16.814 -0.1461 -0.0347 -0.0563
 1101POPC   D2A13206  -0.266   8.142  17.241  0.0040 -0.2553 -0.3425
 1101POPC   C3A13207  -0.167   8.454  17.602 -0.0381 -0.3658 -0.0127
 1101POPC   C4A13208  -0.154   8.734  17.975 -0.2355 -0.1643  0.1075
 1101POPC   C1B13209  -0.194   8.506  16.831 -0.0099 -0.2845 -0.1265
 1101POPC   C2B13210   0.006   8.782  17.190 -0.1088 -0.0850 -0.2830
 1101POPC   C3B13211   0.292   8.565  17.479 -0.1552 -0.0707  0.0349
 1101POPC   C4B13212   0.286   8.550  17.954 -0.3080  0.0027  0.4316
 1102POPC   NC313213  12.841  10.333  15.934 -0.0600 -0.0843  0.1185
 1102POPC   PO413214  12.927   9.982  15.943  0.1701  0.1642 -0.1469
 1102POPC   GL113215  12.993  10.013  16.311  0.1888  0.0960  0.0635
 1102POPC   GL213216  13.250   9.924  16.402 -0.1435 -0.1064 -0.0096
 1102POPC   C1A13217  12.938   9.730  16.718 -0.0093  0.0232  0.0501
 1102POPC   D2A13218  13.018   9.473  17.076 -0.1728 -0.2180  0.0407
 1102POPC   C3A13219  13.078   9.572  17.515 -0.1047 -0.2366 -0.2788
 1102POPC   C4A13220  13.389   9.503  17.844 -0.3942  0.1130 -0.2264
 1102POPC   C1B13221  13.391   9.482  16.496  0.0738 -0.1318 -0.0629
 1102POPC   C2B13222  13.445   9.163  16.876  0.0753  0.2703 -0.1479
 1102POPC   C3B13223  13.322   9.096  17.283  0.3498 -0.1995  0.1715
 1102POPC   C4B13224  13.039   8.983  17.654  0.0647  0.1620 -0.1401
 1103POPC   NC313225   1.109  12.877  16.337 -0.0234  0.0631 -0.3216
 1103POPC   PO413226   1.139  13.214  16.550 -0.0811  0.0969 -0.1529
 1103POPC   GL113227   0.949  13.407  16.850 -0.2871  0.1160 -0.2527
 1103POPC   GL213228   0.976  13.160  17.039 -0.0035 -0.2154 -0.4193
 1103POPC   C1A13229   0.889  13.554  17.300  0.2717 -0.0011 -0.1765
 1103POPC   D2A13230   0.926  13.374  17.732 -0.0027  0.2977  0.1685
 1103POPC   C3A13231   0.561  13.110  17.906  0.0968 -0.2453  0.0441
 1103POPC   C4A13232   0.151  13.096  18.135 -0.1160 -0.0120 -0.3630
 1103POPC   C1B13233   0.966  12.924  17.437 -0.1022  0.0020 -0.2131
 1103POPC   C2B13234   0.955  12.881  17.943 -0.0744 -0.1035 -0.2132
 1103POPC   C3B13235   0.734  12.829  18.395 -0.0315 -0.5540 -0.1009
 1103POPC   C4B13236   0.289  12.879  18.620  0.0106 -0.3754 -0.1190
 1104POPC   NC313237   8.723  13.108  16.695  0.2060  0.1161 -0.0653
 1104POPC   PO413238   9.049  13.376  16.671 -0.4161 -0.4608 -0.0720
 1104POPC   GL113239   9.165  13.443  17.066 -0.2677  0.2134  0.2294
 1104POPC   GL213240   9.419  13.615  16.990  0.1664  0.0893  0.0904
 1104POPC   C1A13241   9.329  13.291  17.498  0.1052  0.0230  0.2500
 1104POPC   D2A13242   9.226  13.080  17.929 -0.2165 -0.0854  0.3072
 1104POPC   C3A13243   9.037  13.174  18.359  0.2156  0.1900  0.0493
 1104POPC   C4A13244   9.383  13.179  18.700  0.0159  0.1261 -0.1875
 1104POPC   C1B13245   9.303  13.812  17.357 -0.1634  0.1011 -0.0553
 1104POPC   C2B13246   9.456  13.995  17.736  0.1080 -0.0717  0.0191
 1104POPC   C3B13247   9.535  14.227  18.155  0.1557  0.2465  0.2285
 1104POPC   C4B13248   9.550  14.701  18.337  0.2721  0.0573 -0.2094
 1105POPC   NC313249   2.777   5.347  15.343  0.1421 -0.0631  0.3208
 1105POPC   PO413250   2.741   4.958  15.287 -0.1969 -0.0830 -0.0971
 1105POPC   GL113251   2.805   5.027  15.708 -0.1168 -0.3045 -0.0144
 1105POPC   GL213252   2.891   5.329  15.896  0.1778 -0.0311  0.1996
 1105POPC   C1A13253   3.183   4.950  15.929  0.3843  0.0970 -0.0455
 1105POPC   D2A13254   3.315   5.138  16.335 -0.2583 -0.2884 -0.4464
 1105POPC   C3A13255   3.575   5.051  16.672  0.0524 -0.3255  0.2507
 1105POPC   C4A13256   3.666   4.637  16.971 -0.1206  0.1436 -0.0027
 1105POPC   C1B13257   2.794   5.049  16.243 -0.2596  0.0153 -0.0533
 1105POPC   C2B13258   2.660   4.891  16.663  0.1485  0.2819  0.0650
 1105POPC   C3B13259   2.373   4.719  17.023  0.0655  0.2933 -0.0488
 1105POPC   C4B13260   2.505   4.641  17.469 -0.1647  0.0472  0.2378
 1106POPC   NC313261   3.998  14.515   8.543  0.0114 -0.1832 -0.0575
 1106POPC   PO413262   3.936  14.907   8.584 -0.0266  0.1104  0.0736
 1106POPC   GL113263   3.993  14.980   8.162  0.0933 -0.3888  0.2794
 1106POPC   GL213264   3.979  14.674   8.082  0.2132 -0.0476 -0.1624
 1106POPC   C1A13265   3.918  14.932   7.691 -0.0120 -0.0562  0.1590
 1106POPC   D2A13266   3.712  15.030   7.321  0.0849 -0.0271  0.0410
 1106POPC   C3A13267   3.708  15.216   6.860  0.0412  0.1444  0.0149
 1106POPC   C4A13268   3.719  15.223   6.416  0.1196 -0.1026 -0.1713
 1106POPC   C1B13269   4.351  14.749   7.775 -0.0733  0.2816  0.0692
 1106POPC   C2B13270   4.452  15.025   7.430  0.2906  0.0119 -0.0872
 1106POPC   C3B13271   4.523  15.070   6.985 -0.0027  0.1090  0.4558
 1106POPC   C4B13272   4.722  15.431   6.721  0.2235 -0.1385  0.2670
 1107POPC   NC313273  14.439   1.556  15.158  0.3856  0.0344  0.0872
 1107POPC   PO413274  14.109   1.502  14.949  0.2383 -0.3551  0.0464
 1107POPC   GL113275  14.011   1.714  15.349 -0.0335  0.2642 -0.1960
 1107POPC   GL213276  13.938   1.884  15.365 -0.1246 -0.2397  0.1531
 1107POPC   C1A13277  13.927   1.682  15.804 -0.0365 -0.1596 -0.1800
 1107POPC   D2A13278  13.927   1.666  16.268  0.1736  0.0128 -0.0788
 1107POPC   C3A13279  14.128   2.045  16.228  0.3880  0.1224  0.0639
 1107POPC   C4A13280  14.334   2.488  16.377  0.0748  0.0248  0.2096
 1107POPC   C1B13281  13.515   1.723  15.461 -0.1154 -0.0436 -0.1263
 1107POPC   C2B13282  13.108   1.788  15.630 -0.1944  0.0067 -0.2110
 1107POPC   C3B13283  12.970   1.637  16.033  0.2242 -0.0229 -0.1735
 1107POPC   C4B13284  13.014   1.495  16.483  0.0014  0.2942  0.1125
 1108POPC   NC313285   2.214  15.754  16.383  0.0541 -0.1184  0.3881
 1108POPC   PO413286   2.459  16.050  16.390  0.0548  0.1562 -0.2480
 1108POPC   GL113287   2.100  16.148  16.553  0.4801 -0.2086  0.0510
 1108POPC   GL213288   2.251  16.299  16.776  0.1266  0.1615  0.0076
 1108POPC   C1A13289   1.749  16.132  16.835  0.1396  0.1111 -0.1431
 1108POPC   D2A13290   1.711  16.186  17.290  0.0730 -0.0092  0.1304
 1108POPC   C3A13291   1.358  16.318  17.549 -0.3670  0.0665 -0.1689
 1108POPC   C4A13292   1.244  16.260  18.038 -0.0520  0.0985 -0.4802
 1108POPC   C1B13293   2.341  16.614  17.133 -0.1149  0.0013  0.2447
 1108POPC   C2B13294   2.321  16.782  17.577  0.2783 -0.0589 -0.1882
 1108POPC   C3B13295   1.927  17.018  17.677 -0.2319  0.1325  0.1112
 1108POPC   C4B13296   1.766  17.145  18.042  0.0232 -0.2403  0.0666
 1109POPC   NC313297   4.342  13.673  16.952  0.1591 -0.0046  0.1316
 1109POPC   PO413298   4.666  13.438  16.806  0.1049 -0.0042 -0.0792
 1109POPC   GL113299   4.586  13.394  17.202 -0.1736  0.1624  0.0606
 1109POPC   GL213300   4.701  13.154  17.209 -0.0437  0.1931 -0.0477
 1109POPC   C1A13301   4.575  13.759  17.442 -0.0903 -0.1083  0.2063
 1109POPC   D2A13302   4.594  14.220  17.585 -0.0437  0.0461 -0.0236
 1109POPC   C3A13303   4.500  14.449  17.977 -0.1411 -0.0358  0.2026
 1109POPC   C4A13304   4.507  14.493  18.455  0.0248  0.0255 -0.1908
 1109POPC   C1B13305   4.525  13.309  17.658 -0.0313 -0.0922  0.5959
 1109POPC   C2B13306   4.562  13.293  18.162 -0.0875 -0.2752  0.1070
 1109POPC   C3B13307   4.618  13.525  18.570  0.2454  0.1181  0.1666
 1109POPC   C4B13308   4.280  13.833  18.744 -0.0530 -0.0962  0.0153
 1110POPC   NC313309   2.000  13.038  16.615 -0.0261 -0.3849  0.2716
 1110POPC   PO413310   1.647  12.924  16.457 -0.0731  0.1413 -0.2736
 1110POPC   GL113311   1.469  13.068  16.795  0.0566 -0.1844  0.1436
 1110POPC   GL213312   1.735  13.203  17.045 -0.0544  0.0970  0.1079
 1110POPC   C1A13313   1.437  12.821  17.185 -0.3646 -0.0084 -0.1405
 1110POPC   D2A13314   1.386  12.974  17.658 -0.2788  0.0238 -0.1126
 1110POPC   C3A13315   1.411  12.525  17.890 -0.0355  0.5371 -0.0881
 1110POPC   C4A13316   1.802  12.342  18.142 -0.0931  0.2526  0.0769
 1110POPC   C1B13317   1.427  13.346  17.282 -0.3178  0.0763  0.0984
 1110POPC   C2B13318   1.401  13.457  17.718  0.1028  0.0724 -0.0790
 1110POPC   C3B13319   1.205  13.614  18.094 -0.1416 -0.1839  0.0491
 1110POPC   C4B13320   1.327  13.349  18.514 -0.1478 -0.0843  0.2413
 1111POPC   NC313321  13.974   5.073  12.169 -0.1089  0.1729  0.1742
 1111POPC   PO413322  14.216   5.012  12.500 -0.1640  0.1405 -0.3133
 1111POPC   GL113323  13.786   4.968  12.583  0.0878  0.1084 -0.1622
 1111POPC   GL213324  13.544   4.838  12.356 -0.1656 -0.0611  0.0191
 1111POPC   C1A13325  13.326   5.089  12.779 -0.1486 -0.0278 -0.4098
 1111POPC   D2A13326  13.043   5.369  12.945 -0.0208  0.1449 -0.1498
 1111POPC   C3A13327  13.027   5.349  13.450 -0.0588  0.3295  0.1145
 1111POPC   C4A13328  12.811   5.365  13.883  0.0575 -0.0938  0.3347
 1111POPC   C1B13329  13.097   4.976  12.347 -0.3708 -0.1912  0.0296
 1111POPC   C2B13330  12.840   5.181  12.556  0.0108 -0.1133 -0.0191
 1111POPC   C3B13331  12.407   5.296  12.583  0.1904 -0.1264 -0.0408
 1111POPC   C4B13332  12.015   5.500  12.538 -0.0666  0.0541  0.1620
 1112POPC   NC313333   6.848   1.747  12.384 -0.3128  0.1477  0.1766
 1112POPC   PO413334   6.561   1.941  12.237  0.3328  0.2032  0.1655
 1112POPC   GL113335   6.831   2.148  12.161  0.4847 -0.1749 -0.1204
 1112POPC   GL213336   6.834   2.293  11.897 -0.1250  0.0228  0.1410
 1112POPC   C1A13337   6.962   2.513  12.445  0.0250  0.2690  0.2904
 1112POPC   D2A13338   7.311   2.815  12.520  0.3338 -0.1590  0.2449
 1112POPC   C3A13339   7.286   3.174  12.833 -0.2317 -0.0695 -0.0300
 1112POPC   C4A13340   7.511   3.444  13.157  0.3766  0.2291  0.0626
 1112POPC   C1B13341   7.043   2.599  11.718 -0.1086 -0.1570  0.0668
 1112POPC   C2B13342   7.099   3.065  11.650 -0.1314  0.2802  0.1905
 1112POPC   C3B13343   7.109   3.429  11.374  0.1260 -0.0761 -0.2253
 1112POPC   C4B13344   7.008   3.884  11.210 -0.0424 -0.2755  0.0197
 1113POPC   NC313345  14.014   8.889  15.182  0.1038  0.0903 -0.2821
 1113POPC   PO413346  13.843   8.564  15.356 -0.1345 -0.0471  0.1512
 1113POPC   GL113347  13.543   8.551  15.461  0.1962  0.0807 -0.1100
 1113POPC   GL213348  13.301   8.489  15.331 -0.3007 -0.0238 -0.2398
 1113POPC   C1A13349  13.483   8.143  15.686  0.1293  0.4116  0.0044
 1113POPC   D2A13350  13.232   7.895  15.928 -0.1552  0.1593  0.1322
 1113POPC   C3A13351  13.008   7.654  16.265  0.0582 -0.0360  0.2090
 1113POPC   C4A13352  13.134   7.461  16.687 -0.3983  0.0905 -0.0736
 1113POPC   C1B13353  12.800   8.477  15.327 -0.0687 -0.0883  0.1350
 1113POPC   C2B13354  12.365   8.453  15.245 -0.1622  0.1778  0.0394
 1113POPC   C3B13355  12.118   8.117  15.005 -0.1416  0.0721 -0.0879
 1113POPC   C4B13356  12.003   7.772  14.675 -0.0643  0.0422  0.0249
 1114POPC   NC313357  10.116  12.690  16.339 -0.1854 -0.0252 -0.1195
 1114POPC   PO413358  10.113  13.071  16.394  0.0715  0.3755  0.3988
 1114POPC   GL113359  10.088  13.265  16.733 -0.3051 -0.0560  0.0006
 1114POPC   GL213360  10.293  13.123  16.996 -0.0412  0.2944  0.2189
 1114POPC   C1A13361  10.212  13.617  17.032  0.3558  0.0139 -0.0131
 1114POPC   D2A13362  10.237  13.889  17.379  0.2204 -0.0408  0.4004
 1114POPC   C3A13363  10.442  14.002  17.759 -0.5512  0.2070 -0.0659
 1114POPC   C4A13364  10.521  14.186  18.152 -0.2751  0.0098  0.0949
 1114POPC   C1B13365  10.600  13.295  17.285  0.1202 -0.2198 -0.1060
 1114POPC   C2B13366  10.591  13.539  17.686 -0.2190  0.0678 -0.0914
 1114POPC   C3B13367  10.586  13.575  18.114  0.1230  0.0202 -0.0968
 1114POPC   C4B13368  10.714  13.336  18.503  0.0130  0.0729 -0.1742
 1115POPC   NC313369  13.926   9.182  16.020  0.1269  0.3001  0.1954
 1115POPC   PO413370  14.207   9.444  16.100  0.3982 -0.1842  0.1909
 1115POPC   GL113371  14.091   9.386  16.499 -0.2075 -0.0511  0.4907
 1115POPC   GL213372  13.817   9.361  16.565 -0.3686  0.1941 -0.0031
 1115POPC   C1A13373  14.312   9.137  16.847  0.2104 -0.0916 -0.1128
 1115POPC   D2A13374  14.391   8.833  17.246 -0.1901 -0.0467 -0.0754
 1115POPC   C3A13375  14.005   8.504  17.344  0.0917 -0.1213  0.0416
 1115POPC   C4A13376  13.525   8.586  17.253 -0.1767 -0.2786 -0.0055
 1115POPC   C1B13377  13.960   9.499  16.968  0.3005 -0.1420 -0.2238
 1115POPC   C2B13378  14.207   9.323  17.353  0.1594 -0.2018 -0.0868
 1115POPC   C3B13379  14.162   9.394  17.786 -0.0797 -0.2437  0.1012
 1115POPC   C4B13380  14.098   9.492  18.229 -0.0300  0.1698  0.1165
 1116POPC   NC313381   8.876   0.577  11.825 -0.1872  0.1361 -0.0640
 1116POPC   PO413382   9.069   0.884  11.957 -0.3451  0.4780  0.1795
 1116POPC   GL113383   9.097   1.242  12.017  0.1793 -0.2063  0.3304
 1116POPC   GL213384   9.286   1.435  11.957 -0.0778  0.4677  0.1910
 1116POPC   C1A13385   8.802   1.548  12.103  0.3110  0.0130  0.1298
 1116POPC   D2A13386   8.519   1.897  12.337 -0.0657 -0.5199  0.2877
 1116POPC   C3A13387   8.392   2.292  12.181 -0.1751  0.0537  0.3504
 1116POPC   C4A13388   8.307   2.747  12.023 -0.1003  0.3024 -0.0732
 1116POPC   C1B13389   9.260   1.484  12.368  0.2105 -0.1653  0.1472
 1116POPC   C2B13390   9.052   1.863  12.592  0.1309 -0.2895 -0.1051
 1116POPC   C3B13391   8.850   2.289  12.510 -0.1921  0.1768 -0.2376
 1116POPC   C4B13392   8.466   2.531  12.645 -0.1304 -0.1009 -0.2164
 1117POPC   NC313393  16.034   7.829  16.131  0.0832 -0.1383  0.0760
 1117POPC   PO413394  15.822   7.578  15.888 -0.3080 -0.1724  0.1421
 1117POPC   GL113395  15.577   7.362  16.138 -0.0051  0.3411  0.5706
 1117POPC   GL213396  15.226   7.508  16.114  0.2157 -0.3433  0.2369
 1117POPC   C1A13397  15.465   7.477  16.532 -0.1332 -0.0805  0.1973
 1117POPC   D2A13398  15.354   7.609  16.984 -0.0769  0.2994  0.0396
 1117POPC   C3A13399  14.941   7.816  17.039 -0.1337 -0.0343 -0.0597
 1117POPC   C4A13400  14.738   8.054  16.729 -0.1355  0.0733  0.1554
 1117POPC   C1B13401  14.964   7.491  16.500  0.0336 -0.0361  0.1907
 1117POPC   C2B13402  14.561   7.544  16.770  0.0412  0.1473  0.1028
 1117POPC   C3B13403  14.440   7.693  17.231  0.0442  0.3003  0.1025
 1117POPC   C4B13404  14.182   7.943  17.493  0.1794 -0.3976 -0.0079
 1118POPC   NC313405   2.533   7.473  15.902 -0.5098  0.2602 -0.2240
 1118POPC   PO413406   2.880   7.674  15.961  0.0600  0.3808  0.3322
 1118POPC   GL113407   3.103   7.641  16.300 -0.1510  0.4327  0.2339
 1118POPC   GL213408   2.885   7.771  16.425  0.0816  0.0516 -0.2252
 1118POPC   C1A13409   3.438   7.580  16.533 -0.0623  0.2384  0.1579
 1118POPC   D2A13410   3.846   7.422  16.674 -0.0479 -0.0841 -0.0893
 1118POPC   C3A13411   4.127   7.633  16.916 -0.2454  0.3094  0.1587
 1118POPC   C4A13412   4.457   7.773  17.180  0.1705  0.1389  0.0652
 1118POPC   C1B13413   2.926   7.588  16.876  0.1965 -0.0949 -0.0789
 1118POPC   C2B13414   3.053   7.296  17.212  0.3113  0.5232 -0.2313
 1118POPC   C3B13415   3.365   7.210  17.499  0.0815 -0.2907  0.3088
 1118POPC   C4B13416   3.664   6.826  17.560  0.0587  0.1565 -0.1050
 1119POPC   NC313417   9.021  13.384   9.315 -0.2355 -0.0612 -0.1431
 1119POPC   PO413418   9.172  13.492   9.000 -0.1939 -0.3380  0.2862
 1119POPC   GL113419   9.283  13.576   8.578  0.0425  0.0048 -0.1623
 1119POPC   GL213420   9.517  13.538   8.551 -0.1065  0.3490  0.1388
 1119POPC   C1A13421   9.379  13.596   8.106 -0.1385 -0.1920 -0.0873
 1119POPC   D2A13422   9.301  13.630   7.626  0.0582 -0.0440  0.1943
 1119POPC   C3A13423   8.892  13.904   7.638 -0.0217 -0.0730  0.3181
 1119POPC   C4A13424   8.560  14.253   7.662  0.0836  0.2689  0.0877
 1119POPC   C1B13425   9.581  13.148   8.291  0.1397 -0.0742 -0.1444
 1119POPC   C2B13426   9.646  12.747   8.053  0.0156  0.3160  0.1012
 1119POPC   C3B13427   9.769  12.485   7.645  0.1740 -0.1391 -0.2534
 1119POPC   C4B13428   9.644  12.207   7.331  0.1715  0.2740 -0.1644
 1120POPC   NC313429  12.583   9.747  14.922 -0.0143  0.0769  0.2327
 1120POPC   PO413430  12.217   9.727  15.077  0.1926  0.2271 -0.0380
 1120POPC   GL113431  12.051   9.434  15.308  0.1968  0.0423 -0.1916
 1120POPC   GL213432  12.077   9.209  15.100 -0.0049 -0.0885 -0.0699
 1120POPC   C1A13433  11.702   9.313  15.544  0.0344 -0.1001 -0.4774
 1120POPC   D2A13434  11.624   9.249  15.991  0.0549  0.1618  0.3485
 1120POPC   C3A13435  11.200   9.280  16.168 -0.4796 -0.0964 -0.4957
 1120POPC   C4A13436  10.737   9.206  16.051 -0.0335 -0.4681  0.0128
 1120POPC   C1B13437  12.006   8.875  15.400  0.2075 -0.0630  0.1751
 1120POPC   C2B13438  11.780   8.714  15.809 -0.0786 -0.0396  0.3322
 1120POPC   C3B13439  11.619   8.548  16.172 -0.1781  0.1876  0.0268
 1120POPC   C4B13440  11.239   8.282  16.058 -0.0647 -0.0890 -0.1352
 1121POPC   NC313441  14.888   9.054  15.430  0.1045  0.0618  0.3564
 1121POPC   PO413442  14.926   8.954  15.808 -0.0206  0.1316 -0.1558
 1121POPC   GL113443  14.599   8.969  16.080  0.3733  0.1887 -0.1363
 1121POPC   GL213444  14.752   9.080  16.339 -0.0421  0.1588  0.0743
 1121POPC   C1A13445  14.430   8.590  16.303  0.3221  0.0678  0.1767
 1121POPC   D2A13446  14.123   8.321  16.510  0.2949 -0.0230  0.0979
 1121POPC   C3A13447  13.769   8.297  16.872 -0.0699  0.0121  0.0906
 1121POPC   C4A13448  13.476   8.018  17.187 -0.0757 -0.0228  0.0112
 1121POPC   C1B13449  14.680   8.816  16.699 -0.1558  0.1057 -0.1077
 1121POPC   C2B13450  14.391   8.487  16.882  0.0578 -0.1030  0.3426
 1121POPC   C3B13451  14.267   8.048  16.889  0.1983  0.1735 -0.1340
 1121POPC   C4B13452  13.962   7.766  17.089 -0.0916  0.1248 -0.4903
 1122POPC   NC313453  12.201  10.139  15.322  0.2858  0.3043  0.5404
 1122POPC   PO413454  11.846  10.139  15.560  0.2851  0.0154 -0.0568
 1122POPC   GL113455  11.771   9.976  15.978 -0.2803  0.2801 -0.0357
 1122POPC   GL213456  11.826  10.253  16.050  0.0532 -0.1381  0.1467
 1122POPC   C1A13457  11.608   9.727  16.310  0.0021 -0.0951 -0.0837
 1122POPC   D2A13458  11.423   9.565  16.693 -0.0453  0.0791  0.0629
 1122POPC   C3A13459  11.156   9.837  16.968 -0.1669 -0.0312 -0.2082
 1122POPC   C4A13460  10.763   9.782  17.315  0.0513  0.2887  0.0516
 1122POPC   C1B13461  11.454  10.192  16.323  0.0521  0.1274  0.0911
 1122POPC   C2B13462  11.051   9.898  16.502  0.1150  0.2221  0.1058
 1122POPC   C3B13463  10.925   9.484  16.536  0.0054  0.0767 -0.1492
 1122POPC   C4B13464  11.134   9.134  16.683 -0.1254  0.4918  0.1426
 1123POPC   NC313465  13.763  15.489  15.580  0.2787 -0.0312 -0.2129
 1123POPC   PO413466  14.099  15.487  15.744  0.0406 -0.2064  0.2478
 1123POPC   GL113467  13.876  15.600  16.067 -0.4177  0.1239 -0.1645
 1123POPC   GL213468  14.006  15.853  16.115 -0.0666  0.1215 -0.2397
 1123POPC   C1A13469  13.530  15.573  16.377 -0.0309  0.1261 -0.4546
 1123POPC   D2A13470  13.241  15.887  16.584 -0.1774 -0.1647  0.0860
 1123POPC   C3A13471  13.120  15.875  17.002  0.0156  0.2781 -0.0378
 1123POPC   C4A13472  12.997  15.942  17.452  0.1985 -0.0218 -0.2472
 1123POPC   C1B13473  13.994  15.810  16.545  0.1513  0.2560  0.0317
 1123POPC   C2B13474  13.658  15.761  16.849 -0.2287  0.0002 -0.3768
 1123POPC   C3B13475  13.486  15.610  17.236  0.1246 -0.2016 -0.2332
 1123POPC   C4B13476  13.286  15.593  17.614  0.1449  0.2032 -0.0765
 1124POPC   NC313477   1.746   3.670  15.543  0.2766  0.0317 -0.1944
 1124POPC   PO413478   1.959   3.384  15.416 -0.1663  0.0000 -0.0439
 1124POPC   GL113479   1.828   3.245  15.777  0.0064  0.0155  0.1842
 1124POPC   GL213480   1.546   3.269  15.808 -0.3492 -0.0180  0.0145
 1124POPC   C1A13481   2.157   3.179  16.078 -0.2390  0.1401  0.2802
 1124POPC   D2A13482   2.426   2.929  16.261  0.1400 -0.1473  0.0783
 1124POPC   C3A13483   2.519   3.011  16.674  0.0106  0.1154  0.0077
 1124POPC   C4A13484   2.569   2.818  17.085 -0.0012  0.3003 -0.0278
 1124POPC   C1B13485   1.556   3.165  16.233 -0.0839  0.0096  0.1140
 1124POPC   C2B13486   1.595   3.138  16.648 -0.0708 -0.0475  0.1724
 1124POPC   C3B13487   1.852   3.349  16.966  0.3259  0.2579 -0.0460
 1124POPC   C4B13488   1.977   3.344  17.412  0.0331  0.0657 -0.2150
 1125POPC   NC313489   6.533  12.319  16.557 -0.2227 -0.0168 -0.2730
 1125POPC   PO413490   6.178  12.216  16.430 -0.1347 -0.0883  0.1498
 1125POPC   GL113491   6.256  12.044  16.814  0.0606 -0.1143 -0.0657
 1125POPC   GL213492   6.128  12.272  16.930 -0.3683 -0.1040 -0.0196
 1125POPC   C1A13493   6.061  11.698  17.044  0.0753 -0.0097  0.0098
 1125POPC   D2A13494   6.056  11.686  17.559 -0.0498 -0.0604  0.1404
 1125POPC   C3A13495   6.060  11.464  17.956 -0.0835 -0.1390  0.0360
 1125POPC   C4A13496   5.777  11.274  18.318 -0.1044  0.1079 -0.2867
 1125POPC   C1B13497   6.285  12.493  17.355  0.4707  0.0594  0.0314
 1125POPC   C2B13498   6.194  12.524  17.794  0.2050 -0.0570 -0.4419
 1125POPC   C3B13499   5.907  12.875  17.932  0.2448  0.1628 -0.4276
 1125POPC   C4B13500   5.770  12.988  18.384 -0.0899 -0.0055 -0.1758
 1126POPC   NC313501  11.378  10.508  15.853  0.0308  0.3724  0.0968
 1126POPC   PO413502  11.259  10.890  15.821  0.2063  0.4113  0.2543
 1126POPC   GL113503  11.263  10.889  16.216  0.3027  0.0039 -0.2106
 1126POPC   GL213504  11.358  10.678  16.430  0.1118  0.0616  0.1842
 1126POPC   C1A13505  11.450  11.118  16.563  0.1549 -0.0498  0.3100
 1126POPC   D2A13506  11.373  11.137  17.041  0.2531 -0.3732 -0.1267
 1126POPC   C3A13507  11.628  11.170  17.402  0.2422  0.1634 -0.0213
 1126POPC   C4A13508  11.644  11.286  17.884  0.1009  0.1429 -0.3398
 1126POPC   C1B13509  11.365  10.659  16.929 -0.0770 -0.0028 -0.2072
 1126POPC   C2B13510  11.406  10.740  17.366 -0.3753  0.2234  0.1094
 1126POPC   C3B13511  11.807  10.842  17.684  0.2663 -0.0589 -0.1911
 1126POPC   C4B13512  12.031  11.044  17.978 -0.1146  0.0083  0.0568
 1127POPC   NC313513   3.651   8.489  15.652  0.2105 -0.2067  0.2943
 1127POPC   PO413514   3.845   8.830  15.586  0.1607 -0.0497  0.2508
 1127POPC   GL113515   4.151   8.864  15.879 -0.1799  0.1005  0.1974
 1127POPC   GL213516   4.135   9.118  16.019  0.1351  0.1478  0.0861
 1127POPC   C1A13517   4.428   8.652  16.182 -0.3232 -0.0881  0.0091
 1127POPC   D2A13518   4.522   8.592  16.634  0.3367 -0.1073 -0.0458
 1127POPC   C3A13519   4.868   8.532  16.962  0.0287 -0.0996  0.1280
 1127POPC   C4A13520   5.227   8.536  17.257 -0.2156 -0.2663  0.0318
 1127POPC   C1B13521   4.016   8.874  16.341  0.1041  0.0719  0.2080
 1127POPC   C2B13522   4.017   8.624  16.733  0.1122 -0.0318  0.0255
 1127POPC   C3B13523   3.879   8.619  17.186 -0.0493  0.2411  0.4731
 1127POPC   C4B13524   3.986   8.553  17.626  0.0983  0.2329  0.1883
 1128POPC   NC313525  11.319  13.271  16.673 -0.1869 -0.0844  0.0677
 1128POPC   PO413526  11.493  12.929  16.611 -0.1896 -0.0066  0.0392
 1128POPC   GL113527  11.647  13.009  16.999  0.1840 -0.0795 -0.3181
 1128POPC   GL213528  11.471  13.097  17.124  0.3416 -0.2465  0.0954
 1128POPC   C1A13529  11.911  13.034  17.456 -0.0396  0.0862 -0.1005
 1128POPC   D2A13530  12.173  12.864  17.830  0.1825  0.0402  0.0186
 1128POPC   C3A13531  12.360  12.481  17.734 -0.0191  0.0855  0.0023
 1128POPC   C4A13532  12.612  12.143  17.967  0.2020  0.2803  0.0340
 1128POPC   C1B13533  11.411  12.967  17.556  0.1641 -0.3043 -0.1807
 1128POPC   C2B13534  11.199  12.750  17.863  0.1002 -0.0525  0.3301
 1128POPC   C3B13535  10.940  12.317  17.935 -0.1054  0.1238  0.3892
 1128POPC   C4B13536  10.972  11.924  18.185  0.0470  0.0606 -0.0292
 1129POPC   NC313537   1.396   0.546  16.238  0.0791 -0.0247 -0.2063
 1129POPC   PO413538   1.697   0.752  16.078  0.0797 -0.2632  0.0002
 1129POPC   GL113539   1.633   0.868  16.434 -0.0902 -0.2535 -0.1063
 1129POPC   GL213540   1.381   1.032  16.543 -0.1671  0.0795  0.0477
 1129POPC   C1A13541   1.791   1.205  16.743  0.1332  0.2342 -0.1196
 1129POPC   D2A13542   1.878   1.323  17.184 -0.0318 -0.2453  0.0733
 1129POPC   C3A13543   2.300   1.489  17.405 -0.3226  0.0386 -0.1566
 1129POPC   C4A13544   2.537   1.858  17.599  0.2207  0.2114  0.0589
 1129POPC   C1B13545   1.414   1.484  16.641 -0.0543 -0.1014  0.0076
 1129POPC   C2B13546   1.625   1.712  16.926 -0.1607  0.1028  0.3879
 1129POPC   C3B13547   1.854   1.831  17.337 -0.1060  0.0014 -0.3640
 1129POPC   C4B13548   2.012   1.945  17.778 -0.0288 -0.0534  0.1581
 1130POPC   NC313549   8.517  10.890  13.724  0.0447 -0.1570  0.3040
 1130POPC   PO413550   8.473  10.688  14.069  0.0962 -0.0814 -0.2492
 1130POPC   GL113551   8.503  10.279  14.187 -0.1965 -0.3503  0.0825
 1130POPC   GL213552   8.733  10.218  14.143 -0.0059  0.0593 -0.0704
 1130POPC   C1A13553   8.491   9.940  14.469  0.1914  0.2586  0.1299
 1130POPC   D2A13554   8.612   9.521  14.495 -0.0284  0.0654  0.0885
 1130POPC   C3A13555   8.762   9.288  14.814 -0.3347  0.1772 -0.1986
 1130POPC   C4A13556   9.042   9.171  15.198  0.1252 -0.2535  0.2348
 1130POPC   C1B13557   8.884   9.777  14.035  0.1554 -0.2209  0.0163
 1130POPC   C2B13558   8.807   9.353  14.057  0.0819 -0.1702 -0.2951
 1130POPC   C3B13559   8.738   8.869  13.978 -0.0559  0.0480 -0.1928
 1130POPC   C4B13560   8.843   8.537  14.206 -0.0602  0.0453 -0.1304
 1131POPC   NC313561   4.235   1.952  14.962 -0.4247  0.2056 -0.4509
 1131POPC   PO413562   3.950   1.777  15.229  0.0208  0.1188  0.0689
 1131POPC   GL113563   4.065   2.018  15.503  0.2472  0.1764  0.2502
 1131POPC   GL213564   3.835   2.156  15.545 -0.4924  0.1247 -0.3587
 1131POPC   C1A13565   4.336   1.888  15.902  0.1042 -0.0027  0.0246
 1131POPC   D2A13566   4.257   2.010  16.337 -0.2205 -0.0539  0.0933
 1131POPC   C3A13567   4.463   2.076  16.767 -0.0236  0.0047  0.3443
 1131POPC   C4A13568   4.639   1.828  17.154 -0.5869 -0.0930  0.0636
 1131POPC   C1B13569   4.100   2.380  15.864  0.0946  0.1454 -0.0447
 1131POPC   C2B13570   4.146   2.512  16.271  0.2060  0.0320  0.1969
 1131POPC   C3B13571   4.324   2.885  16.521  0.0421 -0.0047  0.1051
 1131POPC   C4B13572   4.293   3.190  16.901  0.1227 -0.1907  0.3839
 1132POPC   NC313573   7.171   9.842  13.679  0.1490 -0.0734  0.1185
 1132POPC   PO413574   6.812   9.821  13.862 -0.1017 -0.2950 -0.1673
 1132POPC   GL113575   6.949   9.400  13.908  0.0422 -0.3242  0.2959
 1132POPC   GL213576   6.865   9.110  13.787 -0.0719 -0.0199 -0.2197
 1132POPC   C1A13577   7.379   9.338  13.808  0.2790  0.0829 -0.1070
 1132POPC   D2A13578   7.793   9.488  13.765  0.2872  0.0182  0.2444
 1132POPC   C3A13579   7.901   9.611  13.325  0.0560 -0.0566 -0.0038
 1132POPC   C4A13580   7.933   9.868  12.918 -0.1152  0.0100  0.0421
 1132POPC   C1B13581   7.285   8.859  13.723 -0.3307 -0.1460 -0.1644
 1132POPC   C2B13582   7.577   8.595  13.934 -0.2164 -0.2771 -0.0546
 1132POPC   C3B13583   7.911   8.624  14.325 -0.0579 -0.3603  0.0438
 1132POPC   C4B13584   8.308   8.432  14.531  0.2027 -0.0483 -0.0161
 1133POPC   NC313585   7.853   9.737  10.966  0.1819 -0.2519  0.2840
 1133POPC   PO413586   7.688   9.896  11.254  0.0832 -0.0751 -0.0464
 1133POPC   GL113587   7.875   9.649  11.531 -0.1276 -0.1877 -0.0696
 1133POPC   GL213588   7.795   9.411  11.364 -0.0882 -0.1948  0.2419
 1133POPC   C1A13589   8.250   9.330  11.635 -0.1770 -0.1244 -0.1632
 1133POPC   D2A13590   8.386   8.864  11.763  0.1689 -0.0157 -0.3691
 1133POPC   C3A13591   8.849   8.768  11.852 -0.0414 -0.1006  0.0426
 1133POPC   C4A13592   8.988   8.580  12.284  0.1290  0.1305  0.3063
 1133POPC   C1B13593   8.003   8.976  11.397  0.1923  0.0962  0.0068
 1133POPC   C2B13594   8.139   8.522  11.479 -0.2447  0.1608 -0.1386
 1133POPC   C3B13595   8.208   8.089  11.353 -0.0588  0.0005  0.0755
 1133POPC   C4B13596   8.143   7.823  11.022 -0.1615  0.0037  0.1590
 1134POPC   NC313597   1.947  11.666  16.649  0.0752  0.0967  0.4046
 1134POPC   PO413598   2.155  12.011  16.532  0.2176  0.0264 -0.1574
 1134POPC   GL113599   2.151  12.114  16.926  0.0376 -0.3218  0.1914
 1134POPC   GL213600   2.455  12.089  16.911 -0.2381  0.0866  0.0713
 1134POPC   C1A13601   1.974  12.502  17.131  0.1777 -0.1433 -0.0132
 1134POPC   D2A13602   1.801  12.803  17.482  0.0155 -0.4522  0.1746
 1134POPC   C3A13603   1.819  12.782  17.959 -0.1316  0.4007 -0.0068
 1134POPC   C4A13604   2.043  12.742  18.384  0.0724 -0.2841 -0.1023
 1134POPC   C1B13605   2.266  11.755  17.117 -0.0114 -0.1432 -0.2734
 1134POPC   C2B13606   2.102  11.616  17.549 -0.0533 -0.0592  0.0699
 1134POPC   C3B13607   1.970  11.551  18.003 -0.2464  0.0654 -0.0576
 1134POPC   C4B13608   1.771  11.380  18.346 -0.2897  0.1376 -0.3063
 1135POPC   NC313609  13.716   1.224  15.370 -0.1730 -0.0369  0.0385
 1135POPC   PO413610  13.501   1.035  15.626 -0.4124  0.3314 -0.1926
 1135POPC   GL113611  13.414   1.086  16.011  0.0125  0.1046  0.2018
 1135POPC   GL213612  13.386   1.368  15.966  0.3378 -0.1564  0.1992
 1135POPC   C1A13613  13.593   1.290  16.385  0.0565  0.0272  0.1578
 1135POPC   D2A13614  13.610   1.071  16.807  0.1568 -0.1487  0.1685
 1135POPC   C3A13615  13.788   1.319  17.124 -0.0271  0.0008 -0.3779
 1135POPC   C4A13616  13.953   1.729  17.262 -0.0927 -0.1920 -0.0122
 1135POPC   C1B13617  13.447   1.784  16.130 -0.2248 -0.2577 -0.0295
 1135POPC   C2B13618  13.177   2.106  16.150 -0.0763  0.1241 -0.1457
 1135POPC   C3B13619  12.989   2.527  16.071  0.0209 -0.6630 -0.1839
 1135POPC   C4B13620  12.903   2.777  15.725 -0.1688  0.1135  0.4699
 1136POPC   NC313621  14.060  11.591  16.518 -0.2538 -0.2009  0.0150
 1136POPC   PO413622  13.836  11.241  16.478 -0.1392 -0.1875  0.2301
 1136POPC   GL113623  13.831  11.264  16.875 -0.5217 -0.1081  0.2984
 1136POPC   GL213624  14.139  11.279  16.948 -0.1344  0.1823  0.0284
 1136POPC   C1A13625  13.819  11.254  17.308  0.0052  0.2130 -0.1027
 1136POPC   D2A13626  13.994  11.254  17.762  0.0463 -0.0632  0.2407
 1136POPC   C3A13627  14.126  11.013  18.127  0.2510 -0.0831 -0.0665
 1136POPC   C4A13628  14.049  10.667  18.430  0.0360  0.0110 -0.0152
 1136POPC   C1B13629  14.229  11.070  17.373  0.0351  0.2457  0.1745
 1136POPC   C2B13630  14.534  11.063  17.735 -0.2780 -0.0443  0.0923
 1136POPC   C3B13631  14.685  10.907  18.086  0.0023 -0.0284 -0.1788
 1136POPC   C4B13632  14.954  10.990  18.453 -0.3176 -0.2061 -0.1481
 1137POPC   NC313633   8.596  11.730  15.532 -0.1162 -0.0850  0.0123
 1137POPC   PO413634   8.520  11.498  15.843 -0.0506 -0.0224  0.0292
 1137POPC   GL113635   8.554  11.251  16.129  0.0604 -0.0709 -0.2319
 1137POPC   GL213636   8.685  11.019  16.080  0.3500 -0.2381  0.1937
 1137POPC   C1A13637   8.223  11.083  16.437  0.0619 -0.2045  0.1650
 1137POPC   D2A13638   8.170  10.646  16.626  0.2636 -0.0948 -0.0425
 1137POPC   C3A13639   8.347  10.565  17.062 -0.1362 -0.1100 -0.0645
 1137POPC   C4A13640   8.440  10.132  17.310  0.0626  0.4650 -0.0554
 1137POPC   C1B13641   8.936  11.004  16.432  0.1353  0.1293 -0.0015
 1137POPC   C2B13642   9.133  10.592  16.608  0.0254 -0.1376  0.0461
 1137POPC   C3B13643   9.435  10.294  16.872 -0.1277  0.1402 -0.0890
 1137POPC   C4B13644   9.783  10.372  17.101  0.4227  0.3978  0.0537
 1138POPC   NC313645   0.569   7.828  15.736  0.2380  0.0383  0.1733
 1138POPC   PO413646   0.733   8.074  16.044  0.2910 -0.0469  0.0733
 1138POPC   GL113647   0.553   8.175  16.429 -0.3572 -0.1872  0.2229
 1138POPC   GL213648   0.440   8.031  16.598 -0.2431  0.1618  0.0633
 1138POPC   C1A13649   0.766   8.415  16.742 -0.0097 -0.3681 -0.2180
 1138POPC   D2A13650   0.799   8.542  17.187  0.7083  0.1676  0.3636
 1138POPC   C3A13651   0.681   8.230  17.451  0.0074  0.0087  0.0957
 1138POPC   C4A13652   0.719   8.065  17.883  0.1169  0.1466  0.0872
 1138POPC   C1B13653   0.512   7.796  16.988 -0.2035  0.2399  0.2263
 1138POPC   C2B13654   0.800   7.708  17.336  0.2528  0.0644 -0.1251
 1138POPC   C3B13655   1.062   7.821  17.702  0.0700 -0.0528  0.1974
 1138POPC   C4B13656   1.491   7.735  17.873 -0.1703  0.1260 -0.1200
 1139POPC   NC313657  16.085   8.381  15.734 -0.0604 -0.0643  0.1850
 1139POPC   PO413658  16.240   8.727  15.883 -0.2469  0.4998 -0.2324
 1139POPC   GL113659  16.299   8.885  16.249 -0.1904 -0.2275  0.2285
 1139POPC   GL213660  16.098   8.722  16.425 -0.1051 -0.0506 -0.1837
 1139POPC   C1A13661  16.327   8.992  16.733 -0.1291  0.0774 -0.0204
 1139POPC   D2A13662  15.955   8.948  17.013  0.1043  0.1143 -0.3332
 1139POPC   C3A13663  15.971   8.826  17.484  0.2072  0.0261  0.0187
 1139POPC   C4A13664  15.777   8.634  17.882 -0.3752  0.0976 -0.1058
 1139POPC   C1B13665  15.709   8.605  16.694 -0.1823 -0.1269  0.2072
 1139POPC   C2B13666  15.722   8.409  17.126 -0.1058 -0.0282  0.0252
 1139POPC   C3B13667  15.772   8.264  17.527  0.0975  0.0185  0.2196
 1139POPC   C4B13668  15.918   8.134  17.917 -0.2060  0.2671 -0.1965
 1140POPC   NC313669   4.889   3.042  11.933  0.2722 -0.2083  0.1080
 1140POPC   PO413670   5.248   3.255  11.889  0.0946 -0.0558  0.0213
 1140POPC   GL113671   5.629   3.475  11.895 -0.0808 -0.1741 -0.4309
 1140POPC   GL213672   5.872   3.306  11.845  0.0238  0.1782 -0.1426
 1140POPC   C1A13673   6.016   3.696  12.070  0.0330  0.0007 -0.2633
 1140POPC   D2A13674   6.373   3.901  11.961  0.0328 -0.4179  0.1953
 1140POPC   C3A13675   6.572   4.330  11.981 -0.1281  0.1209  0.0135
 1140POPC   C4A13676   6.880   4.477  12.283  0.2013 -0.1932 -0.1811
 1140POPC   C1B13677   6.188   3.419  11.532  0.2765  0.0660  0.0845
 1140POPC   C2B13678   6.599   3.564  11.744 -0.1033 -0.3490  0.1677
 1140POPC   C3B13679   7.089   3.602  11.831  0.1368  0.0813 -0.1295
 1140POPC   C4B13680   7.508   3.453  11.747 -0.1832 -0.0277 -0.2008
 1141POPC   NC313681   3.478  12.726  16.805  0.0400  0.3732  0.0175
 1141POPC   PO413682   3.099  12.658  16.706 -0.1071  0.1301 -0.1488
 1141POPC   GL113683   3.185  12.414  17.018  0.1175 -0.1972 -0.0221
 1141POPC   GL213684   3.005  12.550  17.216 -0.2568 -0.1390  0.1987
 1141POPC   C1A13685   3.301  12.069  17.295 -0.3035 -0.0342  0.0242
 1141POPC   D2A13686   3.101  11.765  17.634  0.2934  0.0074  0.1137
 1141POPC   C3A13687   2.667  11.718  17.823 -0.2018  0.0176 -0.0157
 1141POPC   C4A13688   2.433  11.595  18.248  0.0026  0.4132 -0.0437
 1141POPC   C1B13689   2.978  12.381  17.637 -0.4140  0.0336  0.0348
 1141POPC   C2B13690   3.068  12.112  17.963 -0.3351 -0.3240 -0.0824
 1141POPC   C3B13691   3.123  11.743  18.157  0.2212 -0.1060 -0.2446
 1141POPC   C4B13692   3.428  11.558  18.433  0.1995 -0.0915 -0.1933
 1142POPC   NC313693   1.115   9.264  15.768 -0.0899  0.0541 -0.2939
 1142POPC   PO413694   1.430   9.361  15.935 -0.2676 -0.2870 -0.0854
 1142POPC   GL113695   1.401   9.151  16.454 -0.1427  0.3009  0.1366
 1142POPC   GL213696   1.181   8.864  16.468 -0.2969 -0.0078  0.0260
 1142POPC   C1A13697   1.645   8.894  16.782 -0.2991 -0.1186  0.1680
 1142POPC   D2A13698   1.682   8.722  17.185  0.0273 -0.3125 -0.0535
 1142POPC   C3A13699   1.534   8.618  17.625 -0.0569 -0.1655  0.1697
 1142POPC   C4A13700   1.697   8.496  18.075  0.1706  0.1359 -0.3178
 1142POPC   C1B13701   1.131   8.993  16.841  0.2911 -0.1578 -0.0879
 1142POPC   C2B13702   1.045   8.941  17.318 -0.1741 -0.0470 -0.0423
 1142POPC   C3B13703   0.994   8.630  17.667 -0.0285 -0.0351 -0.1699
 1142POPC   C4B13704   1.134   8.328  17.935 -0.0894  0.1957  0.1588
 1143POPC   NC313705   4.703   5.471  11.719 -0.0675 -0.2376 -0.2570
 1143POPC   PO413706   4.876   5.785  11.529 -0.0645 -0.1155  0.1865
 1143POPC   GL113707   5.132   5.961  11.315  0.5738 -0.1352 -0.2711
 1143POPC   GL213708   5.268   6.168  11.432  0.3979  0.1086  0.1330
 1143POPC   C1A13709   5.598   5.833  11.268  0.0744  0.2456  0.1620
 1143POPC   D2A13710   5.957   5.732  11.460 -0.1689  0.3153  0.0642
 1143POPC   C3A13711   6.428   5.777  11.394 -0.0105  0.2330 -0.0674
 1143POPC   C4A13712   6.849   5.862  11.564  0.1745  0.2093  0.4334
 1143POPC   C1B13713   5.468   5.994  11.866 -0.1580 -0.0963 -0.0007
 1143POPC   C2B13714   5.387   6.084  12.304 -0.2613 -0.1109 -0.0567
 1143POPC   C3B13715   5.595   6.035  12.706 -0.1052 -0.2429 -0.0651
 1143POPC   C4B13716   5.700   5.605  12.876  0.1585 -0.0584  0.1145
 1144POPC   NC313717   9.331  11.605  10.099  0.1846  0.2716  0.2805
 1144POPC   PO413718   9.027  11.438  10.242  0.0026 -0.2810  0.2659
 1144POPC   GL113719   9.139  11.193  10.009 -0.4590 -0.1366 -0.0987
 1144POPC   GL213720   9.458  11.169   9.892  0.0664 -0.1383  0.1687
 1144POPC   C1A13721   9.206  10.750  10.000 -0.0157 -0.2334 -0.2248
 1144POPC   D2A13722   9.600  10.532   9.978  0.1773  0.1995 -0.1107
 1144POPC   C3A13723   9.608  10.090   9.724 -0.1454 -0.3210  0.1917
 1144POPC   C4A13724   9.514   9.641   9.648  0.1406 -0.1865 -0.0738
 1144POPC   C1B13725   9.538  10.839   9.575 -0.3073  0.0669 -0.4309
 1144POPC   C2B13726   9.625  10.454   9.310  0.1495 -0.2216 -0.1346
 1144POPC   C3B13727   9.578  10.060   9.110  0.1808 -0.0842 -0.2119
 1144POPC   C4B13728   9.617   9.835   8.728  0.0868  0.0578 -0.2510
 1145POPC   NC313729   9.843  10.934  15.270  0.0115 -0.0402 -0.1824
 1145POPC   PO413730   9.824  11.258  15.497 -0.1757  0.1516  0.3441
 1145POPC   GL113731   9.623  10.996  15.773  0.0805 -0.0216  0.0162
 1145POPC   GL213732   9.841  10.909  15.932  0.1860  0.0972 -0.1220
 1145POPC   C1A13733   9.477  10.576  15.833  0.3627 -0.1354  0.0348
 1145POPC   D2A13734   9.418  10.332  16.199  0.1245  0.0679  0.0198
 1145POPC   C3A13735   9.651   9.927  16.246 -0.0482 -0.0871  0.2109
 1145POPC   C4A13736   9.768   9.597  16.583  0.2797 -0.0511 -0.1712
 1145POPC   C1B13737   9.848  10.590  16.206 -0.0643 -0.0708  0.0362
 1145POPC   C2B13738   9.835  10.290  16.579  0.0950  0.0130  0.2168
 1145POPC   C3B13739   9.893   9.945  16.849  0.0502 -0.2479 -0.0613
 1145POPC   C4B13740  10.165   9.586  16.908 -0.1435 -0.1662  0.1953
 1146POPC   NC313741   9.778  11.242  14.308  0.1675  0.3345  0.0433
 1146POPC   PO413742  10.038  10.936  14.350  0.1722  0.3031  0.2968
 1146POPC   GL113743   9.889  10.603  14.504  0.1044 -0.1768 -0.0428
 1146POPC   GL213744  10.031  10.387  14.454  0.2883 -0.1215 -0.0809
 1146POPC   C1A13745   9.525  10.248  14.470 -0.1602 -0.2361  0.0349
 1146POPC   D2A13746   9.182  10.082  14.306  0.1546  0.1178  0.2031
 1146POPC   C3A13747   9.158   9.639  14.423 -0.0858 -0.0476  0.2512
 1146POPC   C4A13748   9.379   9.240  14.605 -0.1616  0.1492  0.3719
 1146POPC   C1B13749  10.036   9.932  14.612 -0.3105 -0.3090 -0.2455
 1146POPC   C2B13750   9.840   9.552  14.760  0.0617 -0.1791  0.0406
 1146POPC   C3B13751   9.811   9.087  14.691 -0.1887 -0.0290 -0.1220
 1146POPC   C4B13752   9.952   8.688  14.538 -0.0626 -0.0126 -0.0825
 1147POPC   NC313753   4.144   5.231  14.269  0.1091  0.1500  0.1521
 1147POPC   PO413754   4.232   5.609  14.355  0.0755 -0.2996 -0.1186
 1147POPC   GL113755   4.583   5.431  14.462 -0.1332 -0.1960 -0.1778
 1147POPC   GL213756   4.547   5.429  14.730 -0.0465 -0.0122 -0.1442
 1147POPC   C1A13757   4.922   5.110  14.517 -0.1265 -0.1223 -0.1130
 1147POPC   D2A13758   5.266   4.978  14.834  0.0335  0.0043 -0.3749
 1147POPC   C3A13759   5.723   5.157  14.884 -0.1241  0.3639  0.2015
 1147POPC   C4A13760   6.059   4.890  14.778 -0.1151  0.0723 -0.0143
 1147POPC   C1B13761   4.935   5.347  14.982 -0.2508  0.1055 -0.3444
 1147POPC   C2B13762   5.343   5.250  15.267  0.0589 -0.0042 -0.2503
 1147POPC   C3B13763   5.697   5.092  15.524  0.1420 -0.0733 -0.1236
 1147POPC   C4B13764   5.979   4.794  15.705 -0.1657 -0.2504 -0.1726
 1148POPC   NC313765   6.642  16.026  15.231  0.0183 -0.2548 -0.0239
 1148POPC   PO413766   6.564  16.253  15.521 -0.1454  0.1019  0.0219
 1148POPC   GL113767   6.614  16.432  15.850  0.0987 -0.2372  0.3149
 1148POPC   GL213768   6.467  16.231  16.016  0.1570  0.2194  0.1773
 1148POPC   C1A13769   6.941  16.436  16.207  0.1814 -0.2165 -0.1039
 1148POPC   D2A13770   7.241  16.472  16.495  0.0871 -0.2351  0.1792
 1148POPC   C3A13771   7.363  16.772  16.865  0.1470 -0.1462 -0.0118
 1148POPC   C4A13772   7.412  17.157  17.208 -0.1064  0.0664  0.1510
 1148POPC   C1B13773   6.477  16.548  16.364  0.0544 -0.1758  0.1215
 1148POPC   C2B13774   6.135  16.776  16.574  0.0121 -0.0274  0.4854
 1148POPC   C3B13775   6.046  17.155  16.838 -0.0407 -0.3163 -0.0921
 1148POPC   C4B13776   5.922  17.399  17.174 -0.2735  0.0281 -0.1389
 1149POPC   NC313777   4.915   8.644  14.418 -0.3298 -0.2108 -0.0384
 1149POPC   PO413778   4.885   8.734  14.795  0.3167  0.1610 -0.0082
 1149POPC   GL113779   5.111   8.595  15.058  0.2631 -0.1941 -0.0112
 1149POPC   GL213780   5.298   8.717  15.219 -0.0826 -0.0544 -0.1495
 1149POPC   C1A13781   5.157   8.141  15.186 -0.0714 -0.0132  0.0997
 1149POPC   D2A13782   5.017   7.727  15.316 -0.2216 -0.5851 -0.0419
 1149POPC   C3A13783   5.368   7.566  15.595 -0.3187  0.0375  0.1659
 1149POPC   C4A13784   5.760   7.375  15.831 -0.0844  0.1469  0.0687
 1149POPC   C1B13785   5.374   8.381  15.519 -0.0687 -0.1545  0.0416
 1149POPC   C2B13786   5.625   7.984  15.446 -0.0971  0.3636 -0.2253
 1149POPC   C3B13787   6.002   7.659  15.513  0.4046  0.0483  0.1728
 1149POPC   C4B13788   6.292   7.393  15.693  0.1152  0.2903  0.2417
 1150POPC   NC313789   3.483  13.513  16.512 -0.0301  0.1923  0.1451
 1150POPC   PO413790   3.286  13.177  16.525 -0.1452 -0.2325 -0.1348
 1150POPC   GL113791   3.205  13.173  16.938 -0.0421 -0.2495  0.0615
 1150POPC   GL213792   3.192  13.014  17.072  0.1420 -0.1229 -0.0668
 1150POPC   C1A13793   3.177  13.499  17.263 -0.2012 -0.0759 -0.0843
 1150POPC   D2A13794   3.193  13.605  17.715  0.1074 -0.2461 -0.2682
 1150POPC   C3A13795   3.226  13.332  18.097 -0.0226 -0.1104  0.2904
 1150POPC   C4A13796   3.577  13.049  18.222 -0.0104  0.1779  0.0119
 1150POPC   C1B13797   3.192  12.998  17.554 -0.5170  0.3175  0.0796
 1150POPC   C2B13798   3.128  12.903  17.961  0.2324 -0.1337  0.2342
 1150POPC   C3B13799   3.140  12.844  18.401  0.3196 -0.0107 -0.1547
 1150POPC   C4B13800   3.352  12.507  18.655  0.2175 -0.0306  0.2513
 1151POPC   NC313801  10.654  14.545  15.917 -0.1229  0.2163 -0.0367
 1151POPC   PO413802  10.291  14.689  15.959 -0.1043  0.0661 -0.2900
 1151POPC   GL113803  10.657  14.878  16.243 -0.4210 -0.2495  0.1321
 1151POPC   GL213804  10.856  14.990  16.059 -0.0213 -0.1726 -0.0908
 1151POPC   C1A13805  10.845  15.088  16.590  0.1978 -0.1593 -0.4852
 1151POPC   D2A13806  10.955  15.262  16.961 -0.1133 -0.0560  0.2806
 1151POPC   C3A13807  11.072  15.345  17.419  0.1392  0.0349 -0.2207
 1151POPC   C4A13808  10.778  15.508  17.765 -0.1519  0.1697  0.0423
 1151POPC   C1B13809  11.054  15.431  16.096  0.1584  0.0761  0.0326
 1151POPC   C2B13810  11.195  15.762  15.878  0.3172 -0.0065 -0.0256
 1151POPC   C3B13811  11.131  16.191  15.879 -0.0594 -0.2683 -0.5997
 1151POPC   C4B13812  10.966  16.319  16.271  0.2087  0.0812 -0.0784
 1152POPC   NC313813  12.233   0.467  15.153 -0.1851 -0.0492  0.1657
 1152POPC   PO413814  12.556   0.672  15.052 -0.3087 -0.0118  0.3383
 1152POPC   GL113815  12.441   0.913  15.323 -0.1686 -0.1802 -0.1261
 1152POPC   GL213816  12.583   0.895  15.543 -0.2950  0.1347 -0.1983
 1152POPC   C1A13817  12.119   0.732  15.636  0.1746 -0.2274  0.2682
 1152POPC   D2A13818  11.975   0.468  15.998  0.0980 -0.1745  0.0709
 1152POPC   C3A13819  11.899   0.657  16.371  0.0676  0.3798  0.1907
 1152POPC   C4A13820  11.545   0.792  16.660  0.0591  0.3003  0.2820
 1152POPC   C1B13821  12.254   1.206  15.711 -0.1198  0.0270  0.0025
 1152POPC   C2B13822  12.018   1.493  15.984 -0.0333  0.0551 -0.1212
 1152POPC   C3B13823  11.806   1.710  16.391 -0.3492 -0.1966 -0.1374
 1152POPC   C4B13824  11.390   1.895  16.599  0.0751  0.1842 -0.2187
 1153POPC   NC313825   5.311  12.016  16.389  0.0769  0.0088 -0.0527
 1153POPC   PO413826   5.683  12.085  16.261  0.0396 -0.1012  0.0761
 1153POPC   GL113827   5.763  12.257  16.600 -0.1070  0.3859  0.1693
 1153POPC   GL213828   5.565  12.490  16.599 -0.2461 -0.1876  0.1247
 1153POPC   C1A13829   5.690  12.090  17.061 -0.1377  0.0159 -0.3036
 1153POPC   D2A13830   5.967  12.131  17.434 -0.0638 -0.2519  0.1942
 1153POPC   C3A13831   6.058  12.030  17.894 -0.3203  0.0682  0.0480
 1153POPC   C4A13832   5.908  12.120  18.281  0.1286 -0.4134  0.1496
 1153POPC   C1B13833   5.429  12.525  17.045  0.0423  0.2881 -0.2716
 1153POPC   C2B13834   5.340  12.273  17.471 -0.0326  0.1851  0.3535
 1153POPC   C3B13835   5.272  12.120  17.895  0.1314 -0.4082 -0.1977
 1153POPC   C4B13836   4.965  11.921  18.196 -0.1862  0.1303 -0.1557
 1154POPC   NC313837  13.405  14.078  16.393 -0.1842 -0.0919  0.0057
 1154POPC   PO413838  13.322  13.726  16.542  0.3722  0.0605  0.0201
 1154POPC   GL113839  13.582  13.939  16.872  0.2638  0.1051  0.4724
 1154POPC   GL213840  13.806  13.872  16.777 -0.1734  0.1409  0.0667
 1154POPC   C1A13841  13.600  13.707  17.272 -0.0141 -0.1646 -0.2933
 1154POPC   D2A13842  13.583  13.650  17.723 -0.1117  0.2181  0.0291
 1154POPC   C3A13843  13.266  13.666  18.123  0.3217  0.0835  0.1297
 1154POPC   C4A13844  12.953  13.647  18.484 -0.0777  0.0090  0.2071
 1154POPC   C1B13845  13.766  14.180  17.194 -0.0857 -0.1250  0.0581
 1154POPC   C2B13846  13.897  14.061  17.640  0.1645 -0.2456  0.0394
 1154POPC   C3B13847  13.984  14.087  18.124  0.0656 -0.0407 -0.2414
 1154POPC   C4B13848  14.004  14.100  18.595 -0.0253  0.2312  0.0200
 1155POPC   NC313849   5.717   8.908  13.802  0.2248 -0.1207 -0.1989
 1155POPC   PO413850   5.591   8.512  13.745  0.3161  0.1101  0.1137
 1155POPC   GL113851   5.952   8.463  13.964  0.1137  0.2315  0.4835
 1155POPC   GL213852   5.921   8.134  13.939  0.0214 -0.0720 -0.0755
 1155POPC   C1A13853   6.405   8.425  13.867  0.1670 -0.0144  0.2380
 1155POPC   D2A13854   6.809   8.224  14.006  0.2043  0.0625  0.2202
 1155POPC   C3A13855   7.199   8.040  14.084  0.0712  0.0535 -0.1184
 1155POPC   C4A13856   7.533   7.719  13.955  0.0199  0.1036  0.0201
 1155POPC   C1B13857   6.064   7.731  14.141  0.0702 -0.0564 -0.1380
 1155POPC   C2B13858   6.421   7.732  14.367 -0.0694 -0.1361  0.1034
 1155POPC   C3B13859   6.607   7.543  14.697  0.1086 -0.2187  0.2023
 1155POPC   C4B13860   6.911   7.463  15.008  0.2947  0.2407 -0.0243
 1156POPC   NC313861   5.196  14.170  16.155  0.0926  0.4764 -0.0192
 1156POPC   PO413862   5.329  14.057  16.529  0.0517  0.0190 -0.0884
 1156POPC   GL113863   5.243  14.051  17.002 -0.2757  0.0900 -0.0190
 1156POPC   GL213864   5.444  13.862  16.970  0.0086  0.1032  0.0319
 1156POPC   C1A13865   5.431  14.349  17.261 -0.1588  0.2602  0.0269
 1156POPC   D2A13866   5.820  14.508  17.549  0.2309  0.0272 -0.0437
 1156POPC   C3A13867   5.768  14.539  18.050 -0.1689  0.0304  0.0136
 1156POPC   C4A13868   5.547  14.753  18.458  0.1287  0.3121  0.1333
 1156POPC   C1B13869   5.524  13.668  17.403 -0.0403  0.0460 -0.1407
 1156POPC   C2B13870   5.454  13.765  17.824 -0.0675 -0.0232  0.2290
 1156POPC   C3B13871   5.323  13.970  18.253 -0.2733  0.2235  0.1573
 1156POPC   C4B13872   5.140  14.298  18.594 -0.1426 -0.1716  0.1770
 1157POPC   NC313873   1.736   7.446  15.747 -0.1602 -0.2635 -0.2671
 1157POPC   PO413874   2.053   7.320  15.977 -0.2077 -0.1564 -0.2187
 1157POPC   GL113875   2.215   6.938  16.137 -0.2163 -0.3435  0.0435
 1157POPC   GL213876   2.442   6.993  16.164  0.0798 -0.0416  0.2284
 1157POPC   C1A13877   2.175   6.624  16.533 -0.3112 -0.0605  0.0597
 1157POPC   D2A13878   2.361   6.669  17.014  0.1814  0.3045  0.3136
 1157POPC   C3A13879   2.252   6.759  17.470 -0.1183  0.2162 -0.0032
 1157POPC   C4A13880   2.062   7.077  17.750 -0.0278 -0.0731 -0.0264
 1157POPC   C1B13881   2.630   6.821  16.487  0.1939 -0.2229 -0.0815
 1157POPC   C2B13882   2.906   6.822  16.884 -0.1676  0.2230  0.0561
 1157POPC   C3B13883   3.386   6.730  16.888  0.0820 -0.5042 -0.0111
 1157POPC   C4B13884   3.785   6.900  17.039  0.1871  0.1310 -0.0789
 1158POPC   NC313885  10.570  11.088  14.585 -0.0692 -0.2445  0.1131
 1158POPC   PO413886  10.700  10.913  14.914 -0.2290  0.1926  0.1344
 1158POPC   GL113887  10.515  10.676  15.291  0.0260 -0.1080 -0.2361
 1158POPC   GL213888  10.274  10.619  15.280  0.0502 -0.1332  0.1044
 1158POPC   C1A13889  10.604  10.219  15.358 -0.1539 -0.1608 -0.1655
 1158POPC   D2A13890  10.818   9.919  15.124  0.2553 -0.2675 -0.1131
 1158POPC   C3A13891  10.794   9.477  15.062 -0.0006 -0.0924  0.1444
 1158POPC   C4A13892  10.637   9.023  15.034 -0.2685  0.0896 -0.2612
 1158POPC   C1B13893   9.985  10.221  15.332 -0.2317 -0.2158 -0.0909
 1158POPC   C2B13894   9.839   9.821  15.128  0.1213  0.0827  0.0135
 1158POPC   C3B13895   9.522   9.524  15.251 -0.1237  0.0103 -0.0020
 1158POPC   C4B13896   9.506   9.072  15.163 -0.0669  0.2175  0.0890
 1159POPC   NC313897   0.864   4.791  15.710  0.0066 -0.2495  0.0934
 1159POPC   PO413898   0.999   5.134  15.609  0.0525  0.0409 -0.0196
 1159POPC   GL113899   0.995   5.154  15.975  0.0836  0.3306 -0.3265
 1159POPC   GL213900   1.205   5.071  16.088  0.4037 -0.0073 -0.1832
 1159POPC   C1A13901   1.111   5.567  16.171 -0.1717  0.2307  0.2101
 1159POPC   D2A13902   1.119   5.766  16.548 -0.3839 -0.1347  0.0479
 1159POPC   C3A13903   0.964   5.442  16.835  0.0100  0.1517  0.0678
 1159POPC   C4A13904   0.949   4.975  16.906 -0.1546 -0.1278 -0.2835
 1159POPC   C1B13905   1.251   5.088  16.531 -0.1474  0.2407 -0.1554
 1159POPC   C2B13906   1.418   5.013  16.983 -0.0886  0.1158  0.3811
 1159POPC   C3B13907   1.346   4.783  17.368  0.3297 -0.1205  0.1388
 1159POPC   C4B13908   1.531   4.482  17.623 -0.0798 -0.2649 -0.3863
 1160POPC   NC313909  15.128   9.941  16.452 -0.0985 -0.2638  0.1755
 1160POPC   PO413910  14.729  10.074  16.463  0.4236  0.1329  0.4341
 1160POPC   GL113911  14.573  10.082  16.792 -0.2898  0.1681  0.1979
 1160POPC   GL213912  14.774  10.108  16.986 -0.1570 -0.1723 -0.3225
 1160POPC   C1A13913  14.423  10.277  17.257 -0.0532  0.3635  0.1900
 1160POPC   D2A13914  14.504  10.223  17.732  0.0946  0.0121 -0.1239
 1160POPC   C3A13915  14.130  10.142  17.981 -0.2236  0.0553 -0.1789
 1160POPC   C4A13916  13.780  10.236  18.227  0.0554  0.2422 -0.0284
 1160POPC   C1B13917  14.989   9.747  17.152 -0.1798 -0.3148 -0.1458
 1160POPC   C2B13918  15.100   9.547  17.539 -0.0732  0.1244 -0.0990
 1160POPC   C3B13919  15.087   9.095  17.757  0.3151  0.0709 -0.1458
 1160POPC   C4B13920  15.319   8.836  18.037  0.2810  0.1651  0.0654
 1161POPC   NC313921  15.038   3.142  15.040 -0.2813 -0.3143  0.2354
 1161POPC   PO413922  14.861   2.798  15.110  0.2115 -0.1163  0.2931
 1161POPC   GL113923  14.773   2.999  15.452  0.0161  0.1183  0.0481
 1161POPC   GL213924  14.936   2.818  15.653  0.2114 -0.3308 -0.1751
 1161POPC   C1A13925  14.552   3.299  15.781  0.1214  0.1008  0.1183
 1161POPC   D2A13926  14.460   3.462  16.169  0.2098 -0.3007 -0.1759
 1161POPC   C3A13927  14.274   3.090  16.305 -0.2186 -0.1294  0.2118
 1161POPC   C4A13928  14.166   3.015  16.736  0.0099  0.4990 -0.5279
 1161POPC   C1B13929  14.895   2.803  16.167 -0.2874 -0.2797 -0.2777
 1161POPC   C2B13930  14.669   2.860  16.554 -0.1946 -0.0540  0.1407
 1161POPC   C3B13931  14.613   3.229  16.896  0.0232 -0.0444  0.2943
 1161POPC   C4B13932  14.785   3.418  17.246  0.0378  0.3390 -0.3938
 1162POPC   NC313933   2.380  10.106  16.205  0.1443  0.0992  0.0539
 1162POPC   PO413934   2.660  10.399  16.292  0.0737  0.4776 -0.1437
 1162POPC   GL113935   2.661  10.496  16.653  0.1485 -0.1090 -0.3598
 1162POPC   GL213936   2.868  10.562  16.862 -0.0566 -0.0118  0.0380
 1162POPC   C1A13937   2.424  10.413  17.056 -0.1099 -0.0639  0.0593
 1162POPC   D2A13938   2.418  10.227  17.480  0.1057 -0.2050  0.0649
 1162POPC   C3A13939   2.692  10.373  17.799 -0.2306  0.2900  0.0711
 1162POPC   C4A13940   2.941  10.528  18.167 -0.0187 -0.1461 -0.1534
 1162POPC   C1B13941   2.914  10.581  17.326 -0.0480  0.1455  0.4137
 1162POPC   C2B13942   2.916  10.822  17.694 -0.3223 -0.1898  0.2147
 1162POPC   C3B13943   2.759  11.112  18.052  0.0342 -0.2090 -0.3972
 1162POPC   C4B13944   2.901  11.371  18.379  0.2044 -0.1632  0.0497
 1163POPC   NC313945  10.928  12.587  16.579  0.0975  0.2539  0.0364
 1163POPC   PO413946  10.974  12.975  16.502  0.0681  0.1056  0.0956
 1163POPC   GL113947  11.106  12.889  16.882  0.1030 -0.3964  0.1701
 1163POPC   GL213948  10.953  12.998  17.011 -0.1628  0.3048  0.4074
 1163POPC   C1A13949  10.974  12.497  17.132  0.0417  0.1308 -0.0331
 1163POPC   D2A13950  10.722  12.407  17.495 -0.2141  0.0441 -0.1144
 1163POPC   C3A13951  10.311  12.300  17.649  0.1559 -0.1396 -0.1148
 1163POPC   C4A13952   9.876  12.197  17.588  0.1581  0.0798  0.1040
 1163POPC   C1B13953  10.942  12.952  17.438 -0.2059  0.1261  0.0532
 1163POPC   C2B13954  10.778  13.026  17.853  0.1040 -0.1837 -0.2455
 1163POPC   C3B13955  10.369  13.126  18.037  0.2427  0.0485 -0.0247
 1163POPC   C4B13956  10.128  13.384  18.404 -0.0874 -0.0474 -0.1228
 1164POPC   NC313957  13.665   1.988  13.611 -0.1604 -0.1344  0.1202
 1164POPC   PO413958  13.585   2.210  13.322  0.1052  0.1411  0.0505
 1164POPC   GL113959  13.210   2.340  13.250 -0.1432 -0.0565  0.0123
 1164POPC   GL213960  13.103   2.240  13.512  0.3332  0.2211  0.0839
 1164POPC   C1A13961  12.940   2.717  13.430 -0.1177 -0.2012 -0.3885
 1164POPC   D2A13962  12.685   3.005  13.755  0.3908 -0.1004  0.3049
 1164POPC   C3A13963  12.793   3.406  13.820  0.1550  0.0736  0.0246
 1164POPC   C4A13964  12.793   3.758  14.073  0.0248  0.1884 -0.1916
 1164POPC   C1B13965  12.766   2.323  13.761 -0.0906 -0.1361  0.1704
 1164POPC   C2B13966  12.414   2.607  13.895 -0.0032 -0.1481  0.3624
 1164POPC   C3B13967  12.189   2.965  13.745 -0.2261  0.2602  0.2876
 1164POPC   C4B13968  11.757   3.066  13.797  0.0347 -0.0884 -0.1422
 1165POPC   NC313969  14.092  14.350  16.008  0.1465  0.0770 -0.3637
 1165POPC   PO413970  13.779  14.381  16.226  0.1228  0.0115  0.0094
 1165POPC   GL113971  13.683  14.320  16.690  0.2062  0.2384 -0.1880
 1165POPC   GL213972  13.972  14.352  16.740  0.0807 -0.0284 -0.4065
 1165POPC   C1A13973  13.477  14.601  17.014 -0.3623  0.0050  0.0057
 1165POPC   D2A13974  13.380  14.652  17.459 -0.0826 -0.0447  0.1152
 1165POPC   C3A13975  13.642  14.546  17.811 -0.2147 -0.1506 -0.3047
 1165POPC   C4A13976  13.960  14.662  18.104  0.2673  0.2624 -0.0882
 1165POPC   C1B13977  14.016  14.859  16.842 -0.1322  0.0963 -0.1159
 1165POPC   C2B13978  13.957  15.277  17.062  0.1534 -0.0636  0.0361
 1165POPC   C3B13979  13.997  15.626  17.391  0.2861  0.0697  0.2259
 1165POPC   C4B13980  13.976  15.883  17.804  0.0903 -0.3238  0.2126
 1166POPC   NC313981   4.553   7.788  14.903  0.3087  0.0106 -0.0936
 1166POPC   PO413982   4.507   7.749  15.305  0.0008  0.0637  0.1089
 1166POPC   GL113983   4.592   7.555  15.636  0.0860 -0.0720 -0.3432
 1166POPC   GL213984   4.447   7.441  15.807  0.0639 -0.1573 -0.1573
 1166POPC   C1A13985   4.951   7.300  15.751 -0.1501  0.0045 -0.0021
 1166POPC   D2A13986   5.351   7.057  15.800  0.1063  0.0667  0.2779
 1166POPC   C3A13987   5.725   6.911  16.026  0.2788 -0.0108  0.1319
 1166POPC   C4A13988   6.059   6.627  15.988 -0.1389 -0.0063 -0.0165
 1166POPC   C1B13989   4.565   7.511  16.212  0.3505 -0.0330  0.1683
 1166POPC   C2B13990   4.615   7.641  16.661 -0.1172 -0.0244  0.4191
 1166POPC   C3B13991   4.685   7.307  16.983 -0.0719 -0.3347 -0.2138
 1166POPC   C4B13992   4.588   7.336  17.437 -0.0333 -0.0222 -0.1633
 1167POPC   NC313993  12.824   9.354  12.159  0.2316  0.1276 -0.0457
 1167POPC   PO413994  12.511   9.218  12.317  0.0267  0.0346  0.0540
 1167POPC   GL113995  12.302   9.014  12.025 -0.1444  0.0892 -0.0726
 1167POPC   GL213996  12.290   8.777  12.226  0.2342  0.1985  0.1821
 1167POPC   C1A13997  12.359   8.627  11.689 -0.1315  0.1387  0.2478
 1167POPC   D2A13998  12.189   8.165  11.611  0.2807 -0.0710  0.1971
 1167POPC   C3A13999  12.484   7.828  11.541  0.1043 -0.0062  0.1858
 1167POPC   C4A14000  12.770   7.616  11.282  0.0746 -0.0646  0.1199
 1167POPC   C1B14001  12.152   8.321  12.115 -0.1559 -0.1528 -0.1505
 1167POPC   C2B14002  12.030   7.916  11.971  0.0393 -0.2745  0.1033
 1167POPC   C3B14003  11.781   7.722  11.653  0.1499  0.1328  0.1576
 1167POPC   C4B14004  11.455   7.523  11.936  0.3255  0.0993  0.0580
 1168POPC   NC314005   2.477   8.868  15.951 -0.0536  0.0023 -0.1546
 1168POPC   PO414006   2.230   8.959  16.271 -0.0729  0.1061 -0.1402
 1168POPC   GL114007   2.297   8.750  16.621 -0.2544  0.0072 -0.0391
 1168POPC   GL214008   2.528   8.943  16.646 -0.0962  0.0045  0.0290
 1168POPC   C1A14009   2.530   8.459  16.873 -0.0962 -0.0601 -0.1174
 1168POPC   D2A14010   2.701   8.260  17.294 -0.1809  0.0208  0.0631
 1168POPC   C3A14011   3.067   8.401  17.515  0.2157  0.0297 -0.0813
 1168POPC   C4A14012   3.148   8.353  17.959  0.1479 -0.2252 -0.1552
 1168POPC   C1B14013   2.694   8.934  17.037 -0.1996 -0.1703 -0.2106
 1168POPC   C2B14014   2.916   8.843  17.462  0.1912 -0.0022 -0.2443
 1168POPC   C3B14015   2.876   8.778  17.894 -0.3054  0.2663 -0.1158
 1168POPC   C4B14016   2.906   8.777  18.365 -0.0099  0.0940 -0.1194
 1169POPC   NC314017  13.204   9.174  14.115 -0.1760  0.1884  0.2777
 1169POPC   PO414018  13.368   9.049  13.787  0.0884  0.1837  0.1127
 1169POPC   GL114019  13.070   8.784  13.840 -0.2722  0.2305 -0.0795
 1169POPC   GL214020  12.994   8.722  14.120  0.0818  0.2051  0.2574
 1169POPC   C1A14021  13.134   8.344  13.709 -0.1216  0.1539  0.1359
 1169POPC   D2A14022  13.031   7.950  13.787  0.0720 -0.0244  0.1413
 1169POPC   C3A14023  12.592   7.790  13.853 -0.3439  0.1229  0.4457
 1169POPC   C4A14024  12.211   7.583  14.004 -0.1943 -0.4046  0.1692
 1169POPC   C1B14025  12.519   8.667  14.110 -0.0124  0.3127 -0.0935
 1169POPC   C2B14026  11.991   8.615  14.198  0.1491 -0.0909  0.0972
 1169POPC   C3B14027  11.581   8.388  14.123 -0.2684 -0.0174  0.2535
 1169POPC   C4B14028  11.130   8.186  14.189  0.0608  0.0045  0.1925
 1170POPC   NC314029   8.116  10.594  12.166  0.0463 -0.4248 -0.4931
 1170POPC   PO414030   7.979  10.656  11.800  0.2382 -0.0522 -0.2031
 1170POPC   GL114031   8.128  10.251  11.846 -0.0215 -0.2779  0.1862
 1170POPC   GL214032   7.981  10.086  12.033 -0.0075  0.0755 -0.0104
 1170POPC   C1A14033   8.575  10.080  11.650  0.2005  0.2598 -0.0534
 1170POPC   D2A14034   8.772   9.706  11.734 -0.3986  0.1944 -0.0848
 1170POPC   C3A14035   8.749   9.246  11.665  0.0866 -0.0709 -0.0663
 1170POPC   C4A14036   8.553   8.954  11.351  0.0406 -0.1545  0.2019
 1170POPC   C1B14037   8.089   9.916  12.436  0.3152  0.0557 -0.0151
 1170POPC   C2B14038   8.226   9.510  12.564  0.0175  0.1251  0.3109
 1170POPC   C3B14039   8.290   9.069  12.738  0.0318 -0.0223  0.3452
 1170POPC   C4B14040   8.486   8.645  12.786  0.2428  0.0136 -0.2481
 1171POPC   NC314041   8.987  11.447  16.030  0.1054 -0.0459  0.1614
 1171POPC   PO414042   9.100  11.821  16.134  0.0062 -0.0688  0.1186
 1171POPC   GL114043   9.044  11.554  16.432  0.3187 -0.1097 -0.2091
 1171POPC   GL214044   8.998  11.736  16.702  0.1207  0.3668  0.0990
 1171POPC   C1A14045   8.646  11.381  16.617 -0.3144 -0.0331  0.2112
 1171POPC   D2A14046   8.459  10.982  16.821 -0.2035 -0.0673 -0.1574
 1171POPC   C3A14047   8.537  11.036  17.231  0.0126 -0.0099  0.0879
 1171POPC   C4A14048   8.638  11.000  17.700  0.1874 -0.1018  0.0280
 1171POPC   C1B14049   9.127  11.589  17.089 -0.0732  0.3389  0.0269
 1171POPC   C2B14050   9.167  11.437  17.571  0.0439 -0.2645  0.0123
 1171POPC   C3B14051   9.073  11.189  17.952  0.0518 -0.1495  0.3144
 1171POPC   C4B14052   8.709  11.116  18.193  0.0984  0.1347 -0.2806
 1172POPC   NC314053   6.307  15.096  16.107 -0.2363 -0.0315 -0.0776
 1172POPC   PO414054   6.620  15.357  16.037 -0.3399 -0.1101  0.0911
 1172POPC   GL114055   6.619  15.381  16.401  0.0465  0.3444  0.1407
 1172POPC   GL214056   6.799  15.606  16.433  0.3543  0.1213  0.0067
 1172POPC   C1A14057   6.567  15.546  16.863 -0.1193  0.5072 -0.2988
 1172POPC   D2A14058   6.725  15.902  17.057  0.1358  0.0307  0.5632
 1172POPC   C3A14059   6.934  15.924  17.531 -0.0783  0.1917 -0.1081
 1172POPC   C4A14060   7.175  15.632  17.756  0.0727  0.4270  0.1364
 1172POPC   C1B14061   7.039  15.584  16.814 -0.2179 -0.4242 -0.0703
 1172POPC   C2B14062   7.249  15.799  17.211  0.1862  0.0894 -0.0491
 1172POPC   C3B14063   7.396  16.098  17.550 -0.0371  0.0146  0.2075
 1172POPC   C4B14064   7.657  16.067  17.938  0.1240  0.0386  0.0427
 1173POPC   NC314065   6.456   9.968  15.074  0.2097  0.2483 -0.0382
 1173POPC   PO414066   6.551   9.940  14.716 -0.0883 -0.0746  0.1906
 1173POPC   GL114067   6.761   9.614  14.920 -0.1248 -0.4729 -0.3493
 1173POPC   GL214068   6.746   9.321  14.788  0.2494  0.3252  0.0391
 1173POPC   C1A14069   6.886   9.383  15.309 -0.1908  0.2916  0.4748
 1173POPC   D2A14070   7.312   9.191  15.417  0.1172  0.3212 -0.5086
 1173POPC   C3A14071   7.335   9.026  15.864  0.1529  0.3318 -0.2457
 1173POPC   C4A14072   7.499   9.309  16.185 -0.0762  0.2804 -0.2184
 1173POPC   C1B14073   6.673   8.954  15.096  0.1085 -0.1599  0.0659
 1173POPC   C2B14074   6.816   8.885  15.540 -0.0323  0.0467  0.0149
 1173POPC   C3B14075   6.917   8.532  15.801  0.2070 -0.0956  0.2957
 1173POPC   C4B14076   7.015   8.030  15.954  0.0718  0.4076  0.2273
 1174POPC   NC314077   4.823  15.514  16.148  0.0254  0.2414 -0.0756
 1174POPC   PO414078   5.247  15.605  16.142  0.0367  0.0810  0.1169
 1174POPC   GL114079   5.156  15.836  16.438 -0.0609 -0.4748  0.1827
 1174POPC   GL214080   4.862  15.830  16.496  0.1191 -0.0031  0.2214
 1174POPC   C1A14081   5.297  16.226  16.706 -0.1523 -0.2221 -0.3034
 1174POPC   D2A14082   5.448  16.604  17.026  0.1118  0.2843 -0.0843
 1174POPC   C3A14083   5.650  16.317  17.385  0.0906 -0.1123  0.0808
 1174POPC   C4A14084   6.047  16.319  17.655  0.0832 -0.0786  0.1969
 1174POPC   C1B14085   4.974  15.847  16.889  0.2345 -0.1637 -0.1090
 1174POPC   C2B14086   5.125  16.130  17.246  0.1451  0.1167 -0.1865
 1174POPC   C3B14087   5.186  16.412  17.587 -0.1305 -0.1051 -0.0023
 1174POPC   C4B14088   5.525  16.543  17.928 -0.2371  0.3583  0.1883
 1175POPC   NC314089  11.707  15.405  15.582 -0.0332  0.0226  0.1769
 1175POPC   PO414090  11.411  15.456  15.310 -0.1463 -0.0454 -0.0603
 1175POPC   GL114091  11.549  15.816  15.374 -0.2922 -0.4101 -0.0214
 1175POPC   GL214092  11.778  15.875  15.506 -0.1104  0.0217  0.1257
 1175POPC   C1A14093  11.526  16.275  15.570  0.1896  0.0244  0.0377
 1175POPC   D2A14094  11.377  16.651  15.902  0.5027 -0.1063 -0.0869
 1175POPC   C3A14095  11.516  16.545  16.353 -0.1878  0.0475  0.0139
 1175POPC   C4A14096  11.451  16.897  16.652 -0.0220 -0.2721  0.2542
 1175POPC   C1B14097  11.639  15.962  15.953 -0.2984 -0.2640 -0.0569
 1175POPC   C2B14098  11.810  16.141  16.302 -0.0975 -0.1177  0.0390
 1175POPC   C3B14099  11.819  16.277  16.714 -0.1557 -0.0685  0.0515
 1175POPC   C4B14100  11.670  16.592  16.952 -0.0622 -0.0242 -0.0129
 1176POPC   NC314101  11.975  14.641  16.088 -0.2048  0.0375  0.0724
 1176POPC   PO414102  12.338  14.583  15.964 -0.1503 -0.0939 -0.2750
 1176POPC   GL114103  12.390  14.783  16.297  0.1464 -0.0059 -0.1355
 1176POPC   GL214104  12.289  14.626  16.516  0.0995 -0.1053 -0.0429
 1176POPC   C1A14105  12.608  15.064  16.644  0.2064 -0.1933 -0.0234
 1176POPC   D2A14106  12.546  15.261  17.102  0.1269  0.3021  0.1201
 1176POPC   C3A14107  12.140  15.505  17.218 -0.3806 -0.3611 -0.1388
 1176POPC   C4A14108  11.940  15.802  17.418  0.5166 -0.2163 -0.2519
 1176POPC   C1B14109  12.063  14.546  16.940  0.0977 -0.2114 -0.1354
 1176POPC   C2B14110  11.878  14.636  17.380  0.0684 -0.1252  0.4781
 1176POPC   C3B14111  11.715  14.604  17.816  0.0759  0.3517 -0.2987
 1176POPC   C4B14112  11.600  14.754  18.169  0.0959  0.1303  0.2520
 1177POPC   NC314113   7.088   9.438  11.011  0.0411 -0.2248  0.2048
 1177POPC   PO414114   7.399   9.649  10.913  0.1407  0.0214  0.1206
 1177POPC   GL114115   7.550   9.328  10.915 -0.0812  0.0131 -0.0978
 1177POPC   GL214116   7.598   9.311  10.584  0.2476  0.0192  0.0589
 1177POPC   C1A14117   7.857   8.968  10.924 -0.5542  0.1633 -0.1241
 1177POPC   D2A14118   8.287   8.700  10.962 -0.0786  0.1224 -0.0326
 1177POPC   C3A14119   8.492   8.534  10.606 -0.0626  0.3201  0.3197
 1177POPC   C4A14120   8.792   8.292  10.399  0.0265 -0.0022 -0.3090
 1177POPC   C1B14121   7.621   9.076  10.175 -0.0268  0.4165  0.2631
 1177POPC   C2B14122   7.648   8.612   9.969 -0.0893 -0.1816 -0.0893
 1177POPC   C3B14123   7.361   8.273  10.003 -0.1171 -0.4774 -0.2507
 1177POPC   C4B14124   7.422   7.826   9.999 -0.1165 -0.1487 -0.1172
 1178POPC   NC314125   9.970  11.493  15.931  0.0550 -0.0859  0.0129
 1178POPC   PO414126  10.193  11.828  15.819  0.0111  0.0155 -0.2898
 1178POPC   GL114127  10.255  11.776  16.312 -0.1416 -0.2566 -0.2469
 1178POPC   GL214128  10.009  11.572  16.412 -0.0605  0.1942 -0.0870
 1178POPC   C1A14129  10.117  11.979  16.729 -0.2010  0.0511 -0.2682
 1178POPC   D2A14130   9.953  12.289  17.001  0.1362 -0.0131 -0.2697
 1178POPC   C3A14131   9.500  12.235  17.236 -0.4484  0.0627  0.1649
 1178POPC   C4A14132   9.332  12.197  17.645 -0.0753  0.0470  0.0880
 1178POPC   C1B14133  10.400  11.314  16.519  0.1014 -0.2551  0.2023
 1178POPC   C2B14134  10.554  11.108  16.898 -0.0398  0.0755  0.2428
 1178POPC   C3B14135  10.810  10.840  17.128  0.0280 -0.1883  0.0623
 1178POPC   C4B14136  10.867  10.533  17.473 -0.2056  0.0178 -0.1010
 1179POPC   NC314137   4.512   5.927  14.588  0.1238 -0.2883 -0.0880
 1179POPC   PO414138   4.781   5.783  14.328  0.1624  0.1136  0.1868
 1179POPC   GL114139   4.966   5.626  14.615  0.0937 -0.1015  0.2697
 1179POPC   GL214140   5.045   5.927  14.748 -0.1219 -0.0390  0.2145
 1179POPC   C1A14141   5.350   5.413  14.624 -0.1580  0.0141  0.1568
 1179POPC   D2A14142   5.798   5.401  14.507 -0.0741  0.3006 -0.2831
 1179POPC   C3A14143   5.810   5.121  14.197  0.2758 -0.0963  0.2670
 1179POPC   C4A14144   6.036   4.808  13.957  0.2855 -0.0866 -0.0979
 1179POPC   C1B14145   5.258   5.706  15.057 -0.3061 -0.2371  0.0802
 1179POPC   C2B14146   5.469   5.712  15.486  0.2732  0.1810  0.0713
 1179POPC   C3B14147   5.760   5.954  15.845 -0.1322 -0.4224 -0.1103
 1179POPC   C4B14148   5.866   6.130  16.338  0.0742 -0.4113 -0.0330
 1180POPC   NC314149  14.116   9.573  15.644  0.0660  0.3229 -0.0319
 1180POPC   PO414150  13.694   9.528  15.694 -0.0653  0.0185  0.0923
 1180POPC   GL114151  13.478   9.372  15.981 -0.0545  0.4297 -0.0383
 1180POPC   GL214152  13.188   9.554  16.044  0.2711 -0.1582 -0.1902
 1180POPC   C1A14153  13.510   9.047  16.321  0.2159 -0.0105 -0.4058
 1180POPC   D2A14154  13.537   8.656  16.599  0.2157  0.0638 -0.1571
 1180POPC   C3A14155  13.175   8.687  16.907 -0.2741 -0.3129 -0.0755
 1180POPC   C4A14156  12.975   8.518  17.264 -0.1007  0.1944 -0.2251
 1180POPC   C1B14157  13.024   9.251  16.255  0.0254 -0.0659 -0.1149
 1180POPC   C2B14158  12.996   9.165  16.709  0.0338  0.2674 -0.1781
 1180POPC   C3B14159  12.768   8.999  17.075 -0.2031  0.0720  0.0211
 1180POPC   C4B14160  12.623   8.809  17.430  0.1686  0.1258 -0.4524
 1181POPC   NC314161   8.615  13.415  16.325  0.0910  0.0118 -0.1739
 1181POPC   PO414162   8.343  13.675  16.403 -0.1857 -0.1889  0.0398
 1181POPC   GL114163   8.549  13.703  16.795  0.0299 -0.3747  0.0960
 1181POPC   GL214164   8.853  13.797  16.919  0.1224  0.2825 -0.0103
 1181POPC   C1A14165   8.426  13.783  17.214 -0.0209  0.0244 -0.0110
 1181POPC   D2A14166   8.084  14.009  17.383  0.0778 -0.1722 -0.0244
 1181POPC   C3A14167   8.129  14.203  17.750  0.4359  0.1783 -0.2562
 1181POPC   C4A14168   8.295  14.133  18.161  0.3097  0.0936  0.3379
 1181POPC   C1B14169   8.912  14.083  17.251 -0.1113 -0.1538 -0.4553
 1181POPC   C2B14170   8.999  14.420  17.636 -0.0491  0.1780 -0.2229
 1181POPC   C3B14171   9.082  14.860  17.899 -0.3772 -0.2188  0.2302
 1181POPC   C4B14172   9.224  15.074  18.305  0.2618 -0.0801 -0.0329
 1182POPC   NC314173   0.038   6.433  15.620  0.0779  0.3398  0.1238
 1182POPC   PO414174  -0.033   6.077  15.741  0.0446 -0.0404  0.4071
 1182POPC   GL114175  -0.174   6.281  16.130  0.0226 -0.0534  0.2624
 1182POPC   GL214176  -0.173   6.030  16.296 -0.1499 -0.0282 -0.1291
 1182POPC   C1A14177  -0.272   6.574  16.448  0.3935 -0.0631 -0.0662
 1182POPC   D2A14178  -0.341   6.805  16.830  0.1270  0.1333  0.1092
 1182POPC   C3A14179  -0.674   6.675  17.097 -0.0723  0.0126  0.1557
 1182POPC   C4A14180  -1.047   6.848  17.355 -0.2558 -0.1464  0.0027
 1182POPC   C1B14181  -0.165   5.782  16.681 -0.1035 -0.0439  0.2538
 1182POPC   C2B14182   0.037   5.678  17.094  0.1292 -0.0603 -0.0053
 1182POPC   C3B14183   0.425   5.763  17.215 -0.2209 -0.0754  0.0767
 1182POPC   C4B14184   0.901   5.677  17.337 -0.4110 -0.3435 -0.2099
 1183POPC   NC314185  14.814   2.380  15.394  0.0378 -0.0343 -0.0842
 1183POPC   PO414186  15.125   2.210  15.407 -0.1902 -0.3118 -0.0347
 1183POPC   GL114187  15.133   2.379  15.721 -0.4370 -0.0746  0.1730
 1183POPC   GL214188  15.021   2.314  15.976 -0.0580 -0.0281  0.0149
 1183POPC   C1A14189  15.379   2.681  15.944 -0.2686  0.2295  0.0365
 1183POPC   D2A14190  15.370   3.055  16.244 -0.0546 -0.2055 -0.2305
 1183POPC   C3A14191  15.144   2.931  16.645  0.0084 -0.1323  0.1044
 1183POPC   C4A14192  15.189   2.945  17.094 -0.0997 -0.0439  0.0650
 1183POPC   C1B14193  14.963   2.360  16.419  0.3077 -0.0020 -0.1455
 1183POPC   C2B14194  14.597   2.230  16.713 -0.1704  0.1855 -0.0619
 1183POPC   C3B14195  14.396   2.368  17.146 -0.0868 -0.0373 -0.2431
 1183POPC   C4B14196  14.174   2.317  17.621  0.1016 -0.1573  0.1025
 1184POPC   NC314197  15.811  12.248  16.849  0.1358  0.1659  0.1009
 1184POPC   PO414198  16.015  11.961  16.629  0.2061  0.3336 -0.0921
 1184POPC   GL114199  16.101  11.807  16.979 -0.0335 -0.0138  0.2755
 1184POPC   GL214200  16.079  11.972  17.155  0.0618  0.1209  0.1914
 1184POPC   C1A14201  16.386  11.527  17.204 -0.1383 -0.3106 -0.0627
 1184POPC   D2A14202  16.727  11.405  17.539 -0.0669  0.2144 -0.2413
 1184POPC   C3A14203  16.999  11.391  17.947  0.3093 -0.1300 -0.0650
 1184POPC   C4A14204  17.206  11.159  18.288  0.0266  0.1350 -0.5197
 1184POPC   C1B14205  15.830  11.898  17.499 -0.2898  0.1719 -0.2868
 1184POPC   C2B14206  15.902  11.706  17.928 -0.0524  0.0829 -0.3433
 1184POPC   C3B14207  15.743  11.583  18.328 -0.1241 -0.1564  0.3076
 1184POPC   C4B14208  15.560  11.277  18.622 -0.0458  0.3594  0.2101
 1185POPC   NC314209  13.047   9.249  12.898  0.2290 -0.2922 -0.0273
 1185POPC   PO414210  12.880   9.080  12.588 -0.2697 -0.0654 -0.0152
 1185POPC   GL114211  12.706   8.821  12.411 -0.2905  0.1622 -0.0666
 1185POPC   GL214212  12.797   8.551  12.325  0.1627 -0.0143 -0.3177
 1185POPC   C1A14213  12.438   8.501  12.668 -0.0406 -0.0131 -0.1873
 1185POPC   D2A14214  12.219   8.207  12.966  0.1223 -0.1250 -0.1407
 1185POPC   C3A14215  12.321   8.109  13.410 -0.3538  0.0118  0.2261
 1185POPC   C4A14216  12.663   8.273  13.673  0.1567 -0.0986 -0.1793
 1185POPC   C1B14217  12.638   8.200  12.054 -0.0643 -0.1249 -0.1992
 1185POPC   C2B14218  12.550   7.727  12.044  0.1416  0.2354  0.1134
 1185POPC   C3B14219  12.767   7.421  11.795 -0.0255  0.2839 -0.2403
 1185POPC   C4B14220  12.902   7.061  11.557  0.0476 -0.0318  0.0382
 1186POPC   NC314221  10.597  11.165  10.488 -0.0345 -0.1304  0.2027
 1186POPC   PO414222  10.733  10.757  10.464  0.0448 -0.0605 -0.0130
 1186POPC   GL114223  10.727  10.377  10.346  0.1741  0.3614 -0.6744
 1186POPC   GL214224  10.753  10.332  10.041 -0.1011  0.2150  0.0258
 1186POPC   C1A14225  10.780   9.943  10.347 -0.1101  0.2638  0.0440
 1186POPC   D2A14226  10.833   9.455  10.373 -0.1973 -0.1613  0.0574
 1186POPC   C3A14227  10.605   9.127  10.202  0.0390 -0.1861  0.0513
 1186POPC   C4A14228  10.463   8.687  10.248  0.1338 -0.1474 -0.3574
 1186POPC   C1B14229  10.430  10.043  10.039  0.1503 -0.2028 -0.2787
 1186POPC   C2B14230  10.605   9.638   9.967  0.0337  0.2964 -0.0389
 1186POPC   C3B14231  10.511   9.317   9.681  0.1527  0.0937 -0.1025
 1186POPC   C4B14232  10.196   8.978   9.512  0.2665 -0.3523  0.3082
 1187POPC   NC314233   0.517   0.441  16.177 -0.0638  0.1466 -0.3762
 1187POPC   PO414234   0.915   0.524  16.116  0.0380  0.1874  0.0034
 1187POPC   GL114235   0.945   0.466  16.585 -0.0682 -0.1295  0.1335
 1187POPC   GL214236   0.740   0.440  16.770  0.1729 -0.2129 -0.0282
 1187POPC   C1A14237   1.082   0.829  16.860  0.2205  0.1633 -0.1264
 1187POPC   D2A14238   1.362   1.159  17.036 -0.0166  0.2628  0.0074
 1187POPC   C3A14239   1.393   1.392  17.452 -0.1798  0.1970 -0.1462
 1187POPC   C4A14240   1.386   1.544  17.917 -0.0741 -0.0581 -0.1883
 1187POPC   C1B14241   0.898   0.414  17.185 -0.4192 -0.0796 -0.0854
 1187POPC   C2B14242   1.133   0.698  17.401  0.1633  0.4949  0.0661
 1187POPC   C3B14243   1.054   1.100  17.670  0.0490 -0.1112 -0.2373
 1187POPC   C4B14244   1.095   1.076  18.149  0.0038  0.2194  0.1702
 1188POPC   NC314245  12.109   0.385  14.106 -0.1848 -0.0403 -0.0084
 1188POPC   PO414246  11.764   0.243  14.262 -0.1286 -0.2050  0.0736
 1188POPC   GL114247  11.698   0.581  14.563  0.0505  0.0553  0.1784
 1188POPC   GL214248  11.960   0.529  14.696 -0.1504  0.0084  0.2478
 1188POPC   C1A14249  11.669   0.989  14.752 -0.1246 -0.1504  0.1178
 1188POPC   D2A14250  11.516   1.132  15.133 -0.3940  0.0460  0.1721
 1188POPC   C3A14251  11.277   1.545  15.074  0.2230 -0.3383  0.0504
 1188POPC   C4A14252  10.982   1.860  15.200  0.1289 -0.2034  0.1462
 1188POPC   C1B14253  11.759   0.653  15.099  0.0716  0.0983  0.1923
 1188POPC   C2B14254  11.608   0.839  15.533 -0.1054 -0.3632 -0.0013
 1188POPC   C3B14255  11.811   0.955  15.971 -0.2612  0.2741  0.0922
 1188POPC   C4B14256  11.822   1.126  16.387 -0.0526  0.2378 -0.0877
 1189POPC   NC314257   0.452  12.635  16.675  0.1089  0.0458 -0.2513
 1189POPC   PO414258   0.690  12.949  16.720 -0.2623  0.1048 -0.1124
 1189POPC   GL114259   0.525  13.019  17.125  0.2790  0.0998  0.1316
 1189POPC   GL214260   0.485  12.759  17.155  0.0192  0.3715  0.1179
 1189POPC   C1A14261   0.471  13.342  17.468 -0.0614 -0.2103 -0.4442
 1189POPC   D2A14262   0.332  13.692  17.780 -0.3837 -0.3519  0.0766
 1189POPC   C3A14263   0.663  13.679  18.085  0.1025 -0.2316 -0.1033
 1189POPC   C4A14264   0.861  13.288  18.252 -0.1146 -0.0305 -0.0971
 1189POPC   C1B14265   0.474  12.682  17.624  0.2500  0.2772 -0.2257
 1189POPC   C2B14266   0.428  12.612  18.052 -0.2347 -0.1927  0.1423
 1189POPC   C3B14267   0.427  12.299  18.383  0.1190  0.0353  0.1721
 1189POPC   C4B14268   0.434  12.024  18.729  0.1336 -0.0914  0.0848
 1190POPC   NC314269  13.490   8.613  13.983 -0.7205 -0.0363 -0.1441
 1190POPC   PO414270  13.417   8.774  14.354  0.1475  0.1052 -0.0681
 1190POPC   GL114271  13.329   8.391  14.540 -0.3572  0.1345  0.0396
 1190POPC   GL214272  13.181   8.295  14.264 -0.0941 -0.2078 -0.1393
 1190POPC   C1A14273  13.361   8.105  14.860 -0.0852  0.1264 -0.0446
 1190POPC   D2A14274  13.247   7.971  15.265  0.2386  0.1790 -0.1192
 1190POPC   C3A14275  12.924   8.058  15.565 -0.2020  0.1828 -0.0943
 1190POPC   C4A14276  12.587   7.957  15.814  0.2028 -0.2578 -0.1186
 1190POPC   C1B14277  12.717   8.228  14.148  0.1792  0.0379 -0.1142
 1190POPC   C2B14278  12.302   8.128  14.025  0.1169  0.2330 -0.0242
 1190POPC   C3B14279  11.919   7.891  14.198  0.3313  0.1643 -0.1534
 1190POPC   C4B14280  11.710   7.528  14.018 -0.1559  0.0249 -0.1851
 1191POPC   NC314281  14.452   8.658  14.751 -0.0083 -0.1680  0.3748
 1191POPC   PO414282  14.114   8.460  14.881 -0.0629 -0.1305 -0.2267
 1191POPC   GL114283  14.081   8.209  15.131 -0.3503  0.3006  0.6376
 1191POPC   GL214284  13.781   8.037  15.028 -0.0507 -0.0271  0.0617
 1191POPC   C1A14285  13.931   8.001  15.510  0.0176  0.0374  0.0277
 1191POPC   D2A14286  13.752   7.577  15.680  0.1175  0.1596  0.0756
 1191POPC   C3A14287  13.252   7.547  15.520 -0.1791  0.1275  0.0772
 1191POPC   C4A14288  12.844   7.557  15.441 -0.1161  0.3341 -0.0333
 1191POPC   C1B14289  13.596   7.618  15.184 -0.1187 -0.1088  0.2079
 1191POPC   C2B14290  13.631   7.167  15.320 -0.1772 -0.0943 -0.0630
 1191POPC   C3B14291  13.419   6.926  15.607 -0.1864 -0.1558  0.1291
 1191POPC   C4B14292  13.233   6.498  15.621 -0.0843 -0.1314 -0.0363
 1192POPC   NC314293  16.045   9.251  16.466  0.1527 -0.1683  0.3846
 1192POPC   PO414294  15.776   9.356  16.204  0.2782 -0.4579  0.2303
 1192POPC   GL114295  15.536   9.272  16.365 -0.1520 -0.0285  0.1615
 1192POPC   GL214296  15.619   9.071  16.658 -0.0511  0.0478 -0.0257
 1192POPC   C1A14297  15.208   9.415  16.670 -0.1137 -0.2280  0.1040
 1192POPC   D2A14298  14.783   9.563  16.788 -0.0352  0.1680 -0.0775
 1192POPC   C3A14299  14.701   9.247  17.118 -0.2069  0.1020 -0.0902
 1192POPC   C4A14300  14.636   9.186  17.553  0.0786 -0.1617  0.4850
 1192POPC   C1B14301  15.230   8.867  16.861  0.1111 -0.0732  0.1825
 1192POPC   C2B14302  15.006   8.859  17.294 -0.0634 -0.0147 -0.0910
 1192POPC   C3B14303  14.836   8.641  17.645 -0.1214 -0.0562  0.3873
 1192POPC   C4B14304  14.518   8.366  17.810  0.0871  0.3304 -0.1414
 1193POPC   NC314305  12.169  11.968  15.893  0.1784  0.0908  0.1021
 1193POPC   PO414306  11.942  12.000  16.221  0.0964 -0.0534  0.4973
 1193POPC   GL114307  11.828  12.126  16.601 -0.0636 -0.0827  0.2028
 1193POPC   GL214308  11.539  12.059  16.681  0.0651 -0.0427 -0.0344
 1193POPC   C1A14309  11.939  11.936  17.012  0.1185 -0.1932 -0.2381
 1193POPC   D2A14310  11.929  11.710  17.392 -0.1758  0.1457 -0.1196
 1193POPC   C3A14311  12.100  11.252  17.462 -0.0763  0.2104  0.2173
 1193POPC   C4A14312  12.245  10.769  17.431  0.3387 -0.2009  0.0123
 1193POPC   C1B14313  11.408  12.108  17.114  0.0333  0.0662  0.0970
 1193POPC   C2B14314  11.234  12.192  17.558 -0.1922 -0.1057  0.1923
 1193POPC   C3B14315  11.441  12.325  17.958  0.0311 -0.0357 -0.1732
 1193POPC   C4B14316  11.281  12.549  18.363 -0.1218 -0.0176  0.2820
 1194POPC   NC314317  13.457   2.789  14.280 -0.1567  0.1793  0.2901
 1194POPC   PO414318  13.679   2.598  14.571 -0.1000  0.0511  0.1961
 1194POPC   GL114319  13.402   2.798  14.774 -0.4988 -0.0042  0.0738
 1194POPC   GL214320  13.509   2.673  15.025  0.1147 -0.0203 -0.1035
 1194POPC   C1A14321  13.064   2.939  15.091  0.0845 -0.0254 -0.0781
 1194POPC   D2A14322  12.542   3.019  15.093 -0.3685  0.0707 -0.1240
 1194POPC   C3A14323  12.292   3.239  15.391  0.1132 -0.0217 -0.0483
 1194POPC   C4A14324  12.154   3.622  15.759 -0.0495  0.3279 -0.1015
 1194POPC   C1B14325  13.428   2.839  15.463 -0.4199  0.0567  0.0417
 1194POPC   C2B14326  13.417   2.589  15.857 -0.0958  0.0174 -0.0238
 1194POPC   C3B14327  13.371   2.621  16.332  0.1626 -0.0924  0.1310
 1194POPC   C4B14328  13.388   2.465  16.738  0.1124  0.0517 -0.3159
 1195POPC   NC314329   8.561  15.405  15.248 -0.1096  0.1052 -0.1608
 1195POPC   PO414330   8.888  15.453  15.499 -0.0525  0.3930 -0.0480
 1195POPC   GL114331   8.999  15.418  15.837  0.5229 -0.3475 -0.0825
 1195POPC   GL214332   8.946  15.241  16.172 -0.0310  0.2512  0.2264
 1195POPC   C1A14333   9.186  15.777  16.115 -0.0700 -0.0977  0.0019
 1195POPC   D2A14334   9.131  16.198  16.312  0.1756 -0.2650  0.1700
 1195POPC   C3A14335   9.122  16.586  16.519 -0.0810 -0.2150  0.2614
 1195POPC   C4A14336   8.941  17.023  16.616  0.1488 -0.2750 -0.0058
 1195POPC   C1B14337   9.289  15.427  16.442  0.0932  0.2319  0.1240
 1195POPC   C2B14338   9.539  15.754  16.590  0.1839 -0.1021  0.0789
 1195POPC   C3B14339   9.705  15.922  16.983  0.0243  0.0836  0.0341
 1195POPC   C4B14340   9.905  16.176  17.293  0.0721  0.2410  0.2413
 1196POPC   NC314341  15.292  12.864  16.596 -0.1853 -0.0856 -0.1775
 1196POPC   PO414342  15.610  12.653  16.671 -0.0494 -0.2949 -0.0074
 1196POPC   GL114343  15.603  12.735  17.023 -0.2078 -0.1217  0.2172
 1196POPC   GL214344  15.832  13.005  17.026  0.3416 -0.0770  0.5004
 1196POPC   C1A14345  15.572  12.534  17.439 -0.2359 -0.1723  0.0107
 1196POPC   D2A14346  15.571  12.257  17.769 -0.2458  0.6085 -0.0479
 1196POPC   C3A14347  15.436  12.476  18.137  0.0970  0.0633 -0.2596
 1196POPC   C4A14348  15.433  12.584  18.570 -0.0707 -0.0969 -0.2020
 1196POPC   C1B14349  15.993  12.890  17.469  0.0842 -0.0836 -0.3529
 1196POPC   C2B14350  15.794  12.699  17.901 -0.0427  0.2997  0.2069
 1196POPC   C3B14351  15.860  12.716  18.349 -0.0734  0.0493  0.0930
 1196POPC   C4B14352  16.205  12.986  18.561  0.2883 -0.0657  0.2424
 1197POPC   NC314353   3.425   3.928  14.494  0.2244 -0.2894  0.0177
 1197POPC   PO414354   3.812   3.838  14.503  0.4270  0.1015 -0.1187
 1197POPC   GL114355   4.079   3.798  14.838 -0.2150  0.1918 -0.2211
 1197POPC   GL214356   4.165   3.574  15.031 -0.1420 -0.1007  0.2305
 1197POPC   C1A14357   4.494   3.876  15.044  0.0770 -0.0203 -0.2864
 1197POPC   D2A14358   4.631   4.224  15.302  0.2721 -0.0755  0.0321
 1197POPC   C3A14359   4.935   4.288  15.582 -0.1689  0.1928  0.0488
 1197POPC   C4A14360   5.240   4.322  15.993  0.2486  0.0679 -0.0209
 1197POPC   C1B14361   4.492   3.361  15.362 -0.2302  0.0202 -0.2341
 1197POPC   C2B14362   4.593   3.411  15.776  0.3700 -0.2278 -0.0410
 1197POPC   C3B14363   4.755   3.694  16.098 -0.0273  0.0685  0.2517
 1197POPC   C4B14364   4.860   4.092  16.170  0.1898 -0.1118 -0.2822
 1198POPC   NC314365  11.519  32.489  15.312  0.2376 -0.1043 -0.0656
 1198POPC   PO414366  11.107  32.629  15.397 -0.0837 -0.0661  0.1228
 1198POPC   GL114367  10.889  32.860  15.628  0.4875  0.0353  0.1821
 1198POPC   GL214368  10.626  32.827  15.433 -0.0669 -0.3113  0.1856
 1198POPC   C1A14369  10.974  33.069  15.977  0.2712  0.2640 -0.1886
 1198POPC   D2A14370  11.058  33.110  16.458 -0.1914  0.2520  0.0181
 1198POPC   C3A14371  11.064  33.474  16.796 -0.2282  0.1758 -0.2097
 1198POPC   C4A14372  10.911  33.551  17.202  0.2200 -0.1286  0.2010
 1198POPC   C1B14373  10.533  33.067  15.787  0.1998  0.3253 -0.0899
 1198POPC   C2B14374  10.537  33.386  16.158 -0.2645  0.2611  0.2933
 1198POPC   C3B14375  10.464  33.814  16.216 -0.2340  0.1381 -0.4647
 1198POPC   C4B14376  10.177  34.076  16.534 -0.1819  0.0028 -0.1118
 1199POPC   NC314377  13.979   2.729  15.111  0.0989 -0.0244  0.2704
 1199POPC   PO414378  13.934   2.359  15.129  0.0820 -0.3164 -0.2502
 1199POPC   GL114379  13.975   2.424  15.544 -0.6075 -0.1451 -0.0598
 1199POPC   GL214380  14.002   2.671  15.583  0.3053 -0.2639 -0.3476
 1199POPC   C1A14381  13.684   2.181  15.824 -0.2483  0.0581 -0.0222
 1199POPC   D2A14382  13.683   2.245  16.323 -0.2827  0.1021 -0.1011
 1199POPC   C3A14383  13.487   1.944  16.586 -0.2325  0.0531  0.0350
 1199POPC   C4A14384  13.471   1.568  16.824  0.0225 -0.1135 -0.1588
 1199POPC   C1B14385  13.996   2.528  16.051 -0.0463  0.0110  0.3787
 1199POPC   C2B14386  13.878   2.656  16.505  0.3276  0.1164  0.0033
 1199POPC   C3B14387  13.881   2.542  16.934 -0.2475  0.1885  0.0699
 1199POPC   C4B14388  13.690   2.241  17.199  0.2878 -0.2631 -0.1994
 1200POPC   NC314389  14.576   7.299  12.124 -0.0896  0.0317  0.2027
 1200POPC   PO414390  14.424   6.964  12.226 -0.3915  0.0043  0.1489
 1200POPC   GL114391  14.007   6.865  12.274  0.1709  0.3832 -0.4461
 1200POPC   GL214392  13.744   6.972  12.386  0.0197  0.0695 -0.1929
 1200POPC   C1A14393  13.655   6.612  12.072 -0.0722  0.0382  0.2375
 1200POPC   D2A14394  13.420   6.230  11.907  0.2955  0.2920  0.0543
 1200POPC   C3A14395  13.086   5.910  12.042 -0.2288 -0.1573 -0.3355
 1200POPC   C4A14396  12.978   5.459  12.161 -0.0820  0.3829 -0.1068
 1200POPC   C1B14397  13.297   6.805  12.399  0.2411  0.0070 -0.0987
 1200POPC   C2B14398  12.854   6.654  12.511  0.3263 -0.0359  0.2545
 1200POPC   C3B14399  12.477   6.459  12.234  0.0432  0.1274  0.4976
 1200POPC   C4B14400  12.277   6.017  12.391 -0.2609 -0.0734  0.1028
 1201POPC   NC314401   8.592  11.342  10.000 -0.6313  0.1376 -0.2202
 1201POPC   PO414402   8.454  10.974   9.879 -0.1320 -0.1485  0.0679
 1201POPC   GL114403   8.506  10.802   9.590 -0.0264  0.1365 -0.0539
 1201POPC   GL214404   8.601  10.543   9.716  0.0205 -0.4563 -0.0060
 1201POPC   C1A14405   8.743  10.798   9.242  0.0495 -0.0916  0.1041
 1201POPC   D2A14406   9.003  10.704   8.860 -0.1167  0.0991  0.1251
 1201POPC   C3A14407   8.945  10.798   8.346  0.1490 -0.1104 -0.0969
 1201POPC   C4A14408   8.847  11.080   8.044 -0.2098  0.1278  0.3457
 1201POPC   C1B14409   8.653  10.325   9.284 -0.1393  0.0760 -0.1511
 1201POPC   C2B14410   8.691   9.971   9.020  0.3698  0.0226 -0.3514
 1201POPC   C3B14411   8.602   9.669   8.692  0.2815  0.1155  0.2409
 1201POPC   C4B14412   8.650   9.436   8.365 -0.1470 -0.1425  0.2559
 1202POPC   NC314413  14.525   7.898  15.034  0.0606 -0.2255  0.1413
 1202POPC   PO414414  14.630   7.714  15.346  0.1099 -0.1338 -0.1201
 1202POPC   GL114415  14.315   7.641  15.659 -0.4126 -0.2322 -0.2805
 1202POPC   GL214416  14.406   7.865  15.849 -0.0394  0.1814  0.2068
 1202POPC   C1A14417  14.073   7.439  16.034 -0.4290 -0.2491  0.2777
 1202POPC   D2A14418  13.693   7.483  16.209 -0.1987 -0.2551  0.2032
 1202POPC   C3A14419  13.329   7.337  15.947  0.0906 -0.1111  0.1672
 1202POPC   C4A14420  12.865   7.325  15.884  0.1397  0.0148  0.0542
 1202POPC   C1B14421  14.013   8.000  16.001 -0.2135  0.0992  0.2607
 1202POPC   C2B14422  13.654   7.977  16.218 -0.1131  0.0451 -0.0075
 1202POPC   C3B14423  13.586   7.829  16.695 -0.2879  0.0910 -0.1990
 1202POPC   C4B14424  13.514   7.513  17.043  0.1618 -0.2352 -0.1357
 1203POPC   NC314425   6.806  10.120  10.381 -0.0212  0.1607 -0.2895
 1203POPC   PO414426   6.718  10.214  10.033  0.0940 -0.0279  0.0711
 1203POPC   GL114427   6.594   9.768  10.046  0.2383  0.0833  0.0169
 1203POPC   GL214428   6.872   9.674   9.995 -0.3471  0.2136  0.1041
 1203POPC   C1A14429   6.563   9.407   9.738  0.0972 -0.2281  0.1913
 1203POPC   D2A14430   6.834   9.071   9.578  0.3362 -0.3139 -0.4908
 1203POPC   C3A14431   6.920   8.810   9.259  0.0532  0.2532  0.4476
 1203POPC   C4A14432   7.112   8.557   8.899 -0.2311  0.0022 -0.1838
 1203POPC   C1B14433   7.131   9.262   9.933  0.2334  0.1534 -0.1459
 1203POPC   C2B14434   7.215   8.811   9.695 -0.0495  0.6158  0.1938
 1203POPC   C3B14435   7.247   8.458   9.350 -0.0756 -0.1420 -0.0846
 1203POPC   C4B14436   7.547   8.293   9.036  0.2342 -0.1159 -0.2056
 1204POPC   NC314437   2.254   6.922  15.687 -0.0598 -0.1705  0.0044
 1204POPC   PO414438   2.272   6.554  15.709 -0.1341 -0.0998  0.2345
 1204POPC   GL114439   2.282   6.480  16.040  0.0804  0.3323 -0.3094
 1204POPC   GL214440   2.533   6.467  16.176 -0.1966  0.0251  0.2618
 1204POPC   C1A14441   2.183   6.172  16.375 -0.0400  0.0852 -0.0243
 1204POPC   D2A14442   2.366   5.960  16.791  0.1022  0.2369  0.0143
 1204POPC   C3A14443   2.460   5.844  17.219  0.1476  0.2706  0.0466
 1204POPC   C4A14444   2.823   5.945  17.464 -0.0922  0.1532  0.0458
 1204POPC   C1B14445   2.609   6.336  16.600 -0.0234  0.1291  0.0524
 1204POPC   C2B14446   2.698   6.244  17.071  0.0336 -0.2470  0.2390
 1204POPC   C3B14447   3.089   6.391  17.324  0.2056 -0.1590  0.2200
 1204POPC   C4B14448   3.541   6.457  17.283  0.2086 -0.2135  0.0952
 1205POPC   NC314449   4.881   5.136  10.962 -0.1010  0.3177 -0.0294
 1205POPC   PO414450   4.902   5.201  11.374 -0.0973 -0.1945  0.4390
 1205POPC   GL114451   5.317   5.163  11.187 -0.0545 -0.4079  0.1218
 1205POPC   GL214452   5.601   4.926  11.221 -0.0116 -0.0723 -0.0604
 1205POPC   C1A14453   5.726   5.396  11.046 -0.0184  0.1103 -0.2164
 1205POPC   D2A14454   6.070   5.784  10.990 -0.1879  0.1072 -0.3542
 1205POPC   C3A14455   6.055   6.233  11.179 -0.0098 -0.2419 -0.0841
 1205POPC   C4A14456   5.739   6.340  11.503 -0.1399 -0.2264  0.0390
 1205POPC   C1B14457   5.860   4.960  10.832  0.2735  0.3230  0.0929
 1205POPC   C2B14458   6.172   4.855  10.465 -0.1742 -0.2466 -0.2304
 1205POPC   C3B14459   6.623   4.740  10.553 -0.1467  0.4002 -0.2419
 1205POPC   C4B14460   7.037   4.750  10.734 -0.1860  0.0061  0.1055
 1206POPC   NC314461   4.907  14.520  16.355 -0.3145 -0.0023  0.0247
 1206POPC   PO414462   4.694  14.756  16.533  0.0895 -0.1313 -0.1613
 1206POPC   GL114463   4.802  14.636  16.811 -0.0398 -0.1755 -0.1979
 1206POPC   GL214464   4.953  14.828  17.004 -0.0050 -0.1093 -0.0567
 1206POPC   C1A14465   4.857  14.343  17.154  0.3113 -0.1048 -0.3063
 1206POPC   D2A14466   5.057  14.023  17.452 -0.2035 -0.0319  0.0805
 1206POPC   C3A14467   5.003  14.086  17.899  0.0923  0.3071  0.3582
 1206POPC   C4A14468   4.797  14.047  18.319  0.0334  0.1544 -0.2367
 1206POPC   C1B14469   4.908  15.021  17.401 -0.1296  0.0295 -0.0606
 1206POPC   C2B14470   5.035  15.189  17.786 -0.0342 -0.0327  0.1412
 1206POPC   C3B14471   4.971  15.535  18.001 -0.2613  0.1405  0.0401
 1206POPC   C4B14472   5.420  15.691  18.144 -0.0655 -0.3926 -0.4129
 1207POPC   NC314473   2.455  13.855  16.764  0.0322 -0.0225 -0.0215
 1207POPC   PO414474   2.105  13.996  16.899 -0.0168  0.1016 -0.0023
 1207POPC   GL114475   2.122  13.878  17.158 -0.0079 -0.2052 -0.1618
 1207POPC   GL214476   2.313  13.583  17.200  0.0618  0.1150  0.1017
 1207POPC   C1A14477   2.198  13.968  17.593 -0.0637  0.3143  0.0335
 1207POPC   D2A14478   2.433  14.195  17.894 -0.0185  0.4835  0.1532
 1207POPC   C3A14479   2.378  14.322  18.334  0.2292 -0.2479  0.0613
 1207POPC   C4A14480   2.477  14.260  18.790 -0.2722 -0.3409 -0.1897
 1207POPC   C1B14481   2.385  13.528  17.669  0.2084 -0.1924 -0.0082
 1207POPC   C2B14482   2.315  13.606  18.139  0.1009  0.2294  0.1436
 1207POPC   C3B14483   2.322  13.815  18.604  0.1517  0.3990  0.1502
 1207POPC   C4B14484   2.043  13.901  18.924 -0.0833 -0.0583  0.1269
 1208POPC   NC314485   2.263   7.697   9.610  0.0611 -0.1028 -0.2123
 1208POPC   PO414486   2.426   7.527   9.316 -0.2175 -0.1456  0.0331
 1208POPC   GL114487   2.281   7.529   9.018  0.1155 -0.1801 -0.0612
 1208POPC   GL214488   2.271   7.299   8.805 -0.2686 -0.0864 -0.2017
 1208POPC   C1A14489   2.362   7.781   8.632  0.0853  0.3581 -0.0352
 1208POPC   D2A14490   2.455   8.050   8.267 -0.3623  0.1257 -0.2748
 1208POPC   C3A14491   2.535   7.989   7.814 -0.0189  0.1303  0.0816
 1208POPC   C4A14492   2.705   8.096   7.389  0.1019  0.0771 -0.0669
 1208POPC   C1B14493   2.628   7.433   8.514 -0.2060 -0.0448 -0.1964
 1208POPC   C2B14494   2.996   7.347   8.174 -0.3049 -0.0904  0.0920
 1208POPC   C3B14495   3.316   7.388   7.794  0.0259 -0.1906  0.1026
 1208POPC   C4B14496   3.219   7.247   7.417 -0.0336  0.2414 -0.2904
 1209POPC   NC314497  10.726  11.044  15.425 -0.0352  0.1307 -0.1032
 1209POPC   PO414498  10.814  11.196  15.747  0.0405 -0.0147 -0.0610
 1209POPC   GL114499  10.779  11.152  16.197  0.0583  0.0323  0.0246
 1209POPC   GL214500  10.975  11.239  16.355  0.3048 -0.1161  0.2999
 1209POPC   C1A14501  10.486  10.798  16.374 -0.1436 -0.1143  0.0988
 1209POPC   D2A14502  10.107  10.706  16.685 -0.0215 -0.2875 -0.1369
 1209POPC   C3A14503  10.187  10.733  17.114  0.2923 -0.1064 -0.0097
 1209POPC   C4A14504  10.375  10.798  17.498 -0.0511 -0.1432  0.6745
 1209POPC   C1B14505  10.952  10.881  16.611  0.1613 -0.1121  0.2254
 1209POPC   C2B14506  10.582  10.599  16.792  0.2966 -0.0626  0.0848
 1209POPC   C3B14507  10.299  10.235  16.935 -0.2799 -0.0913 -0.1801
 1209POPC   C4B14508  10.108   9.986  17.270  0.1568  0.2207 -0.2341
 1210POPC   NC314509  14.123   6.231  14.369  0.2073 -0.1191 -0.0943
 1210POPC   PO414510  14.145   6.655  14.454 -0.3612 -0.1793  0.1799
 1210POPC   GL114511  13.904   6.670  14.778 -0.3549  0.3591  0.1936
 1210POPC   GL214512  14.042   6.589  15.019 -0.0951 -0.2659 -0.1137
 1210POPC   C1A14513  13.483   6.683  14.617  0.0567  0.0191  0.3072
 1210POPC   D2A14514  12.990   6.652  14.675  0.1869 -0.1776  0.5470
 1210POPC   C3A14515  12.633   6.645  14.407 -0.1476  0.1102  0.2618
 1210POPC   C4A14516  12.200   6.592  14.466  0.0651 -0.0461  0.1623
 1210POPC   C1B14517  13.632   6.627  15.183 -0.0978 -0.2520  0.1568
 1210POPC   C2B14518  13.119   6.635  15.151 -0.0351  0.1094 -0.1134
 1210POPC   C3B14519  12.768   6.470  15.442 -0.0879  0.1245  0.2670
 1210POPC   C4B14520  12.538   6.212  15.742  0.1644 -0.1339 -0.0989
 1211POPC   NC314521  13.727  10.471   9.414 -0.1736  0.1656  0.4395
 1211POPC   PO414522  13.465  10.711   9.487  0.2016 -0.2329  0.0212
 1211POPC   GL114523  13.252  10.576   9.126 -0.0167 -0.1972 -0.1472
 1211POPC   GL214524  13.180  10.310   9.265 -0.0090  0.1703 -0.1971
 1211POPC   C1A14525  13.527  10.484   8.743 -0.0070  0.0774  0.0127
 1211POPC   D2A14526  13.743  10.532   8.393  0.1499  0.2709  0.2416
 1211POPC   C3A14527  13.566  10.253   7.964  0.2477 -0.2386  0.1541
 1211POPC   C4A14528  13.438  10.197   7.477 -0.1195 -0.1119 -0.0096
 1211POPC   C1B14529  13.394   9.922   9.131  0.0093  0.1237  0.1057
 1211POPC   C2B14530  13.298   9.702   8.737  0.2101  0.0326 -0.1507
 1211POPC   C3B14531  13.231   9.228   8.756 -0.1225  0.0624 -0.2176
 1211POPC   C4B14532  13.276   8.792   8.651  0.0027  0.1718 -0.1293
 1212POPC   NC314533   7.621  14.889  16.142 -0.2215 -0.2182 -0.2524
 1212POPC   PO414534   7.847  14.598  15.909  0.2903 -0.2205  0.0266
 1212POPC   GL114535   7.954  14.548  16.290 -0.0665  0.2807 -0.1378
 1212POPC   GL214536   7.770  14.445  16.473  0.0511  0.3238 -0.0868
 1212POPC   C1A14537   8.265  14.604  16.596  0.0037 -0.0596 -0.0550
 1212POPC   D2A14538   8.730  14.741  16.705 -0.1352  0.1045  0.2977
 1212POPC   C3A14539   8.812  14.603  17.149 -0.1433  0.0977 -0.0948
 1212POPC   C4A14540   8.719  14.860  17.512 -0.1830 -0.0375 -0.3171
 1212POPC   C1B14541   7.925  14.475  16.942 -0.3486  0.1199  0.1833
 1212POPC   C2B14542   7.965  14.472  17.403 -0.1058 -0.2337  0.1756
 1212POPC   C3B14543   8.121  14.732  17.774  0.2116  0.0339 -0.0038
 1212POPC   C4B14544   8.452  15.110  17.880  0.4713  0.1806 -0.0537
 1213POPC   NC314545  12.856   1.067  15.060  0.0753  0.3009  0.1873
 1213POPC   PO414546  13.252   1.141  15.164 -0.1249 -0.2845 -0.2974
 1213POPC   GL114547  13.037   1.367  15.432  0.1630 -0.0784  0.2043
 1213POPC   GL214548  12.954   1.158  15.664 -0.0513 -0.0154 -0.0193
 1213POPC   C1A14549  12.669   1.560  15.651  0.0862 -0.0348 -0.1589
 1213POPC   D2A14550  12.456   1.750  15.978  0.4142  0.1499 -0.0461
 1213POPC   C3A14551  12.687   2.113  16.270 -0.2489  0.1066  0.2931
 1213POPC   C4A14552  12.938   2.035  16.646  0.1247  0.0187 -0.1469
 1213POPC   C1B14553  12.754   1.151  16.058 -0.2019 -0.0098  0.2122
 1213POPC   C2B14554  12.721   0.913  16.424 -0.2371 -0.2788  0.0231
 1213POPC   C3B14555  12.765   0.803  16.855  0.4008  0.0632 -0.2928
 1213POPC   C4B14556  12.700   0.852  17.296 -0.1012  0.1201 -0.2731
 1214POPC   NC314557   3.661  31.171  16.677 -0.2179  0.0006  0.0160
 1214POPC   PO414558   3.654  31.538  16.507 -0.1207 -0.3106 -0.0314
 1214POPC   GL114559   3.892  31.884  16.711  0.0826 -0.1293 -0.4220
 1214POPC   GL214560   3.697  31.945  16.903 -0.1627  0.0230  0.1248
 1214POPC   C1A14561   4.152  32.048  17.082 -0.1216  0.0248  0.1466
 1214POPC   D2A14562   4.077  32.207  17.509 -0.2383 -0.2008 -0.0790
 1214POPC   C3A14563   3.735  32.354  17.831 -0.0070  0.0310 -0.1667
 1214POPC   C4A14564   3.385  32.608  18.052  0.2303 -0.4630 -0.0473
 1214POPC   C1B14565   3.721  31.916  17.357  0.0896 -0.0419 -0.2477
 1214POPC   C2B14566   3.777  31.887  17.807  0.0330 -0.1264  0.0511
 1214POPC   C3B14567   4.081  31.659  18.097  0.0574 -0.3150 -0.0415
 1214POPC   C4B14568   4.526  31.707  18.277  0.1946  0.0239  0.1487
 1215POPC   NC314569  14.189   7.190  14.355  0.2696  0.2066 -0.2026
 1215POPC   PO414570  14.312   6.970  14.077 -0.0546 -0.1560 -0.0114
 1215POPC   GL114571  13.950   6.926  14.091 -0.2527 -0.1139  0.3256
 1215POPC   GL214572  13.780   6.629  14.082 -0.2000 -0.0605 -0.0079
 1215POPC   C1A14573  13.696   7.149  14.394 -0.1199 -0.0244 -0.1492
 1215POPC   D2A14574  13.852   7.544  14.654  0.1187  0.0146  0.1872
 1215POPC   C3A14575  13.467   7.669  14.734 -0.1372  0.0434 -0.0498
 1215POPC   C4A14576  13.015   7.668  14.863  0.1799  0.2382 -0.1118
 1215POPC   C1B14577  13.334   6.473  14.199  0.2775 -0.4199  0.0563
 1215POPC   C2B14578  13.004   6.280  14.305  0.1704  0.0823  0.0217
 1215POPC   C3B14579  12.611   6.182  14.492 -0.0133  0.1154 -0.1742
 1215POPC   C4B14580  12.464   5.963  14.814 -0.0646 -0.1025 -0.1887
 1216POPC   NC314581  14.749  11.014   9.001  0.0323 -0.0626 -0.0101
 1216POPC   PO414582  15.150  11.126   8.926  0.0786 -0.3513  0.1362
 1216POPC   GL114583  15.043  11.048   8.577  0.2731  0.2365 -0.2043
 1216POPC   GL214584  14.980  10.756   8.629 -0.0428  0.0892 -0.0721
 1216POPC   C1A14585  15.110  11.046   8.119  0.1998 -0.0369  0.0635
 1216POPC   D2A14586  15.407  10.798   7.876 -0.0955 -0.1929 -0.1146
 1216POPC   C3A14587  15.367  10.472   7.539  0.0831 -0.1284  0.0316
 1216POPC   C4A14588  15.016  10.264   7.431  0.1356 -0.3690  0.0132
 1216POPC   C1B14589  14.804  10.671   8.266 -0.1404 -0.1120  0.1053
 1216POPC   C2B14590  14.762  10.825   7.852  0.1751 -0.1395  0.3073
 1216POPC   C3B14591  14.561  10.723   7.397  0.1801  0.0911  0.1181
 1216POPC   C4B14592  14.414  10.671   6.987 -0.0002  0.1250 -0.1328
 1217POPC   NC314593   2.448  14.328  16.668  0.1075  0.3025 -0.2820
 1217POPC   PO414594   2.065  14.355  16.506  0.1409 -0.1290  0.3116
 1217POPC   GL114595   2.012  14.449  16.906 -0.1219 -0.2887  0.1543
 1217POPC   GL214596   2.104  14.703  16.969 -0.2839  0.1552  0.1013
 1217POPC   C1A14597   1.686  14.572  17.218  0.0959 -0.2517 -0.0863
 1217POPC   D2A14598   1.370  14.875  17.413 -0.0235 -0.0650 -0.1746
 1217POPC   C3A14599   1.398  14.905  17.881  0.3358  0.2292  0.2145
 1217POPC   C4A14600   1.428  14.567  18.174 -0.1515 -0.0443 -0.0354
 1217POPC   C1B14601   2.115  14.520  17.441  0.1158  0.2017 -0.0349
 1217POPC   C2B14602   2.259  14.635  17.842  0.1448 -0.0398  0.1174
 1217POPC   C3B14603   2.411  15.031  18.107  0.0285  0.1001 -0.0088
 1217POPC   C4B14604   2.282  15.493  18.104 -0.2942  0.3706 -0.1602
 1218POPC   NC314605  14.486   6.176  12.027 -0.0092 -0.4091 -0.3518
 1218POPC   PO414606  14.387   6.560  11.958 -0.2544  0.0662  0.1577
 1218POPC   GL114607  14.100   6.852  11.868 -0.0983 -0.4558 -0.4863
 1218POPC   GL214608  14.255   7.031  11.761  0.0769  0.1765  0.1141
 1218POPC   C1A14609  13.826   7.072  11.523  0.0225 -0.1522 -0.0635
 1218POPC   D2A14610  13.371   7.018  11.423  0.2104  0.1029  0.2927
 1218POPC   C3A14611  13.243   7.385  11.164 -0.1018  0.1495 -0.0143
 1218POPC   C4A14612  13.091   7.492  10.771  0.1551  0.0331  0.1847
 1218POPC   C1B14613  14.182   7.456  11.743  0.1544 -0.3669 -0.2600
 1218POPC   C2B14614  14.173   7.851  11.567  0.3115 -0.2304 -0.0464
 1218POPC   C3B14615  13.835   8.114  11.366  0.1229  0.5616 -0.1198
 1218POPC   C4B14616  13.403   8.283  11.331  0.1615  0.0950 -0.0859
 1219POPC   NC314617   2.374  32.106  16.248  0.2180 -0.1022  0.0223
 1219POPC   PO414618   2.289  32.405  16.008  0.0604  0.0654 -0.1478
 1219POPC   GL114619   2.293  32.521  16.411 -0.3873  0.0308 -0.2921
 1219POPC   GL214620   2.481  32.786  16.342 -0.0650  0.1457 -0.0016
 1219POPC   C1A14621   2.147  32.809  16.714  0.3708 -0.0808  0.0152
 1219POPC   D2A14622   2.154  33.168  17.009  0.1600  0.3829  0.1327
 1219POPC   C3A14623   1.991  33.442  17.311 -0.1448 -0.1630 -0.1052
 1219POPC   C4A14624   2.183  33.788  17.567  0.0060 -0.2692  0.0443
 1219POPC   C1B14625   2.587  32.999  16.729  0.0967  0.3763 -0.0516
 1219POPC   C2B14626   2.601  33.096  17.179  0.0060  0.1125  0.1913
 1219POPC   C3B14627   2.614  33.053  17.612  0.2380  0.0303  0.2296
 1219POPC   C4B14628   2.515  33.174  18.084 -0.1227 -0.1730 -0.0495
 1220POPC   NC314629   4.557   9.540  15.778 -0.0046 -0.2132 -0.0280
 1220POPC   PO414630   4.172   9.694  15.779  0.2471 -0.0390  0.0586
 1220POPC   GL114631   4.238   9.554  16.090  0.0333  0.1824 -0.1969
 1220POPC   GL214632   3.981   9.698  16.271  0.0650 -0.2285 -0.1844
 1220POPC   C1A14633   4.228   9.318  16.473 -0.1465 -0.0603 -0.1367
 1220POPC   D2A14634   4.140   9.036  16.859 -0.0927 -0.2980 -0.0994
 1220POPC   C3A14635   4.203   9.104  17.281  0.1631 -0.0857 -0.0378
 1220POPC   C4A14636   4.146   9.309  17.700 -0.1057 -0.0202  0.1057
 1220POPC   C1B14637   4.160   9.950  16.581 -0.1177 -0.2787 -0.1373
 1220POPC   C2B14638   4.319  10.043  16.962 -0.2242 -0.0158 -0.1480
 1220POPC   C3B14639   4.388  10.186  17.381 -0.0404  0.0032 -0.2120
 1220POPC   C4B14640   4.574  10.376  17.779 -0.1139 -0.1871  0.2559
 1221POPC   NC314641  14.008   0.769  15.712  0.0789 -0.2629 -0.4664
 1221POPC   PO414642  14.342   0.874  15.624  0.0604  0.0323  0.3124
 1221POPC   GL114643  14.322   1.067  15.891  0.0208 -0.1988 -0.2389
 1221POPC   GL214644  14.532   1.029  16.118 -0.1738 -0.0384 -0.1294
 1221POPC   C1A14645  14.340   1.512  16.042 -0.1419  0.0017 -0.3124
 1221POPC   D2A14646  14.373   1.839  15.844  0.1500 -0.1270 -0.0780
 1221POPC   C3A14647  14.367   2.308  15.802 -0.0548 -0.0198 -0.2309
 1221POPC   C4A14648  14.421   2.734  15.933 -0.1395  0.0622 -0.1957
 1221POPC   C1B14649  14.498   1.185  16.496  0.1177  0.3155 -0.2920
 1221POPC   C2B14650  14.528   1.343  16.935  0.2629 -0.0879 -0.1814
 1221POPC   C3B14651  14.257   1.382  17.321  0.3083 -0.1797 -0.3814
 1221POPC   C4B14652  13.962   1.397  17.722 -0.1796 -0.0368 -0.1601
 1222POPC   NC314653   5.813   2.234  13.631  0.1559 -0.1519 -0.0529
 1222POPC   PO414654   6.157   2.133  13.534  0.1636 -0.1982  0.1033
 1222POPC   GL114655   6.257   2.475  13.634  0.0155 -0.2302  0.1579
 1222POPC   GL214656   6.314   2.595  13.375  0.2687 -0.2741  0.2238
 1222POPC   C1A14657   6.500   2.639  14.029 -0.1929  0.0405  0.1032
 1222POPC   D2A14658   6.337   2.778  14.435 -0.2385 -0.0986 -0.0758
 1222POPC   C3A14659   6.322   3.197  14.665  0.0212  0.1631  0.2083
 1222POPC   C4A14660   6.662   3.450  14.874  0.0185 -0.1425 -0.0072
 1222POPC   C1B14661   6.553   2.959  13.497  0.0424 -0.1263 -0.2737
 1222POPC   C2B14662   6.930   3.214  13.638 -0.0570  0.2106  0.3483
 1222POPC   C3B14663   7.298   3.527  13.606 -0.0062 -0.0333  0.0764
 1222POPC   C4B14664   7.481   3.757  13.921  0.1893  0.2285  0.0939
 1223POPC   NC314665  11.836  10.143  12.013 -0.0905 -0.0272  0.1772
 1223POPC   PO414666  11.541  10.319  12.141 -0.0348  0.0420 -0.1043
 1223POPC   GL114667  11.408   9.987  12.065  0.0214 -0.4075  0.3405
 1223POPC   GL214668  11.325   9.943  11.775  0.1481 -0.2909 -0.2611
 1223POPC   C1A14669  11.658   9.588  12.069 -0.1912  0.1400  0.2113
 1223POPC   D2A14670  11.805   9.248  12.341  0.2245 -0.1061 -0.1314
 1223POPC   C3A14671  11.775   8.797  12.271  0.1217 -0.0453 -0.2254
 1223POPC   C4A14672  11.665   8.331  12.172 -0.0987 -0.0267  0.2906
 1223POPC   C1B14673  11.003   9.646  11.643  0.2323 -0.0106  0.0999
 1223POPC   C2B14674  10.795   9.302  11.662 -0.4011  0.2056  0.1524
 1223POPC   C3B14675  10.584   8.895  11.570 -0.0183 -0.0964  0.2010
 1223POPC   C4B14676  10.288   8.603  11.363 -0.1771  0.0141 -0.1515
 1224POPC   NC314677   7.211  10.172   9.893  0.4366  0.1740  0.3626
 1224POPC   PO414678   7.264   9.972  10.225 -0.1037  0.0526  0.2198
 1224POPC   GL114679   7.422   9.594  10.153  0.0138  0.2599  0.3020
 1224POPC   GL214680   7.410   9.664   9.837 -0.0620 -0.1805 -0.0767
 1224POPC   C1A14681   7.891   9.445  10.150  0.1252  0.0208  0.0889
 1224POPC   D2A14682   8.091   9.142   9.879 -0.2792 -0.1975 -0.1426
 1224POPC   C3A14683   8.231   8.771   9.638 -0.1616  0.1222  0.0315
 1224POPC   C4A14684   8.352   8.472   9.357 -0.1146 -0.2603 -0.0019
 1224POPC   C1B14685   7.665   9.293   9.692  0.1115 -0.0273 -0.0775
 1224POPC   C2B14686   7.689   8.890   9.475 -0.2016 -0.2274  0.1495
 1224POPC   C3B14687   7.916   8.651   9.134  0.2388 -0.3587  0.1531
 1224POPC   C4B14688   8.017   8.244   8.895 -0.2865  0.2008  0.1700
 1225POPC   NC314689  13.381  10.802  10.009  0.1715  0.0328  0.4121
 1225POPC   PO414690  13.099  10.655   9.803 -0.0775  0.0532  0.1148
 1225POPC   GL114691  12.885  10.292   9.635 -0.3705 -0.0154 -0.0175
 1225POPC   GL214692  12.656  10.234   9.762  0.4399  0.2299 -0.1298
 1225POPC   C1A14693  12.656  10.190   9.228  0.0055 -0.2343  0.1111
 1225POPC   D2A14694  12.422   9.880   8.887  0.1808  0.1464 -0.3920
 1225POPC   C3A14695  12.401   9.656   8.485  0.2465 -0.1030 -0.0886
 1225POPC   C4A14696  12.194   9.656   8.033 -0.0401  0.1954 -0.0712
 1225POPC   C1B14697  12.496   9.814   9.680 -0.2466  0.1268 -0.0189
 1225POPC   C2B14698  12.415   9.526   9.247 -0.0516  0.0179 -0.0669
 1225POPC   C3B14699  12.230   9.288   8.861  0.0573 -0.1455 -0.2151
 1225POPC   C4B14700  12.004   9.287   8.430 -0.0620  0.0613  0.0540
 1226POPC   NC314701  11.940   9.740  11.690 -0.4361  0.1013  0.1087
 1226POPC   PO414702  12.244   9.959  11.859 -0.1823 -0.0732 -0.0242
 1226POPC   GL114703  12.284   9.510  11.927 -0.1705  0.1681 -0.1830
 1226POPC   GL214704  12.532   9.546  11.799  0.0819 -0.1771  0.2144
 1226POPC   C1A14705  11.958   9.213  11.787  0.2878  0.1925 -0.2547
 1226POPC   D2A14706  11.953   8.781  11.841  0.0950 -0.0442  0.0414
 1226POPC   C3A14707  11.478   8.710  11.851  0.2484  0.1897 -0.1349
 1226POPC   C4A14708  11.144   8.431  11.803 -0.1228  0.1319 -0.1070
 1226POPC   C1B14709  12.488   9.107  11.618  0.0366  0.3267 -0.1040
 1226POPC   C2B14710  12.671   8.766  11.401 -0.0426 -0.0829 -0.0348
 1226POPC   C3B14711  12.686   8.295  11.436  0.0886 -0.0080  0.1658
 1226POPC   C4B14712  12.990   7.982  11.661  0.1216 -0.3032 -0.2504
 1227POPC   NC314713   1.579   0.170  15.837 -0.0140  0.2509 -0.3828
 1227POPC   PO414714   1.840  -0.091  15.905 -0.0449 -0.0773 -0.1207
 1227POPC   GL114715   1.980   0.015  16.289  0.1031  0.0698  0.1742
 1227POPC   GL214716   1.739   0.147  16.383 -0.2658  0.0550  0.0354
 1227POPC   C1A14717   2.164   0.407  16.459 -0.3013  0.2733  0.4089
 1227POPC   D2A14718   2.040   0.743  16.665 -0.0274  0.0742  0.3480
 1227POPC   C3A14719   2.121   0.937  16.993 -0.0329 -0.2417 -0.1971
 1227POPC   C4A14720   2.509   1.183  17.055 -0.1500  0.2471 -0.1744
 1227POPC   C1B14721   1.752   0.258  16.816 -0.0293  0.0795  0.2646
 1227POPC   C2B14722   1.624   0.681  17.011  0.2062 -0.1352 -0.1587
 1227POPC   C3B14723   1.634   0.910  17.441 -0.0317 -0.2937 -0.2840
 1227POPC   C4B14724   1.819   1.293  17.688 -0.0456 -0.0549 -0.2403
 1228POPC   NC314725   6.835   0.987  14.663 -0.0975 -0.1793 -0.1101
 1228POPC   PO414726   6.479   0.874  14.692  0.3253  0.1359  0.0620
 1228POPC   GL114727   6.567   0.879  15.078  0.0858  0.1220 -0.0047
 1228POPC   GL214728   6.413   0.594  15.105  0.0599  0.0288  0.1383
 1228POPC   C1A14729   6.854   0.770  15.451 -0.0477  0.4258  0.1478
 1228POPC   D2A14730   7.145   0.775  15.817  0.0759  0.0149  0.2489
 1228POPC   C3A14731   7.262   1.152  15.976  0.2095 -0.0390 -0.1624
 1228POPC   C4A14732   7.437   1.506  16.243 -0.0311 -0.0350 -0.2875
 1228POPC   C1B14733   6.258   0.795  15.488 -0.0266  0.0793 -0.2749
 1228POPC   C2B14734   6.218   1.048  15.833 -0.2379  0.0935 -0.1663
 1228POPC   C3B14735   5.917   1.116  16.180  0.0334  0.4476  0.2495
 1228POPC   C4B14736   5.949   1.269  16.643 -0.0759  0.3105 -0.0640
 1229POPC   NC314737  15.186   7.133  15.180  0.1512 -0.2177 -0.0616
 1229POPC   PO414738  15.191   7.489  15.241  0.2838 -0.0310  0.1315
 1229POPC   GL114739  14.874   7.313  15.467  0.1363  0.0114 -0.3582
 1229POPC   GL214740  14.530   7.263  15.518  0.0975 -0.1561  0.0255
 1229POPC   C1A14741  14.806   7.316  15.943 -0.3934 -0.2353  0.5771
 1229POPC   D2A14742  14.523   7.212  16.305  0.1109  0.0421  0.1625
 1229POPC   C3A14743  14.539   6.917  16.638  0.3783  0.1534 -0.2816
 1229POPC   C4A14744  14.567   6.680  17.049  0.0609  0.0925 -0.2248
 1229POPC   C1B14745  14.368   6.954  15.798  0.2455 -0.1460  0.1322
 1229POPC   C2B14746  14.191   6.740  16.193  0.1625  0.0114 -0.0336
 1229POPC   C3B14747  13.846   6.815  16.531 -0.1649 -0.3865  0.1276
 1229POPC   C4B14748  13.675   7.226  16.612  0.0259  0.0979 -0.1927
 1230POPC   NC314749   1.943   8.620  15.914  0.1739 -0.0887  0.2414
 1230POPC   PO414750   1.746   8.301  16.045 -0.1171 -0.2436 -0.0532
 1230POPC   GL114751   1.569   8.529  16.362 -0.0270  0.0402  0.2652
 1230POPC   GL214752   1.803   8.675  16.355 -0.2878  0.1674 -0.1999
 1230POPC   C1A14753   1.264   8.432  16.670 -0.2931  0.0296 -0.3046
 1230POPC   D2A14754   1.274   8.544  17.111  0.2480 -0.2125 -0.0241
 1230POPC   C3A14755   1.634   8.242  17.272 -0.2059 -0.1095  0.0641
 1230POPC   C4A14756   1.718   8.163  17.673 -0.1893 -0.2494  0.2359
 1230POPC   C1B14757   1.848   8.409  16.746  0.0530 -0.0928  0.1218
 1230POPC   C2B14758   2.086   8.135  17.079 -0.1872 -0.2473  0.3181
 1230POPC   C3B14759   2.188   8.155  17.488  0.0432 -0.1054 -0.0647
 1230POPC   C4B14760   2.099   8.199  17.945  0.1593  0.2205 -0.1116
 1231POPC   NC314761  15.870   0.834  16.152 -0.3633 -0.0251  0.1491
 1231POPC   PO414762  16.285   0.863  16.225 -0.0363  0.1742  0.0433
 1231POPC   GL114763  16.176   0.935  16.678 -0.2643  0.0506 -0.0421
 1231POPC   GL214764  15.947   0.969  16.653  0.0399  0.1081 -0.2307
 1231POPC   C1A14765  16.361   1.365  16.782  0.2146  0.0112 -0.3014
 1231POPC   D2A14766  16.182   1.502  17.221 -0.6068 -0.1440  0.3132
 1231POPC   C3A14767  15.846   1.324  17.488  0.0115  0.3233  0.0535
 1231POPC   C4A14768  15.545   1.109  17.705 -0.0302  0.1116  0.0981
 1231POPC   C1B14769  16.058   0.964  17.137 -0.1309  0.2986 -0.3550
 1231POPC   C2B14770  16.046   0.913  17.579 -0.0738 -0.1328 -0.0857
 1231POPC   C3B14771  15.982   1.122  17.993  0.1243 -0.2523  0.3269
 1231POPC   C4B14772  15.859   1.185  18.421  0.0713  0.0481  0.1638
 1232POPC   NC314773  15.202  11.091  16.815 -0.3505  0.2208 -0.0140
 1232POPC   PO414774  15.444  11.339  16.590  0.2355 -0.0466  0.0720
 1232POPC   GL114775  15.475  11.524  17.031  0.1328 -0.4788 -0.0264
 1232POPC   GL214776  15.675  11.712  16.908  0.1097  0.3018 -0.0187
 1232POPC   C1A14777  15.256  11.351  17.368 -0.3108  0.3018 -0.1013
 1232POPC   D2A14778  14.941  11.386  17.686  0.0126 -0.0320  0.0828
 1232POPC   C3A14779  14.826  11.352  18.105  0.1398 -0.2200 -0.0531
 1232POPC   C4A14780  14.791  11.751  18.323 -0.1497  0.2408  0.1664
 1232POPC   C1B14781  15.831  11.418  17.229  0.0706 -0.3376  0.0892
 1232POPC   C2B14782  16.136  11.352  17.584  0.1822  0.2229 -0.0545
 1232POPC   C3B14783  16.420  11.091  17.865 -0.0212  0.1152  0.3016
 1232POPC   C4B14784  16.724  11.103  18.268  0.1569 -0.0888 -0.3548
 1233POPC   NC314785   4.693   7.361  13.482  0.0112 -0.3850  0.0447
 1233POPC   PO414786   4.870   7.701  13.285 -0.2476 -0.2067  0.1300
 1233POPC   GL114787   5.271   7.602  13.310 -0.1255 -0.4612  0.3719
 1233POPC   GL214788   5.319   7.413  13.523 -0.2561 -0.1033 -0.1954
 1233POPC   C1A14789   5.732   7.754  13.221 -0.0979  0.3799 -0.1186
 1233POPC   D2A14790   6.176   7.669  13.166 -0.1144  0.1122  0.1729
 1233POPC   C3A14791   6.598   7.683  13.395  0.1086 -0.0345  0.1808
 1233POPC   C4A14792   6.987   7.728  13.130 -0.2123 -0.0835  0.0748
 1233POPC   C1B14793   5.758   7.261  13.473 -0.0108  0.0094  0.2177
 1233POPC   C2B14794   6.097   6.933  13.506 -0.2772  0.0720  0.2496
 1233POPC   C3B14795   6.484   6.638  13.482  0.0787  0.0211  0.2767
 1233POPC   C4B14796   6.412   6.188  13.658  0.3581 -0.0213 -0.1623
 1234POPC   NC314797   6.591  10.528   9.559 -0.2694 -0.0587 -0.1334
 1234POPC   PO414798   6.937  10.584   9.770 -0.2439  0.1140  0.0329
 1234POPC   GL114799   7.252  10.480   9.589 -0.2576  0.2117 -0.2104
 1234POPC   GL214800   7.520  10.498   9.759  0.0233 -0.0573 -0.2477
 1234POPC   C1A14801   7.149  10.248   9.217 -0.0015 -0.4706  0.3188
 1234POPC   D2A14802   7.333  10.166   8.835  0.0183  0.2467 -0.0501
 1234POPC   C3A14803   7.661   9.869   8.678  0.0456 -0.0516  0.2155
 1234POPC   C4A14804   8.118   9.842   8.684 -0.1404  0.0507  0.0703
 1234POPC   C1B14805   7.603  10.409   9.315  0.0870 -0.2743 -0.2329
 1234POPC   C2B14806   7.822  10.116   9.048  0.1254 -0.2916 -0.0489
 1234POPC   C3B14807   7.865   9.702   9.194  0.4120  0.1600 -0.0520
 1234POPC   C4B14808   7.785   9.317   8.966 -0.4328  0.2024  0.2952
 1235POPC   NC314809   2.772  16.858  16.690 -0.1873 -0.3121 -0.0445
 1235POPC   PO414810   2.703  16.476  16.554 -0.0319  0.1882 -0.1034
 1235POPC   GL114811   2.739  16.128  16.813  0.0369 -0.2983 -0.3671
 1235POPC   GL214812   2.687  16.255  17.072  0.4508  0.1141 -0.2839
 1235POPC   C1A14813   3.165  16.073  17.023 -0.0584  0.1142  0.1555
 1235POPC   D2A14814   3.534  16.130  17.350  0.2818 -0.4166 -0.2593
 1235POPC   C3A14815   3.420  16.044  17.795 -0.5107 -0.1716  0.2595
 1235POPC   C4A14816   3.362  16.294  18.194 -0.2541 -0.0671 -0.3295
 1235POPC   C1B14817   2.709  16.422  17.498  0.1995  0.0674 -0.0368
 1235POPC   C2B14818   3.172  16.472  17.650  0.1468 -0.1969 -0.0775
 1235POPC   C3B14819   3.595  16.525  17.780 -0.1405  0.2602 -0.1529
 1235POPC   C4B14820   3.838  16.785  18.118 -0.0148 -0.0213 -0.0254
 1236POPC   NC314821   5.538   8.897  14.519 -0.0279 -0.0402 -0.3882
 1236POPC   PO414822   5.343   8.624  14.677 -0.5110 -0.1243  0.1507
 1236POPC   GL114823   5.402   8.235  14.685 -0.0055  0.0419 -0.1281
 1236POPC   GL214824   5.602   8.221  14.892 -0.1804  0.3197 -0.1571
 1236POPC   C1A14825   5.316   7.789  14.839  0.0880 -0.3217  0.1398
 1236POPC   D2A14826   5.490   7.426  15.008  0.1181 -0.0461  0.0753
 1236POPC   C3A14827   5.838   7.229  15.260 -0.0487 -0.1543  0.2313
 1236POPC   C4A14828   6.015   6.985  15.629  0.3049  0.1351 -0.1854
 1236POPC   C1B14829   5.947   7.996  15.027 -0.0368  0.1054 -0.1408
 1236POPC   C2B14830   6.201   8.078  15.352 -0.2036  0.2813  0.3536
 1236POPC   C3B14831   6.526   7.902  15.586 -0.2101 -0.1008 -0.1195
 1236POPC   C4B14832   6.886   7.628  15.585 -0.1099  0.0546  0.1031
 1237POPC   NC314833  13.668  12.303  16.417 -0.0968 -0.2384  0.1222
 1237POPC   PO414834  13.874  12.630  16.268  0.0509 -0.0606  0.5470
 1237POPC   GL114835  13.857  12.654  16.664  0.2884  0.1288 -0.2796
 1237POPC   GL214836  13.807  12.834  16.898 -0.0588 -0.2432 -0.1376
 1237POPC   C1A14837  14.139  12.394  16.948 -0.3134  0.1342  0.0254
 1237POPC   D2A14838  14.308  12.087  17.234  0.1973  0.0600  0.1109
 1237POPC   C3A14839  14.324  12.167  17.712 -0.2005  0.3531 -0.1219
 1237POPC   C4A14840  14.493  11.984  18.054 -0.1936 -0.0663 -0.0277
 1237POPC   C1B14841  13.870  12.695  17.291  0.0003 -0.1845 -0.0852
 1237POPC   C2B14842  13.845  12.664  17.743  0.2608  0.1794  0.0812
 1237POPC   C3B14843  13.590  12.602  18.119  0.2208 -0.2470 -0.1216
 1237POPC   C4B14844  13.480  12.268  18.418  0.3047  0.0072 -0.0317
 1238POPC   NC314845   4.770   5.198  13.526  0.2121  0.0325 -0.1463
 1238POPC   PO414846   4.691   4.897  13.747 -0.1911  0.0432 -0.1872
 1238POPC   GL114847   4.931   5.163  14.021  0.1890  0.0172  0.3414
 1238POPC   GL214848   5.022   4.886  14.132  0.0281 -0.3150 -0.0218
 1238POPC   C1A14849   5.332   5.352  14.094  0.2780 -0.0992  0.1114
 1238POPC   D2A14850   5.704   5.601  13.978 -0.1212 -0.1750  0.1613
 1238POPC   C3A14851   6.110   5.657  14.227  0.0501 -0.1995  0.1877
 1238POPC   C4A14852   6.579   5.704  14.097 -0.1251  0.4880  0.1933
 1238POPC   C1B14853   5.389   4.891  14.399  0.0990  0.2244 -0.0316
 1238POPC   C2B14854   5.818   4.615  14.387 -0.2718  0.3192  0.1128
 1238POPC   C3B14855   6.079   4.270  14.620 -0.2611  0.5873 -0.0604
 1238POPC   C4B14856   6.069   3.840  14.582 -0.1308 -0.0063  0.2028
 1239POPC   NC314857  15.368   3.926  15.154  0.1727 -0.4123 -0.0044
 1239POPC   PO414858  15.371   3.504  15.239  0.0025 -0.1291 -0.2026
 1239POPC   GL114859  15.053   3.718  15.513 -0.3718  0.1529 -0.2408
 1239POPC   GL214860  14.960   3.419  15.572 -0.3879  0.0410  0.2457
 1239POPC   C1A14861  14.678   3.806  15.714  0.0384  0.0883  0.0419
 1239POPC   D2A14862  14.335   3.907  15.969  0.0373  0.2391  0.0971
 1239POPC   C3A14863  13.989   3.719  16.281 -0.1352  0.2846 -0.0099
 1239POPC   C4A14864  13.798   3.375  16.538  0.2076  0.0129  0.0505
 1239POPC   C1B14865  15.017   3.340  16.046  0.0397  0.3501  0.1051
 1239POPC   C2B14866  14.943   3.397  16.530  0.1812 -0.0375 -0.2542
 1239POPC   C3B14867  14.907   3.760  16.838  0.2548 -0.1201 -0.0029
 1239POPC   C4B14868  15.102   4.131  17.063  0.0249  0.2456 -0.1541
 1240POPC   NC314869  11.922  32.741  15.700 -0.0772  0.1462  0.1944
 1240POPC   PO414870  12.236  32.989  15.690  0.1008  0.0153  0.1610
 1240POPC   GL114871  12.428  33.282  15.839 -0.1877 -0.1871  0.0313
 1240POPC   GL214872  12.489  33.163  16.097 -0.3828  0.0469  0.0435
 1240POPC   C1A14873  12.346  33.692  16.044  0.1501 -0.1954 -0.0356
 1240POPC   D2A14874  12.326  34.100  16.312  0.1230  0.0240  0.0193
 1240POPC   C3A14875  12.062  34.220  16.719 -0.1524 -0.2110  0.0123
 1240POPC   C4A14876  11.632  34.266  16.783  0.0006 -0.2688 -0.3212
 1240POPC   C1B14877  12.363  33.360  16.509 -0.0028  0.1486  0.0052
 1240POPC   C2B14878  12.262  33.759  16.676  0.1725 -0.2872  0.0650
 1240POPC   C3B14879  12.599  34.110  16.762  0.3990  0.0874 -0.0338
 1240POPC   C4B14880  12.447  34.570  16.615 -0.1072 -0.1197  0.1431
 1241POPC   NC314881  13.123   2.245  12.280  0.1227  0.1107  0.4501
 1241POPC   PO414882  12.807   2.274  12.517 -0.0294  0.0878  0.0233
 1241POPC   GL114883  12.493   2.535  12.531 -0.1225 -0.1365 -0.0882
 1241POPC   GL214884  12.324   2.528  12.680  0.1475 -0.1754 -0.0473
 1241POPC   C1A14885  12.412   3.003  12.460 -0.0153  0.1939  0.0766
 1241POPC   D2A14886  12.075   3.279  12.384  0.1023 -0.1324  0.0453
 1241POPC   C3A14887  11.739   3.562  12.217 -0.1459 -0.0083  0.2251
 1241POPC   C4A14888  11.550   3.721  11.786  0.0086 -0.3882 -0.2032
 1241POPC   C1B14889  11.987   2.898  12.780 -0.1965 -0.0279 -0.1864
 1241POPC   C2B14890  11.764   3.297  12.764  0.0331 -0.1370  0.1062
 1241POPC   C3B14891  11.334   3.508  12.635 -0.1964 -0.2825 -0.0841
 1241POPC   C4B14892  11.309   3.825  12.267 -0.2037 -0.3093  0.0996
 1242POPC   NC314893  15.463  13.642  16.043  0.0716 -0.2341 -0.1607
 1242POPC   PO414894  15.529  13.642  16.442 -0.3723  0.1747 -0.1159
 1242POPC   GL114895  15.787  13.648  16.834 -0.1233  0.2548 -0.0877
 1242POPC   GL214896  15.926  13.800  17.018  0.2239  0.2594  0.0822
 1242POPC   C1A14897  15.502  13.616  17.234  0.3734  0.0071  0.0614
 1242POPC   D2A14898  15.161  13.457  17.565 -0.0347 -0.0695  0.0831
 1242POPC   C3A14899  15.200  13.285  17.992 -0.1375  0.1910  0.2062
 1242POPC   C4A14900  15.496  13.043  18.150 -0.3796 -0.0854  0.2784
 1242POPC   C1B14901  15.879  13.840  17.511  0.1508 -0.1451  0.1503
 1242POPC   C2B14902  16.115  13.826  17.881  0.0941  0.1012  0.1182
 1242POPC   C3B14903  16.442  13.718  18.195 -0.1841 -0.1132 -0.2885
 1242POPC   C4B14904  16.792  13.492  18.404 -0.0196 -0.0071 -0.3009
 1243POPC   NC314905  10.469  10.567  11.894  0.3202 -0.0303 -0.1450
 1243POPC   PO414906  10.547  10.304  12.201  0.0044 -0.0248  0.1836
 1243POPC   GL114907  10.512   9.888  12.153  0.2310 -0.1588  0.0255
 1243POPC   GL214908  10.660   9.740  12.328  0.1978 -0.0871 -0.2196
 1243POPC   C1A14909  10.140   9.670  12.159 -0.1867 -0.0802  0.0178
 1243POPC   D2A14910   9.885   9.422  11.821  0.0517 -0.1928 -0.0721
 1243POPC   C3A14911   9.657   8.939  11.954  0.1209 -0.1024  0.1463
 1243POPC   C4A14912   9.373   8.563  11.944 -0.1377 -0.2135  0.1469
 1243POPC   C1B14913  10.416   9.365  12.513 -0.1188  0.1960  0.0806
 1243POPC   C2B14914  10.394   8.905  12.529 -0.4445 -0.0826  0.2263
 1243POPC   C3B14915  10.298   8.460  12.338  0.1456 -0.1748  0.2981
 1243POPC   C4B14916  10.265   8.297  11.942 -0.0621  0.0687  0.0306
 1244POPC   NC314917   8.237   0.950  12.435  0.1452 -0.0397  0.2337
 1244POPC   PO414918   8.595   0.869  12.637  0.1556  0.2339 -0.3150
 1244POPC   GL114919   8.548   1.282  12.574 -0.3815 -0.1269  0.1230
 1244POPC   GL214920   8.779   1.415  12.738 -0.2480 -0.1110  0.3973
 1244POPC   C1A14921   8.359   1.626  12.779 -0.0935 -0.2793  0.1308
 1244POPC   D2A14922   8.196   2.017  13.064 -0.1173  0.0113 -0.0544
 1244POPC   C3A14923   8.250   2.456  13.140  0.1267  0.3518 -0.0560
 1244POPC   C4A14924   8.310   2.860  13.020  0.1501 -0.3806 -0.1315
 1244POPC   C1B14925   8.752   1.807  13.016 -0.0060 -0.0432 -0.0073
 1244POPC   C2B14926   8.725   2.263  13.045  0.1087 -0.2333  0.0706
 1244POPC   C3B14927   8.769   2.741  13.029 -0.3364  0.0249 -0.1858
 1244POPC   C4B14928   8.631   3.160  13.209 -0.3585  0.0809 -0.1600
 1245POPC   NC314929  13.428   0.555  15.760 -0.1494 -0.1747  0.1555
 1245POPC   PO414930  13.765   0.350  15.595  0.2985 -0.3851  0.0453
 1245POPC   GL114931  13.803   0.429  15.974 -0.3053  0.1019  0.0643
 1245POPC   GL214932  13.729   0.724  16.139 -0.1622 -0.1244 -0.0011
 1245POPC   C1A14933  14.148   0.514  16.291 -0.1866  0.1268 -0.0360
 1245POPC   D2A14934  14.590   0.644  16.487  0.0242  0.0362 -0.1016
 1245POPC   C3A14935  14.643   0.800  16.877  0.2717  0.2202  0.0145
 1245POPC   C4A14936  14.592   0.980  17.263 -0.0593 -0.0273  0.1080
 1245POPC   C1B14937  14.025   0.980  16.428 -0.1259  0.0541 -0.0025
 1245POPC   C2B14938  14.023   1.319  16.637  0.3535 -0.1475  0.3356
 1245POPC   C3B14939  13.909   1.742  16.779  0.1078 -0.0645  0.0711
 1245POPC   C4B14940  14.116   2.169  16.700  0.0154 -0.1658  0.1661
 1246POPC   NC314941   1.168  11.776  16.113 -0.0830 -0.1598  0.1556
 1246POPC   PO414942   0.942  11.889  16.434 -0.1897  0.0273  0.0721
 1246POPC   GL114943   1.012  11.637  16.829 -0.1432  0.3118  0.0583
 1246POPC   GL214944   0.853  11.356  16.877  0.3134  0.0775 -0.1710
 1246POPC   C1A14945   1.231  11.756  17.243  0.0355  0.0402  0.3097
 1246POPC   D2A14946   1.318  12.006  17.610  0.0750  0.1737  0.0968
 1246POPC   C3A14947   1.784  12.068  17.687 -0.2753  0.2752  0.3769
 1246POPC   C4A14948   2.240  12.102  17.529  0.0103 -0.0900  0.1794
 1246POPC   C1B14949   0.796  11.357  17.331 -0.1850  0.0218  0.0026
 1246POPC   C2B14950   1.039  11.397  17.742  0.0430  0.2090 -0.1794
 1246POPC   C3B14951   1.016  11.642  18.111 -0.1831  0.0038  0.4356
 1246POPC   C4B14952   0.835  11.861  18.426 -0.1354  0.0340  0.2622
 1247POPC   NC314953   5.669  15.437  15.849  0.1730 -0.1076 -0.0815
 1247POPC   PO414954   6.068  15.428  15.858  0.0915  0.0507  0.1145
 1247POPC   GL114955   6.243  15.520  16.243 -0.0533 -0.3311  0.1572
 1247POPC   GL214956   6.380  15.782  16.209  0.0668 -0.1256  0.2691
 1247POPC   C1A14957   6.147  15.748  16.677 -0.1445  0.0561  0.1061
 1247POPC   D2A14958   6.019  15.921  17.104  0.2140  0.1254 -0.3292
 1247POPC   C3A14959   6.358  15.925  17.451  0.3096 -0.0605  0.2835
 1247POPC   C4A14960   6.487  16.189  17.864  0.0110 -0.0002  0.2038
 1247POPC   C1B14961   6.623  16.029  16.517 -0.0593  0.1206 -0.1006
 1247POPC   C2B14962   6.757  16.366  16.792 -0.1398 -0.0241 -0.0492
 1247POPC   C3B14963   6.771  16.735  16.961 -0.1873 -0.0187  0.3673
 1247POPC   C4B14964   6.968  16.973  17.281 -0.3109  0.2179  0.0026
 1248POPC   NC314965  16.412  13.723  16.849 -0.1629 -0.1746  0.1572
 1248POPC   PO414966  16.176  13.498  16.636  0.0395  0.3087 -0.0779
 1248POPC   GL114967  16.173  13.344  17.071  0.3093 -0.0105  0.1316
 1248POPC   GL214968  16.476  13.296  17.042  0.0500 -0.1670 -0.0594
 1248POPC   C1A14969  15.896  13.365  17.414 -0.1009 -0.2746  0.3135
 1248POPC   D2A14970  15.678  13.420  17.817 -0.2010  0.2079  0.1353
 1248POPC   C3A14971  15.699  13.557  18.269 -0.0003 -0.0713  0.3027
 1248POPC   C4A14972  15.358  13.870  18.381 -0.0752 -0.0615 -0.1367
 1248POPC   C1B14973  16.503  12.981  17.412 -0.1661 -0.1592  0.1363
 1248POPC   C2B14974  16.392  12.787  17.804 -0.1972 -0.3481  0.0570
 1248POPC   C3B14975  16.400  12.580  18.218  0.1106  0.0063 -0.0357
 1248POPC   C4B14976  16.340  12.393  18.617 -0.2455  0.2374  0.1366
 1249POPC   NC314977   5.105  13.477  16.664 -0.1125 -0.1380 -0.1326
 1249POPC   PO414978   5.461  13.519  16.502 -0.1193 -0.0919 -0.1707
 1249POPC   GL114979   5.766  13.464  16.867  0.4040 -0.1515 -0.0042
 1249POPC   GL214980   5.878  13.260  16.714  0.4585 -0.0975  0.3571
 1249POPC   C1A14981   6.019  13.540  17.239  0.1909  0.1786 -0.1157
 1249POPC   D2A14982   6.185  13.554  17.649  0.3598  0.4154  0.1359
 1249POPC   C3A14983   5.836  13.488  17.990 -0.3666 -0.0979 -0.2712
 1249POPC   C4A14984   5.427  13.439  18.197 -0.1252 -0.0098 -0.1094
 1249POPC   C1B14985   6.156  13.026  17.064 -0.0844 -0.0828  0.1716
 1249POPC   C2B14986   6.205  12.978  17.486  0.0371 -0.0422 -0.2677
 1249POPC   C3B14987   6.287  13.139  17.913 -0.2324 -0.1272  0.0528
 1249POPC   C4B14988   6.660  13.422  17.969 -0.3242 -0.0275  0.0451
 1250POPC   NC314989  14.277   6.778  12.692  0.0627  0.0223  0.3592
 1250POPC   PO414990  14.336   6.444  12.909 -0.0593 -0.1210 -0.0035
 1250POPC   GL114991  14.001   6.337  13.132 -0.0218  0.3211  0.1109
 1250POPC   GL214992  13.683   6.439  13.021 -0.1012  0.0365  0.0197
 1250POPC   C1A14993  13.740   5.973  13.295 -0.3355  0.0639 -0.3001
 1250POPC   D2A14994  13.534   5.806  13.675 -0.0129  0.3568 -0.0971
 1250POPC   C3A14995  13.156   6.022  13.821  0.4010 -0.1012  0.0758
 1250POPC   C4A14996  12.878   5.823  14.117 -0.0160 -0.2902  0.2835
 1250POPC   C1B14997  13.378   6.148  12.964 -0.1728  0.2390  0.0982
 1250POPC   C2B14998  12.935   6.242  12.917  0.1900 -0.1447  0.1741
 1250POPC   C3B14999  12.473   6.201  12.844 -0.0099 -0.1755  0.0594
 1250POPC   C4B15000  12.117   5.956  12.922  0.2153 -0.1306  0.0528
 1251POPC   NC315001  10.945  10.502  15.098 -0.1730 -0.1711 -0.1216
 1251POPC   PO415002  11.132  10.640  15.402  0.0053  0.0463 -0.1083
 1251POPC   GL115003  10.919  10.502  15.784  0.3727 -0.0984 -0.4429
 1251POPC   GL215004  10.770  10.706  15.888 -0.1223 -0.1540  0.1292
 1251POPC   C1A15005  10.710  10.120  15.961 -0.1378 -0.4295  0.0106
 1251POPC   D2A15006  10.366   9.958  15.732 -0.0275 -0.0529  0.3942
 1251POPC   C3A15007  10.116   9.667  16.035 -0.2256 -0.1582 -0.0702
 1251POPC   C4A15008   9.873   9.347  16.167  0.0651 -0.1253  0.2279
 1251POPC   C1B15009  10.886  10.517  16.245 -0.0111 -0.2788 -0.1892
 1251POPC   C2B15010  11.017  10.361  16.667  0.0148  0.0455 -0.0046
 1251POPC   C3B15011  10.765  10.244  17.065 -0.0305 -0.0410 -0.0578
 1251POPC   C4B15012  10.441  10.266  17.454 -0.1489  0.0601 -0.0642
 1252POPC   NC315013   6.763  13.612  16.086 -0.4031  0.4032 -0.1191
 1252POPC   PO415014   6.927  13.332  16.346  0.2321 -0.0423 -0.1584
 1252POPC   GL115015   6.892  13.283  16.759 -0.2523 -0.1585  0.2953
 1252POPC   GL215016   6.553  13.289  16.826 -0.1268  0.3950 -0.0218
 1252POPC   C1A15017   7.002  12.991  17.076  0.2567 -0.0572  0.0762
 1252POPC   D2A15018   7.263  12.894  17.519 -0.1448  0.2348  0.0291
 1252POPC   C3A15019   7.286  12.487  17.802  0.1599 -0.0405  0.2862
 1252POPC   C4A15020   7.076  12.342  18.141  0.0020 -0.3114 -0.2882
 1252POPC   C1B15021   6.617  13.289  17.346 -0.2255 -0.0516 -0.3069
 1252POPC   C2B15022   6.670  12.945  17.643  0.3266 -0.1023 -0.0002
 1252POPC   C3B15023   6.757  12.572  17.882  0.1367  0.2708  0.0424
 1252POPC   C4B15024   6.509  12.311  18.083 -0.1046  0.3183 -0.0209
 1253POPC   NC315025   7.720  11.436  15.712  0.0707 -0.1140 -0.1518
 1253POPC   PO415026   7.578  11.674  16.035  0.0649 -0.1545  0.0164
 1253POPC   GL115027   7.590  11.591  16.375  0.0567  0.1153  0.0215
 1253POPC   GL215028   7.505  11.815  16.596  0.0401 -0.1363 -0.1940
 1253POPC   C1A15029   7.607  11.306  16.691  0.0597 -0.1517  0.1707
 1253POPC   D2A15030   7.384  11.129  17.038 -0.3211  0.0546  0.3951
 1253POPC   C3A15031   7.159  11.399  17.272 -0.0760 -0.2253  0.1150
 1253POPC   C4A15032   7.007  11.464  17.700  0.2164  0.4283  0.1531
 1253POPC   C1B15033   7.525  11.667  17.060 -0.1485 -0.1441  0.0608
 1253POPC   C2B15034   7.613  11.563  17.501  0.3264 -0.2373  0.3533
 1253POPC   C3B15035   7.438  11.487  17.880 -0.0299  0.0542 -0.1127
 1253POPC   C4B15036   7.309  11.166  18.202  0.3460 -0.0575  0.0113
 1254POPC   NC315037  12.567  16.157   8.593 -0.0751 -0.0102  0.2769
 1254POPC   PO415038  12.523  16.552   8.672 -0.2162  0.0401  0.1750
 1254POPC   GL115039  12.391  16.891   8.485 -0.1531 -0.3044  0.1527
 1254POPC   GL215040  12.713  16.925   8.442  0.1527 -0.0404 -0.0495
 1254POPC   C1A15041  12.395  16.874   8.000 -0.0438  0.0179  0.3842
 1254POPC   D2A15042  12.367  17.134   7.635 -0.0765 -0.0315 -0.0348
 1254POPC   C3A15043  12.326  17.071   7.155 -0.2713 -0.2823 -0.2165
 1254POPC   C4A15044  12.211  16.799   6.788 -0.1805 -0.1947  0.0440
 1254POPC   C1B15045  12.480  17.335   8.324 -0.2539  0.0221 -0.2292
 1254POPC   C2B15046  12.316  17.524   7.957  0.0886 -0.2215  0.0748
 1254POPC   C3B15047  12.052  17.583   7.575 -0.1341  0.0753 -0.1696
 1254POPC   C4B15048  11.781  17.716   7.199 -0.0987  0.1113 -0.1849
 1255POPC   NC315049  16.074   7.162  15.774  0.0042  0.1388  0.0462
 1255POPC   PO415050  16.398   7.048  15.919  0.0040  0.0218  0.1773
 1255POPC   GL115051  16.306   7.382  16.197  0.2430  0.1225  0.1372
 1255POPC   GL215052  16.097   7.150  16.339 -0.0701 -0.2095 -0.1118
 1255POPC   C1A15053  16.493   7.630  16.556  0.1466  0.0105 -0.0781
 1255POPC   D2A15054  16.434   7.559  17.079 -0.0033  0.2779  0.2241
 1255POPC   C3A15055  16.591   7.379  17.405 -0.1055 -0.0694  0.2742
 1255POPC   C4A15056  16.819   7.558  17.704 -0.0501  0.3261 -0.0211
 1255POPC   C1B15057  16.144   7.311  16.754 -0.2616  0.1107 -0.3615
 1255POPC   C2B15058  16.129   7.156  17.166 -0.0868 -0.1635 -0.2892
 1255POPC   C3B15059  15.926   7.061  17.578 -0.0814  0.1043  0.0624
 1255POPC   C4B15060  15.477   7.100  17.799  0.0975 -0.2518  0.3464
 1256POPC   NC315061  13.947   3.675  13.049  0.1072  0.0453 -0.0458
 1256POPC   PO415062  13.553   3.677  13.144 -0.3407 -0.1858 -0.0795
 1256POPC   GL115063  13.224   3.781  12.973 -0.0758  0.0626 -0.2166
 1256POPC   GL215064  13.018   3.749  13.063  0.0972  0.0327 -0.0135
 1256POPC   C1A15065  12.868   3.689  12.656 -0.1356  0.0819  0.0046
 1256POPC   D2A15066  12.850   3.880  12.252 -0.1520 -0.0667  0.1796
 1256POPC   C3A15067  12.465   4.070  12.159 -0.0871 -0.0918  0.0740
 1256POPC   C4A15068  12.246   4.427  12.218 -0.1256  0.0300 -0.2590
 1256POPC   C1B15069  12.844   3.906  13.481  0.1402 -0.0054  0.0535
 1256POPC   C2B15070  12.468   3.808  13.721 -0.1021  0.0460 -0.0683
 1256POPC   C3B15071  12.173   3.933  14.061 -0.0058  0.0914 -0.1273
 1256POPC   C4B15072  11.708   3.944  14.247  0.0500 -0.0925  0.1191
 1257POPC   NC315073   8.308  15.413  15.832 -0.2718  0.1956 -0.1009
 1257POPC   PO415074   8.288  15.679  15.595  0.2734 -0.4827 -0.0517
 1257POPC   GL115075   8.315  15.875  15.908 -0.3526 -0.3202 -0.1648
 1257POPC   GL215076   8.488  16.142  15.756  0.3376 -0.0892  0.0927
 1257POPC   C1A15077   8.143  15.926  16.324 -0.0673  0.0129  0.2313
 1257POPC   D2A15078   7.857  16.082  16.626  0.0319  0.1216  0.0430
 1257POPC   C3A15079   8.057  16.253  17.025 -0.1909  0.0414 -0.0058
 1257POPC   C4A15080   7.982  16.491  17.468  0.1066  0.0738 -0.0027
 1257POPC   C1B15081   8.580  16.102  16.206  0.2334  0.1300  0.1949
 1257POPC   C2B15082   8.737  16.289  16.577  0.1300 -0.2211 -0.0735
 1257POPC   C3B15083   8.723  16.613  16.902 -0.0970  0.0449 -0.2476
 1257POPC   C4B15084   9.131  16.650  17.208  0.1605 -0.0578 -0.3565
 1258POPC   NC315085  13.023  10.637  16.366 -0.2376 -0.1312  0.0506
 1258POPC   PO415086  13.272  10.392  16.225 -0.2752  0.0344 -0.2013
 1258POPC   GL115087  13.399  10.464  16.609  0.1653  0.3244 -0.1291
 1258POPC   GL215088  13.702  10.379  16.675  0.1752  0.1793  0.1507
 1258POPC   C1A15089  13.103  10.204  16.838 -0.0784  0.0936  0.1769
 1258POPC   D2A15090  13.002  10.041  17.284 -0.0441 -0.0113 -0.0438
 1258POPC   C3A15091  12.584   9.845  17.398  0.1054 -0.0377 -0.1496
 1258POPC   C4A15092  12.182   9.963  17.579  0.2169 -0.2194  0.0023
 1258POPC   C1B15093  13.479  10.252  17.115  0.1182 -0.0697 -0.2187
 1258POPC   C2B15094  13.207  10.472  17.447  0.1224 -0.1987 -0.1093
 1258POPC   C3B15095  13.252  10.252  17.833 -0.0323  0.0305  0.1330
 1258POPC   C4B15096  13.342   9.917  18.177 -0.0461 -0.0332 -0.0846
 1259POPC   NC315097  12.062  10.167  13.420  0.0655  0.2171  0.2027
 1259POPC   PO415098  12.172   9.835  13.552 -0.0038  0.0388  0.0192
 1259POPC   GL115099  12.184   9.443  13.518 -0.0741 -0.1113 -0.4786
 1259POPC   GL215100  12.172   9.300  13.197 -0.2158  0.0333 -0.3913
 1259POPC   C1A15101  11.901   9.074  13.659 -0.0797 -0.1590  0.0080
 1259POPC   D2A15102  11.546   8.768  13.756  0.3457 -0.0409  0.0231
 1259POPC   C3A15103  11.261   8.376  13.725  0.1605  0.1382  0.1966
 1259POPC   C4A15104  11.037   7.929  13.653 -0.2248 -0.2048  0.0231
 1259POPC   C1B15105  11.974   8.879  13.192 -0.1466  0.1786 -0.1696
 1259POPC   C2B15106  11.787   8.425  13.185 -0.1241  0.0665 -0.0991
 1259POPC   C3B15107  11.872   7.951  13.220  0.0215  0.1459 -0.0974
 1259POPC   C4B15108  12.233   7.689  13.159  0.1651 -0.1406 -0.1848
 1260POPC   NC315109  15.552   2.344  15.591  0.1378  0.0119  0.0675
 1260POPC   PO415110  15.677   2.013  15.456 -0.0067  0.1666 -0.1273
 1260POPC   GL115111  15.806   1.970  15.899 -0.0750 -0.3066  0.0547
 1260POPC   GL215112  15.758   1.703  16.056 -0.0371 -0.3356  0.0069
 1260POPC   C1A15113  16.180   2.036  16.150  0.3251 -0.1653  0.0840
 1260POPC   D2A15114  16.329   1.888  16.539  0.0213 -0.3379  0.1841
 1260POPC   C3A15115  16.282   2.035  16.944  0.0282 -0.0384  0.1980
 1260POPC   C4A15116  16.210   1.976  17.437 -0.2380 -0.2721  0.1010
 1260POPC   C1B15117  15.766   1.959  16.418 -0.1378  0.0788 -0.2765
 1260POPC   C2B15118  15.728   2.067  16.868  0.1256 -0.1054  0.1118
 1260POPC   C3B15119  15.535   2.276  17.231  0.0906 -0.1147  0.1794
 1260POPC   C4B15120  15.441   2.670  17.432 -0.1245 -0.0388  0.2804
 1261POPC   NC315121  15.945   6.228  15.529 -0.0177  0.1731  0.3319
 1261POPC   PO415122  15.740   6.471  15.297 -0.1056 -0.0159 -0.1358
 1261POPC   GL115123  15.651   6.620  15.708 -0.3374  0.0251 -0.4572
 1261POPC   GL215124  15.628   6.858  15.631  0.4367 -0.2020 -0.2325
 1261POPC   C1A15125  15.769   6.384  16.134 -0.0958  0.0572  0.0133
 1261POPC   D2A15126  15.807   6.030  16.467 -0.0466  0.1151  0.0707
 1261POPC   C3A15127  15.507   5.992  16.796  0.1054  0.1351  0.1101
 1261POPC   C4A15128  15.077   6.183  16.832 -0.0738  0.0270  0.3920
 1261POPC   C1B15129  15.716   6.912  16.093 -0.1768 -0.0829  0.0850
 1261POPC   C2B15130  15.683   7.027  16.560 -0.1668  0.1494 -0.1722
 1261POPC   C3B15131  15.683   7.229  16.971  0.0216 -0.0570  0.0576
 1261POPC   C4B15132  15.515   7.338  17.373 -0.0829 -0.1172  0.0624
 1262POPC   NC315133   8.564  10.666  14.552 -0.0582 -0.5065  0.0404
 1262POPC   PO415134   8.747  11.021  14.670 -0.2129  0.0215  0.3377
 1262POPC   GL115135   8.870  10.588  14.891 -0.2149 -0.1916  0.2336
 1262POPC   GL215136   9.184  10.562  14.843  0.1387  0.2092 -0.5184
 1262POPC   C1A15137   8.857  10.204  14.646 -0.1091  0.1564  0.0067
 1262POPC   D2A15138   8.836   9.790  14.872 -0.1610 -0.1565  0.2393
 1262POPC   C3A15139   8.636   9.546  15.237 -0.0369  0.1907  0.4090
 1262POPC   C4A15140   8.575   9.049  15.255 -0.0664  0.5001  0.2581
 1262POPC   C1B15141   9.045  10.175  15.130 -0.0593 -0.0396 -0.0918
 1262POPC   C2B15142   9.099   9.753  15.318 -0.1083  0.0705  0.0606
 1262POPC   C3B15143   9.274   9.541  15.713  0.0301 -0.1138  0.2569
 1262POPC   C4B15144   9.379   9.480  16.189 -0.2852 -0.1688 -0.0804
 1263POPC   NC315145   7.332  14.505  16.789  0.0859  0.0964  0.1105
 1263POPC   PO415146   7.307  14.703  16.442  0.1587  0.0746  0.3032
 1263POPC   GL115147   7.504  14.995  16.579  0.2458 -0.0779  0.3375
 1263POPC   GL215148   7.359  15.224  16.705  0.0443 -0.2505 -0.0827
 1263POPC   C1A15149   7.964  14.942  16.664  0.3004  0.1397  0.0474
 1263POPC   D2A15150   8.261  14.846  17.027  0.1494 -0.0391  0.0370
 1263POPC   C3A15151   8.716  15.073  17.040  0.0687 -0.1376  0.0243
 1263POPC   C4A15152   8.950  15.237  16.730 -0.2779  0.1128 -0.1463
 1263POPC   C1B15153   7.484  15.358  17.096 -0.0120 -0.2457 -0.1279
 1263POPC   C2B15154   7.479  15.173  17.472 -0.0131 -0.0574 -0.0838
 1263POPC   C3B15155   7.267  15.174  17.876  0.1076  0.0373 -0.2115
 1263POPC   C4B15156   7.342  15.204  18.306 -0.0741  0.1376  0.0868
 1264POPC   NC315157  14.261   5.202  13.035 -0.1668  0.2767  0.1645
 1264POPC   PO415158  14.120   5.082  13.383 -0.1192  0.2063 -0.1380
 1264POPC   GL115159  13.725   4.960  13.235  0.5574  0.0487  0.0387
 1264POPC   GL215160  13.683   5.213  13.078  0.1260  0.2226  0.1095
 1264POPC   C1A15161  13.376   5.043  13.510 -0.1074 -0.1875  0.1620
 1264POPC   D2A15162  13.239   5.052  13.960 -0.1646 -0.2147 -0.0071
 1264POPC   C3A15163  12.883   4.882  14.029  0.2132  0.0288 -0.1791
 1264POPC   C4A15164  12.417   4.915  13.947 -0.1148 -0.0678  0.0559
 1264POPC   C1B15165  13.461   5.523  13.255  0.0900  0.1892 -0.1151
 1264POPC   C2B15166  13.080   5.801  13.284  0.1559 -0.1648 -0.0392
 1264POPC   C3B15167  12.749   5.811  13.624  0.0122 -0.3932  0.0211
 1264POPC   C4B15168  12.444   5.699  13.917 -0.4317 -0.2715 -0.0079
 1265POPC   NC315169  14.465   5.817  10.340 -0.1371  0.0416 -0.2796
 1265POPC   PO415170  14.381   6.008  10.730  0.1149  0.2339  0.0943
 1265POPC   GL115171  14.061   6.037  10.560 -0.1366 -0.0969  0.2136
 1265POPC   GL215172  14.144   6.208  10.371  0.0211  0.2851 -0.2540
 1265POPC   C1A15173  13.588   5.989  10.490 -0.0431  0.1627  0.0462
 1265POPC   D2A15174  13.257   5.698  10.511 -0.1853  0.1324  0.0328
 1265POPC   C3A15175  12.858   5.840  10.334  0.0917  0.3519  0.2261
 1265POPC   C4A15176  12.448   5.896  10.577  0.0731 -0.2237  0.1918
 1265POPC   C1B15177  13.754   6.160  10.052  0.1405  0.2130  0.1160
 1265POPC   C2B15178  13.322   6.243  10.048  0.3277  0.0249 -0.0066
 1265POPC   C3B15179  12.987   6.460   9.840  0.2168  0.2610 -0.1161
 1265POPC   C4B15180  12.642   6.698   9.635 -0.1321  0.1759 -0.0726
 1266POPC   NC315181   2.949   8.146  16.054  0.2523  0.1272  0.1766
 1266POPC   PO415182   2.770   8.438  15.941  0.1390  0.1925 -0.0772
 1266POPC   GL115183   3.062   8.598  16.206 -0.1160  0.2645 -0.2005
 1266POPC   GL215184   3.208   8.638  16.042 -0.0040  0.1297 -0.0078
 1266POPC   C1A15185   3.073   8.747  16.645  0.1504  0.1613  0.1045
 1266POPC   D2A15186   3.006   8.569  17.061 -0.2289 -0.0151 -0.1935
 1266POPC   C3A15187   3.384   8.752  17.249 -0.3680 -0.3665 -0.1313
 1266POPC   C4A15188   3.638   8.998  16.948 -0.1110 -0.1719 -0.1328
 1266POPC   C1B15189   3.495   8.756  16.445  0.4340 -0.0390 -0.1058
 1266POPC   C2B15190   3.482   8.447  16.848  0.0034 -0.1022  0.2266
 1266POPC   C3B15191   3.540   8.227  17.225 -0.0485 -0.1153  0.1057
 1266POPC   C4B15192   3.500   8.201  17.702  0.0898  0.0374  0.2543
 1267POPC   NC315193   7.578  10.525  14.064 -0.0596 -0.3467  0.1487
 1267POPC   PO415194   7.671  10.527  13.690  0.0095  0.3346  0.0646
 1267POPC   GL115195   7.995  10.232  13.566 -0.0790 -0.0536 -0.2656
 1267POPC   GL215196   8.221  10.428  13.419  0.1846  0.0860 -0.0980
 1267POPC   C1A15197   8.302  10.062  13.839  0.1945 -0.1046 -0.0537
 1267POPC   D2A15198   8.415   9.693  14.014 -0.0870  0.2545 -0.1383
 1267POPC   C3A15199   8.281   9.259  13.981 -0.0497 -0.0957 -0.1804
 1267POPC   C4A15200   7.918   9.051  14.038  0.1012  0.1031  0.1063
 1267POPC   C1B15201   8.268   9.960  13.348 -0.1897 -0.0855  0.1028
 1267POPC   C2B15202   8.290   9.533  13.558 -0.2998  0.0537 -0.0853
 1267POPC   C3B15203   8.494   9.120  13.579  0.0320 -0.2518  0.0864
 1267POPC   C4B15204   8.516   8.704  13.504  0.0586  0.1925  0.0512
 1268POPC   NC315205   6.785  11.114  16.062 -0.0975 -0.1765  0.1680
 1268POPC   PO415206   6.418  11.134  16.107  0.0545  0.0279  0.1905
 1268POPC   GL115207   6.556  10.756  16.281 -0.1827 -0.2367  0.3090
 1268POPC   GL215208   6.682  10.838  16.528  0.1769 -0.2270  0.0161
 1268POPC   C1A15209   6.439  10.372  16.476  0.0281  0.0848 -0.0849
 1268POPC   D2A15210   6.582   9.962  16.664  0.0645 -0.0669  0.0474
 1268POPC   C3A15211   6.880   9.597  16.708 -0.1979  0.2047 -0.1521
 1268POPC   C4A15212   7.281   9.323  16.668  0.0301  0.0535 -0.2164
 1268POPC   C1B15213   6.691  10.495  16.885  0.2856 -0.3266 -0.0212
 1268POPC   C2B15214   6.889  10.225  17.191  0.0818  0.1343 -0.1635
 1268POPC   C3B15215   7.121   9.929  17.487 -0.0664 -0.1444 -0.0964
 1268POPC   C4B15216   7.335   9.562  17.613 -0.1464 -0.1396 -0.1923
 1269POPC   NC315217   7.464  15.821  15.778  0.0342 -0.0874  0.1625
 1269POPC   PO415218   7.771  15.674  15.572 -0.0730 -0.5634  0.2859
 1269POPC   GL115219   7.904  15.749  15.905  0.1832 -0.1224 -0.1708
 1269POPC   GL215220   7.911  16.115  15.790  0.0086  0.1178 -0.0040
 1269POPC   C1A15221   7.565  15.940  16.254 -0.1398 -0.2049  0.1251
 1269POPC   D2A15222   7.136  15.997  16.331 -0.0056 -0.0651  0.1202
 1269POPC   C3A15223   7.255  16.086  16.787 -0.2154  0.1111 -0.0253
 1269POPC   C4A15224   7.103  16.296  17.167 -0.4739 -0.4245 -0.0862
 1269POPC   C1B15225   8.014  16.517  15.597  0.0326 -0.0507 -0.0440
 1269POPC   C2B15226   7.813  16.896  15.791  0.0504  0.1058 -0.0776
 1269POPC   C3B15227   7.812  17.246  16.143  0.2745  0.2418 -0.1546
 1269POPC   C4B15228   7.965  17.614  16.454  0.3189 -0.1845 -0.0474
 1270POPC   NC315229   0.959   8.509  16.254 -0.2685  0.1100  0.1806
 1270POPC   PO415230   0.926   8.819  16.045  0.0358  0.0385  0.4655
 1270POPC   GL115231   0.674   8.918  16.361  0.3557  0.1030 -0.2952
 1270POPC   GL215232   0.369   8.864  16.286  0.3700 -0.3322 -0.4052
 1270POPC   C1A15233   0.538   9.066  16.765  0.2377 -0.2012  0.0604
 1270POPC   D2A15234   0.474   9.014  17.203  0.1077 -0.3345  0.1106
 1270POPC   C3A15235   0.559   8.984  17.643  0.1267 -0.0714 -0.2812
 1270POPC   C4A15236   0.807   9.032  18.005 -0.1584  0.0754 -0.0483
 1270POPC   C1B15237   0.306   8.483  16.614  0.0041 -0.4980 -0.2435
 1270POPC   C2B15238   0.290   8.327  17.024 -0.1245 -0.0742  0.0797
 1270POPC   C3B15239   0.187   7.970  17.370  0.2969  0.0276 -0.2006
 1270POPC   C4B15240   0.255   8.051  17.759 -0.0005 -0.1708 -0.0553
 1271POPC   NC315241   3.878  10.712  16.409 -0.3992 -0.0971 -0.0817
 1271POPC   PO415242   3.671  11.033  16.490 -0.1977 -0.0091 -0.0309
 1271POPC   GL115243   3.592  10.843  16.757  0.2142  0.5096 -0.1887
 1271POPC   GL215244   3.324  10.930  16.851  0.2674 -0.0008  0.0639
 1271POPC   C1A15245   3.563  10.664  17.246 -0.0704 -0.2233  0.1011
 1271POPC   D2A15246   3.332  10.495  17.661  0.2269  0.3463 -0.0253
 1271POPC   C3A15247   3.410  10.721  18.069 -0.1152 -0.0067 -0.0359
 1271POPC   C4A15248   3.778  10.651  18.333 -0.1766  0.1944 -0.2395
 1271POPC   C1B15249   3.054  11.021  17.230 -0.1981 -0.0286  0.0635
 1271POPC   C2B15250   3.035  11.266  17.586 -0.1127  0.1779  0.2793
 1271POPC   C3B15251   3.343  11.291  17.939 -0.1803 -0.0289 -0.0288
 1271POPC   C4B15252   3.726  11.152  18.137  0.1202  0.0454  0.2763
 1272POPC   NC315253   4.071  32.670  16.276  0.0352 -0.2286  0.2498
 1272POPC   PO415254   3.875  32.970  16.114 -0.1477 -0.3935 -0.1860
 1272POPC   GL115255   3.804  33.016  16.597 -0.1739  0.0463 -0.0130
 1272POPC   GL215256   3.549  32.846  16.457 -0.1942 -0.1533 -0.0988
 1272POPC   C1A15257   3.868  33.127  17.018  0.4753  0.1254 -0.1357
 1272POPC   D2A15258   3.832  33.329  17.411  0.0716  0.2261  0.0159
 1272POPC   C3A15259   4.190  33.578  17.577  0.0345  0.2023 -0.0325
 1272POPC   C4A15260   4.509  33.941  17.674 -0.0088  0.1165 -0.0968
 1272POPC   C1B15261   3.357  32.908  16.865  0.0155  0.1534 -0.1228
 1272POPC   C2B15262   3.389  33.074  17.266 -0.1254  0.1176  0.0947
 1272POPC   C3B15263   3.184  33.182  17.654  0.1881  0.1396  0.0288
 1272POPC   C4B15264   3.001  33.396  17.969  0.2857  0.0715  0.4994
 1273POPC   NC315265   2.677  12.055  16.236  0.0872  0.1801 -0.0387
 1273POPC   PO415266   2.856  12.184  16.588  0.0281  0.1288  0.3650
 1273POPC   GL115267   2.937  12.112  16.930  0.3189 -0.0059 -0.0512
 1273POPC   GL215268   3.004  11.845  17.009  0.2255  0.2267  0.0161
 1273POPC   C1A15269   2.720  12.108  17.352 -0.0444  0.0950 -0.1910
 1273POPC   D2A15270   2.586  12.188  17.847 -0.3330 -0.1373 -0.0662
 1273POPC   C3A15271   2.236  11.999  18.065  0.2179  0.1030  0.2327
 1273POPC   C4A15272   1.966  11.890  18.416 -0.0875 -0.1202  0.0245
 1273POPC   C1B15273   2.737  11.621  17.280  0.0488 -0.3546  0.2802
 1273POPC   C2B15274   2.546  11.262  17.459 -0.2311  0.0038  0.0470
 1273POPC   C3B15275   2.341  11.210  17.831 -0.3072  0.0648  0.0048
 1273POPC   C4B15276   2.232  11.132  18.291  0.0451 -0.0123  0.2461
 1274POPC   NC315277   3.997  15.495  16.288  0.2255  0.2578 -0.0950
 1274POPC   PO415278   3.627  15.623  16.410  0.0431 -0.1369  0.0113
 1274POPC   GL115279   3.810  15.678  16.804 -0.1282  0.0380 -0.6254
 1274POPC   GL215280   3.574  15.674  17.037  0.1225  0.3408  0.2300
 1274POPC   C1A15281   3.996  16.012  17.072 -0.1077 -0.2876  0.0724
 1274POPC   D2A15282   4.054  16.127  17.542 -0.0756  0.3068 -0.0608
 1274POPC   C3A15283   4.256  16.465  17.723  0.0700 -0.0514  0.0177
 1274POPC   C4A15284   4.638  16.372  18.001  0.0728  0.0282 -0.0748
 1274POPC   C1B15285   3.681  15.640  17.505  0.0272 -0.4320  0.3594
 1274POPC   C2B15286   3.832  15.790  17.896 -0.0019 -0.4590  0.3510
 1274POPC   C3B15287   3.760  15.828  18.334  0.0074  0.0654 -0.1396
 1274POPC   C4B15288   3.403  16.025  18.651 -0.1700  0.2683  0.0227
 1275POPC   NC315289  12.366   1.090  14.268  0.0171  0.0653 -0.1470
 1275POPC   PO415290  12.293   0.736  14.380 -0.2762  0.0398 -0.4355
 1275POPC   GL115291  12.249   0.998  14.658  0.2299 -0.2141 -0.0043
 1275POPC   GL215292  12.165   1.023  14.924 -0.0487  0.3967  0.0230
 1275POPC   C1A15293  12.399   1.452  14.738 -0.0041  0.3258  0.1704
 1275POPC   D2A15294  12.253   1.835  14.698 -0.0146  0.1673 -0.4379
 1275POPC   C3A15295  12.329   2.009  15.140  0.2989  0.2387  0.1842
 1275POPC   C4A15296  12.761   1.939  15.329 -0.3759 -0.3154 -0.0665
 1275POPC   C1B15297  12.028   1.106  15.286  0.2908 -0.0764 -0.1886
 1275POPC   C2B15298  11.696   1.307  15.596  0.1274 -0.0036 -0.1204
 1275POPC   C3B15299  11.405   1.304  15.977  0.2697  0.0988  0.2394
 1275POPC   C4B15300  11.328   1.446  16.405 -0.1273 -0.2594  0.1461
 1276POPC   NC315301   7.137  10.810  15.301 -0.0839  0.0844  0.0477
 1276POPC   PO415302   7.035  11.034  15.603 -0.1473  0.0738  0.1488
 1276POPC   GL115303   7.142  10.718  15.794 -0.0907 -0.1918  0.1275
 1276POPC   GL215304   6.970  10.685  15.957 -0.1881 -0.3133  0.4774
 1276POPC   C1A15305   7.425  10.708  16.190  0.1049  0.2230  0.0939
 1276POPC   D2A15306   7.664  10.852  16.554  0.0337 -0.0039 -0.0056
 1276POPC   C3A15307   7.631  10.671  16.985  0.2265 -0.2006  0.1036
 1276POPC   C4A15308   7.920  10.368  17.315  0.2845 -0.0786  0.0086
 1276POPC   C1B15309   6.937  10.487  16.337 -0.3157  0.0711  0.0681
 1276POPC   C2B15310   7.024  10.223  16.714 -0.1812 -0.1640  0.2322
 1276POPC   C3B15311   7.267   9.937  16.956  0.2876 -0.0638 -0.2680
 1276POPC   C4B15312   7.625   9.917  17.265  0.3068  0.0165  0.0089
 1277POPC   NC315313   6.937  15.265  15.702  0.0180  0.2234  0.0817
 1277POPC   PO415314   7.150  15.494  15.943 -0.1587 -0.1378 -0.0313
 1277POPC   GL115315   7.305  15.506  16.301  0.2419 -0.1085  0.0866
 1277POPC   GL215316   7.631  15.443  16.302 -0.1202  0.1738 -0.0699
 1277POPC   C1A15317   7.504  15.685  16.704 -0.1766  0.2864  0.2987
 1277POPC   D2A15318   7.680  15.938  17.024  0.0772  0.0540  0.3507
 1277POPC   C3A15319   7.603  16.355  17.107  0.1310  0.1435 -0.0869
 1277POPC   C4A15320   7.468  16.694  17.398 -0.1428 -0.0682 -0.2570
 1277POPC   C1B15321   8.013  15.439  16.541 -0.0233  0.1346 -0.0047
 1277POPC   C2B15322   8.036  15.311  17.019  0.3947 -0.0733 -0.0973
 1277POPC   C3B15323   7.987  15.565  17.367 -0.1614  0.1235  0.0778
 1277POPC   C4B15324   7.666  15.676  17.572 -0.2394 -0.0746  0.2549
 1278POPC   NC315325   8.443  12.499  16.151  0.0120 -0.2549 -0.1548
 1278POPC   PO415326   8.358  12.208  16.348 -0.0056 -0.0555 -0.3535
 1278POPC   GL115327   8.378  12.295  16.715 -0.1884  0.1609 -0.2617
 1278POPC   GL215328   8.629  12.220  16.887  0.1784 -0.3812  0.0366
 1278POPC   C1A15329   8.111  12.369  17.078 -0.1444  0.0132 -0.0485
 1278POPC   D2A15330   8.192  12.335  17.521 -0.0047 -0.0804 -0.0607
 1278POPC   C3A15331   7.966  12.051  17.716  0.1007  0.1226  0.0334
 1278POPC   C4A15332   7.972  11.621  17.842 -0.2119  0.0712  0.0435
 1278POPC   C1B15333   8.551  12.065  17.327  0.0865 -0.1132  0.0323
 1278POPC   C2B15334   8.466  11.947  17.737  0.0450 -0.4252  0.2861
 1278POPC   C3B15335   8.247  11.910  18.128 -0.2257  0.1456 -0.1915
 1278POPC   C4B15336   8.088  12.116  18.495  0.0353  0.0425  0.0827
 1279POPC   NC315337  14.212   3.016  13.580 -0.0548 -0.3551 -0.0132
 1279POPC   PO415338  13.830   2.960  13.637 -0.2156  0.0324  0.2040
 1279POPC   GL115339  13.535   2.896  13.879  0.1533 -0.0446  0.0709
 1279POPC   GL215340  13.554   3.161  13.973 -0.1768  0.2858 -0.1927
 1279POPC   C1A15341  13.158   3.069  13.746  0.0102  0.0275  0.2031
 1279POPC   D2A15342  12.955   3.246  13.359 -0.0075  0.1110  0.3221
 1279POPC   C3A15343  12.578   3.531  13.301  0.0470 -0.0089  0.0614
 1279POPC   C4A15344  12.512   3.881  12.985  0.0715  0.1350  0.0086
 1279POPC   C1B15345  13.156   3.319  14.187 -0.2529  0.3479  0.2613
 1279POPC   C2B15346  12.773   3.366  14.425 -0.0719  0.2394  0.2879
 1279POPC   C3B15347  12.472   3.734  14.468  0.0482  0.1627  0.0173
 1279POPC   C4B15348  12.226   4.024  14.630  0.0892 -0.0784  0.0618
 1280POPC   NC315349  14.731  12.969  16.042 -0.0553  0.4830 -0.1973
 1280POPC   PO415350  14.976  13.148  16.303 -0.3191 -0.0659 -0.1051
 1280POPC   GL115351  15.123  13.282  16.669  0.1289 -0.2039 -0.1972
 1280POPC   GL215352  14.943  13.480  16.770 -0.0842 -0.0660  0.0971
 1280POPC   C1A15353  15.291  13.189  17.065  0.2140 -0.3353 -0.2013
 1280POPC   D2A15354  15.520  13.077  17.445  0.2128 -0.1419  0.0911
 1280POPC   C3A15355  15.244  12.847  17.709  0.1227 -0.2125  0.1843
 1280POPC   C4A15356  15.051  12.862  18.140 -0.2208 -0.1766  0.1151
 1280POPC   C1B15357  15.001  13.846  17.005 -0.0222 -0.0474  0.1062
 1280POPC   C2B15358  14.854  14.038  17.405  0.3691 -0.3998 -0.2064
 1280POPC   C3B15359  14.863  14.231  17.823 -0.2526 -0.1284  0.1596
 1280POPC   C4B15360  15.222  14.331  18.038 -0.0995 -0.3106 -0.3133
 1281POPC   NC315361   6.862  12.502  15.956  0.0849  0.0079  0.1750
 1281POPC   PO415362   7.004  12.435  16.348  0.0140  0.1825 -0.0945
 1281POPC   GL115363   7.132  12.278  16.712  0.0729  0.4176  0.1053
 1281POPC   GL215364   6.874  12.254  16.856 -0.1739  0.0776 -0.0930
 1281POPC   C1A15365   7.234  12.531  17.080 -0.2031  0.0458 -0.1206
 1281POPC   D2A15366   7.639  12.600  17.314 -0.0135  0.1751 -0.0790
 1281POPC   C3A15367   7.800  12.479  17.752 -0.1577  0.0275  0.1118
 1281POPC   C4A15368   8.149  12.395  18.059  0.0945 -0.1122 -0.0135
 1281POPC   C1B15369   6.541  12.130  17.182  0.1937  0.1221 -0.0578
 1281POPC   C2B15370   6.457  11.980  17.619  0.0050 -0.1927 -0.1688
 1281POPC   C3B15371   6.510  11.773  18.010  0.0638 -0.0401 -0.2021
 1281POPC   C4B15372   6.752  11.422  18.167 -0.0075 -0.0020  0.0144
 1282POPC   NC315373   6.438  14.513  16.166 -0.1006 -0.2754  0.3851
 1282POPC   PO415374   6.093  14.669  16.319 -0.0948 -0.1461 -0.2725
 1282POPC   GL115375   5.992  14.987  16.504  0.2338  0.1639 -0.2061
 1282POPC   GL215376   6.222  15.091  16.649 -0.1536 -0.0703  0.1479
 1282POPC   C1A15377   5.815  15.257  16.831 -0.0651 -0.0963  0.0009
 1282POPC   D2A15378   5.819  15.490  17.198  0.0382  0.0674 -0.1021
 1282POPC   C3A15379   5.829  15.790  17.593  0.3201  0.0274  0.2559
 1282POPC   C4A15380   5.660  16.085  17.865  0.0662 -0.1903 -0.1475
 1282POPC   C1B15381   6.213  15.227  17.075  0.0403 -0.0232  0.0637
 1282POPC   C2B15382   6.368  15.403  17.432 -0.0229 -0.1780  0.0243
 1282POPC   C3B15383   6.561  15.652  17.758  0.0707 -0.4847 -0.1857
 1282POPC   C4B15384   6.599  15.821  18.223 -0.2430 -0.1188  0.2788
 1283POPC   NC315385  12.874   9.324  15.621 -0.3493 -0.3399 -0.0059
 1283POPC   PO415386  12.606   9.457  15.373  0.2955 -0.1221 -0.0694
 1283POPC   GL115387  12.458   9.442  15.781 -0.2330  0.2122 -0.2112
 1283POPC   GL215388  12.663   9.497  16.045  0.1671 -0.2808 -0.0155
 1283POPC   C1A15389  12.156   9.126  15.980 -0.1509  0.1010  0.0082
 1283POPC   D2A15390  11.987   8.860  16.300 -0.2645 -0.0615  0.2538
 1283POPC   C3A15391  11.663   8.933  16.602  0.1912 -0.0743  0.2062
 1283POPC   C4A15392  11.408   8.899  17.035  0.1221  0.0054 -0.2748
 1283POPC   C1B15393  12.521   9.220  16.383  0.2135 -0.4891 -0.0224
 1283POPC   C2B15394  12.575   8.876  16.636  0.0878 -0.2828 -0.0956
 1283POPC   C3B15395  12.276   8.550  16.618  0.1889  0.1059 -0.1974
 1283POPC   C4B15396  11.857   8.351  16.503  0.0620 -0.0461 -0.5472
 1284POPC   NC315397  10.770  10.549  12.671 -0.1445 -0.4164 -0.1542
 1284POPC   PO415398  10.686  10.173  12.693  0.2415  0.1792  0.1934
 1284POPC   GL115399  10.567   9.791  12.760  0.0759  0.2888  0.0855
 1284POPC   GL215400  10.288   9.702  12.907 -0.0220  0.1037  0.1729
 1284POPC   C1A15401  10.729   9.403  12.986  0.0103 -0.0598  0.0540
 1284POPC   D2A15402  10.790   9.052  13.263 -0.3897 -0.0975  0.1497
 1284POPC   C3A15403  10.529   8.686  13.074  0.2164 -0.1055  0.2498
 1284POPC   C4A15404  10.185   8.562  12.804  0.0293  0.2513  0.0831
 1284POPC   C1B15405  10.202   9.253  12.960 -0.1543 -0.1099  0.3097
 1284POPC   C2B15406  10.111   8.888  13.199  0.0610 -0.0768 -0.1134
 1284POPC   C3B15407   9.865   8.447  13.233 -0.2558 -0.0353 -0.1825
 1284POPC   C4B15408   9.733   8.192  13.639 -0.3086  0.2413 -0.1983
 1285POPC   NC315409   1.773   9.723  16.033 -0.2138  0.1414 -0.2892
 1285POPC   PO415410   1.844  10.038  16.268 -0.1062 -0.0481 -0.0833
 1285POPC   GL115411   2.045  10.388  16.496  0.5021 -0.1320 -0.2674
 1285POPC   GL215412   2.153  10.114  16.699 -0.0134 -0.0938 -0.2335
 1285POPC   C1A15413   1.989  10.576  16.947  0.0543 -0.1413  0.1266
 1285POPC   D2A15414   1.945  10.522  17.407  0.1668 -0.0108  0.1185
 1285POPC   C3A15415   2.004  10.375  17.817 -0.1154 -0.1981 -0.0561
 1285POPC   C4A15416   2.207  10.272  18.232  0.2064 -0.0411 -0.3457
 1285POPC   C1B15417   2.113  10.045  17.144 -0.0339  0.5994 -0.0356
 1285POPC   C2B15418   1.975   9.888  17.603  0.0338 -0.0831 -0.2762
 1285POPC   C3B15419   1.823   9.857  18.009  0.1589 -0.1258  0.0589
 1285POPC   C4B15420   1.982   9.838  18.394  0.0749  0.0052  0.4801
 1286POPC   NC315421  14.251   7.190  13.125 -0.0625  0.4998 -0.0745
 1286POPC   PO415422  14.050   7.188  12.811 -0.1495 -0.0436 -0.0324
 1286POPC   GL115423  13.705   7.189  13.020 -0.1806  0.5868  0.1061
 1286POPC   GL215424  13.588   6.930  12.882 -0.0270 -0.1191 -0.1037
 1286POPC   C1A15425  13.292   7.129  13.216  0.2484 -0.0803 -0.4307
 1286POPC   D2A15426  12.994   7.007  13.500  0.0168  0.0951  0.2058
 1286POPC   C3A15427  12.533   6.931  13.481  0.1841 -0.0364 -0.1082
 1286POPC   C4A15428  12.105   7.054  13.642  0.0224 -0.1051  0.1010
 1286POPC   C1B15429  13.196   6.709  12.881 -0.0979  0.0118  0.4576
 1286POPC   C2B15430  12.782   6.718  13.025  0.1139  0.1310  0.0602
 1286POPC   C3B15431  12.309   6.676  13.131 -0.1947  0.0133  0.2018
 1286POPC   C4B15432  12.019   6.576  13.499 -0.2110  0.4098 -0.1512
 1287POPC   NC315433   5.768  14.224  16.645  0.1578  0.3365  0.1440
 1287POPC   PO415434   5.573  14.539  16.435 -0.3168 -0.1376 -0.3433
 1287POPC   GL115435   5.615  14.795  16.775 -0.0067  0.2059  0.0492
 1287POPC   GL215436   5.902  14.735  16.881 -0.0583 -0.2093 -0.0850
 1287POPC   C1A15437   5.385  14.904  17.159  0.1741  0.3304 -0.3697
 1287POPC   D2A15438   5.492  14.878  17.618  0.0615  0.1613  0.1611
 1287POPC   C3A15439   5.276  14.760  17.986  0.0904  0.1970 -0.0441
 1287POPC   C4A15440   5.031  14.719  18.339 -0.0135  0.2201 -0.0599
 1287POPC   C1B15441   5.903  14.904  17.243 -0.2044  0.1018  0.2265
 1287POPC   C2B15442   5.868  15.201  17.549 -0.1922 -0.0076  0.2128
 1287POPC   C3B15443   6.153  15.384  17.855  0.0767 -0.2418  0.0472
 1287POPC   C4B15444   6.370  15.236  18.270 -0.1371 -0.0119  0.3901
 1288POPC   NC315445   0.654  11.079  16.467 -0.0972  0.1245 -0.1645
 1288POPC   PO415446   0.332  10.841  16.430  0.0860 -0.3110  0.0892
 1288POPC   GL115447   0.463  10.753  16.763  0.2686  0.3157  0.4119
 1288POPC   GL215448   0.691  10.596  16.832  0.0460  0.0274  0.2172
 1288POPC   C1A15449   0.454  10.937  17.221  0.2433  0.0462 -0.0369
 1288POPC   D2A15450   0.474  10.976  17.695 -0.0350 -0.3607 -0.2325
 1288POPC   C3A15451   0.629  10.612  18.039 -0.0584 -0.1310  0.4210
 1288POPC   C4A15452   0.595  10.346  18.399  0.2224  0.2013 -0.3662
 1288POPC   C1B15453   0.526  10.426  17.175  0.0929 -0.0299 -0.1014
 1288POPC   C2B15454   0.487  10.376  17.570  0.1300  0.2477 -0.2365
 1288POPC   C3B15455   0.318  10.227  17.953 -0.1231 -0.0044  0.1460
 1288POPC   C4B15456   0.176  10.130  18.340  0.0206  0.0795  0.2574
 1289POPC   NC315457   9.511  32.763  14.808 -0.0396  0.3089 -0.3491
 1289POPC   PO415458   9.140  32.818  14.731  0.1817  0.0143 -0.1629
 1289POPC   GL115459   9.208  33.165  14.733  0.0452  0.2803 -0.3123
 1289POPC   GL215460   9.328  33.359  14.506  0.0046 -0.1893  0.2860
 1289POPC   C1A15461   9.379  33.317  15.104 -0.1286  0.0087  0.0583
 1289POPC   D2A15462   9.419  33.716  15.261 -0.1793 -0.0062 -0.2071
 1289POPC   C3A15463   9.627  34.126  15.121 -0.1283  0.2487  0.0248
 1289POPC   C4A15464   9.881  34.513  15.188 -0.1761 -0.1322  0.1177
 1289POPC   C1B15465   9.139  33.671  14.853 -0.2719 -0.1916  0.0872
 1289POPC   C2B15466   9.123  34.105  14.930 -0.2435 -0.2105  0.0584
 1289POPC   C3B15467   8.891  34.491  14.854 -0.1566 -0.0639  0.1894
 1289POPC   C4B15468   8.594  34.848  14.807 -0.0446  0.0259  0.0429
 1290POPC   NC315469   3.328  11.396  16.578 -0.0264 -0.0332  0.1627
 1290POPC   PO415470   2.938  11.377  16.485  0.1793 -0.1687  0.1873
 1290POPC   GL115471   2.932  11.342  16.897 -0.1785 -0.0283 -0.3759
 1290POPC   GL215472   2.674  11.249  16.888  0.1634  0.1594 -0.1293
 1290POPC   C1A15473   3.213  11.487  17.236 -0.1501  0.0065  0.4059
 1290POPC   D2A15474   3.593  11.684  17.484  0.1254 -0.0138  0.5980
 1290POPC   C3A15475   3.665  11.621  17.918  0.0125 -0.3587  0.5055
 1290POPC   C4A15476   3.899  11.668  18.328 -0.1258  0.1650  0.2596
 1290POPC   C1B15477   2.559  10.910  17.097  0.1222 -0.2018 -0.1749
 1290POPC   C2B15478   2.387  10.771  17.522 -0.1769  0.2253 -0.7544
 1290POPC   C3B15479   2.378  10.699  17.988 -0.1983  0.2510 -0.3306
 1290POPC   C4B15480   2.422  10.714  18.440  0.1969  0.2174 -0.3181
 1291POPC   NC315481   1.379  15.571  16.096  0.1463  0.1955  0.1243
 1291POPC   PO415482   1.356  15.921  16.217 -0.0536  0.0690 -0.1155
 1291POPC   GL115483   1.287  15.963  16.500 -0.4954  0.3211 -0.0088
 1291POPC   GL215484   1.207  16.235  16.585  0.4379 -0.0330 -0.2377
 1291POPC   C1A15485   1.275  15.979  16.967 -0.1580 -0.1078 -0.1857
 1291POPC   D2A15486   1.221  15.780  17.375  0.0779 -0.0689  0.2598
 1291POPC   C3A15487   0.961  15.375  17.387  0.0371 -0.0429  0.0937
 1291POPC   C4A15488   0.579  15.240  17.344  0.0285 -0.0662 -0.0799
 1291POPC   C1B15489   0.779  16.006  16.747  0.0517 -0.0649  0.0175
 1291POPC   C2B15490   0.364  15.951  16.896 -0.2307 -0.0153  0.2062
 1291POPC   C3B15491   0.097  16.025  17.243 -0.1903  0.1458 -0.2210
 1291POPC   C4B15492  -0.336  16.187  17.223  0.0561 -0.2172  0.0776
 1292POPC   NC315493  13.412  12.755  16.237  0.0588  0.0847 -0.0260
 1292POPC   PO415494  13.476  13.083  16.480  0.1720  0.2618  0.0114
 1292POPC   GL115495  13.542  13.347  16.760  0.1599 -0.0417 -0.1212
 1292POPC   GL215496  13.829  13.325  16.781  0.0839 -0.0966 -0.1867
 1292POPC   C1A15497  13.260  13.374  17.167 -0.0122 -0.0823  0.0016
 1292POPC   D2A15498  13.183  13.317  17.632  0.1376 -0.1990 -0.0500
 1292POPC   C3A15499  12.934  13.354  18.004 -0.1324  0.1925 -0.2281
 1292POPC   C4A15500  12.578  13.606  18.131  0.4183 -0.2068 -0.0627
 1292POPC   C1B15501  13.747  13.258  17.228 -0.1712 -0.0017  0.0632
 1292POPC   C2B15502  13.739  13.186  17.673 -0.0952  0.2520  0.1351
 1292POPC   C3B15503  13.642  13.199  18.093 -0.1411 -0.1142 -0.0323
 1292POPC   C4B15504  13.378  13.275  18.468  0.1844 -0.1104 -0.0252
 1293POPC   NC315505  11.727   9.663  15.061 -0.0508  0.0846 -0.0713
 1293POPC   PO415506  11.432   9.828  14.823 -0.2101  0.0808 -0.0158
 1293POPC   GL115507  11.111   9.467  14.784 -0.3257 -0.1440  0.1834
 1293POPC   GL215508  11.235   9.441  14.436  0.1940  0.0633 -0.0577
 1293POPC   C1A15509  11.225   9.236  15.209 -0.0725  0.3914  0.3898
 1293POPC   D2A15510  11.233   9.294  15.625  0.0667 -0.0246 -0.1299
 1293POPC   C3A15511  11.211   8.903  15.906  0.2344 -0.0442  0.1381
 1293POPC   C4A15512  11.150   8.733  16.327  0.2215 -0.0058 -0.0684
 1293POPC   C1B15513  11.101   9.047  14.646 -0.0202  0.3964  0.0642
 1293POPC   C2B15514  11.189   8.744  14.957 -0.1650  0.0599  0.0635
 1293POPC   C3B15515  11.501   8.390  14.974 -0.0266  0.0764  0.1851
 1293POPC   C4B15516  11.561   7.904  14.919  0.3304 -0.3336 -0.0946
 1294POPC   NC315517   9.414  13.060  16.898  0.2450  0.3710  0.1184
 1294POPC   PO415518   9.461  12.658  16.858  0.1547  0.1504  0.0769
 1294POPC   GL115519   9.392  12.735  17.341 -0.4811  0.3293  0.2656
 1294POPC   GL215520   9.209  12.812  17.502  0.2605 -0.1048 -0.1566
 1294POPC   C1A15521   9.671  12.669  17.763 -0.2025  0.1476  0.0740
 1294POPC   D2A15522  10.064  12.619  17.962 -0.0868  0.2509 -0.0110
 1294POPC   C3A15523  10.156  12.203  18.149  0.0376  0.0746 -0.0489
 1294POPC   C4A15524  10.281  11.916  18.448 -0.0793  0.2212 -0.1342
 1294POPC   C1B15525   8.814  13.052  17.633 -0.0615  0.4225  0.0515
 1294POPC   C2B15526   8.552  13.164  17.945  0.3873  0.1742  0.0538
 1294POPC   C3B15527   8.555  13.203  18.416 -0.0297  0.2159 -0.1497
 1294POPC   C4B15528   8.555  12.943  18.785  0.0315  0.1456  0.1188
 1295POPC   NC315529   4.299   8.592  15.537 -0.1089  0.0055  0.2505
 1295POPC   PO415530   4.335   8.229  15.401  0.0249 -0.0209 -0.2173
 1295POPC   GL115531   4.474   7.971  15.709 -0.0390  0.3551 -0.3630
 1295POPC   GL215532   4.497   8.187  15.941  0.2184 -0.2149 -0.2253
 1295POPC   C1A15533   4.842   7.840  15.941  0.2560 -0.4869  0.0733
 1295POPC   D2A15534   5.047   7.808  16.324  0.0071  0.2222 -0.3809
 1295POPC   C3A15535   5.122   7.358  16.193  0.0615 -0.1333  0.0556
 1295POPC   C4A15536   5.186   6.892  16.252  0.0192 -0.2018  0.0197
 1295POPC   C1B15537   4.590   8.042  16.335 -0.0840 -0.2546  0.1500
 1295POPC   C2B15538   4.723   8.091  16.803  0.0100  0.2202 -0.1396
 1295POPC   C3B15539   4.987   8.094  17.211 -0.1406  0.1040 -0.0049
 1295POPC   C4B15540   4.957   7.746  17.536  0.0747 -0.0794 -0.0348
 1296POPC   NC315541   0.449   2.075  15.696 -0.2791  0.3526 -0.1633
 1296POPC   PO415542   0.334   2.432  15.684  0.3083 -0.1895  0.1812
 1296POPC   GL115543   0.194   2.323  16.032  0.3079 -0.1561  0.0440
 1296POPC   GL215544   0.260   2.018  16.160 -0.1696  0.1389 -0.1347
 1296POPC   C1A15545   0.063   2.454  16.464  0.0392 -0.1643 -0.2869
 1296POPC   D2A15546   0.076   2.531  16.901 -0.0000  0.2494  0.0743
 1296POPC   C3A15547   0.107   2.387  17.334 -0.2144 -0.0593  0.2264
 1296POPC   C4A15548  -0.058   2.425  17.734  0.0680  0.0790  0.0709
 1296POPC   C1B15549   0.537   2.224  16.476 -0.1176 -0.0654 -0.1220
 1296POPC   C2B15550   0.556   2.520  16.784  0.0397  0.0856  0.5547
 1296POPC   C3B15551   0.644   2.610  17.230 -0.0549  0.1034 -0.0212
 1296POPC   C4B15552   0.954   2.787  17.614 -0.6056  0.0660 -0.0723
 1297POPC   NC315553   3.198   7.911  15.713 -0.2376 -0.1992 -0.0349
 1297POPC   PO415554   3.174   8.273  15.633 -0.1448  0.1446 -0.0782
 1297POPC   GL115555   3.431   8.227  16.021  0.1444  0.2278 -0.2126
 1297POPC   GL215556   3.610   8.018  16.085 -0.1160 -0.0554 -0.2268
 1297POPC   C1A15557   3.275   8.178  16.458  0.1057  0.2004 -0.3616
 1297POPC   D2A15558   2.928   8.125  16.802  0.5927  0.0533 -0.0597
 1297POPC   C3A15559   3.135   7.959  17.185 -0.3207  0.1106  0.1871
 1297POPC   C4A15560   3.161   7.834  17.610  0.1662 -0.3333 -0.2751
 1297POPC   C1B15561   3.791   7.614  16.028 -0.1509 -0.0837  0.1681
 1297POPC   C2B15562   3.662   7.269  16.288  0.0593 -0.1621  0.4925
 1297POPC   C3B15563   3.816   6.943  16.582  0.1442  0.0893  0.0321
 1297POPC   C4B15564   4.133   6.734  16.781  0.1472  0.2058  0.1185
 1298POPC   NC315565   5.171   9.789  15.032  0.2860 -0.1098 -0.4171
 1298POPC   PO415566   5.517   9.836  15.272  0.1318  0.2176 -0.1308
 1298POPC   GL115567   5.635   9.687  15.555 -0.2836 -0.0425  0.0762
 1298POPC   GL215568   5.718   9.925  15.720  0.0846 -0.4241 -0.2930
 1298POPC   C1A15569   5.647   9.450  15.926 -0.2915  0.0989 -0.3144
 1298POPC   D2A15570   5.814   9.465  16.403  0.2946  0.4274 -0.1821
 1298POPC   C3A15571   5.774   9.308  16.781  0.2282 -0.0237  0.0475
 1298POPC   C4A15572   5.464   9.346  17.183 -0.1888 -0.1674  0.2781
 1298POPC   C1B15573   6.130   9.664  15.907  0.3537 -0.3285  0.0216
 1298POPC   C2B15574   6.124   9.232  16.022 -0.0861  0.2027 -0.1993
 1298POPC   C3B15575   6.352   8.798  16.199  0.1327  0.0630  0.2327
 1298POPC   C4B15576   6.620   8.457  16.220  0.0692 -0.0278  0.1188
 1299POPC   NC315577  10.130  11.278  11.161  0.0301  0.1345  0.1697
 1299POPC   PO415578  10.305  11.014  10.896  0.0643 -0.3764 -0.0024
 1299POPC   GL115579  10.021  10.848  10.738  0.2157 -0.0183 -0.5350
 1299POPC   GL215580  10.205  10.867  10.452 -0.1280 -0.1146  0.4244
 1299POPC   C1A15581   9.891  10.460  10.501 -0.0377 -0.1122 -0.2347
 1299POPC   D2A15582   9.875  10.130  10.158  0.0821 -0.0337 -0.0600
 1299POPC   C3A15583  10.106   9.713  10.086  0.1597  0.1295 -0.3911
 1299POPC   C4A15584  10.009   9.442   9.664  0.0134 -0.1772  0.2676
 1299POPC   C1B15585  10.176  10.503  10.136  0.2344  0.0622 -0.2256
 1299POPC   C2B15586  10.031  10.370   9.699 -0.0217  0.2032  0.2197
 1299POPC   C3B15587  10.039  10.178   9.275 -0.1338  0.1327 -0.0000
 1299POPC   C4B15588  10.058  10.103   8.791 -0.1754 -0.0847  0.0633
 1300POPC   NC315589  13.194  17.057   8.474 -0.1855 -0.1028 -0.3991
 1300POPC   PO415590  13.126  16.785   8.204  0.3628 -0.2081 -0.0650
 1300POPC   GL115591  12.866  16.874   7.871 -0.0265 -0.0352  0.0087
 1300POPC   GL215592  12.835  17.156   7.999 -0.0204  0.3741 -0.1251
 1300POPC   C1A15593  12.774  16.915   7.472 -0.2372 -0.0547 -0.2007
 1300POPC   D2A15594  12.915  17.177   7.079 -0.0586  0.1607  0.1222
 1300POPC   C3A15595  13.162  17.502   6.890  0.5789 -0.3145  0.0568
 1300POPC   C4A15596  13.565  17.633   6.819 -0.3713 -0.0144  0.0265
 1300POPC   C1B15597  12.823  17.422   7.628 -0.4277 -0.0871  0.0228
 1300POPC   C2B15598  12.486  17.538   7.288  0.1098  0.1477 -0.4049
 1300POPC   C3B15599  12.155  17.527   7.006 -0.1865 -0.0888 -0.0224
 1300POPC   C4B15600  11.934  17.196   6.802  0.1411  0.2851 -0.1577
 1301POPC   NC315601  14.537   9.498   9.857 -0.1125 -0.1779 -0.1220
 1301POPC   PO415602  14.878   9.302   9.769 -0.1787 -0.1766 -0.1006
 1301POPC   GL115603  14.845   9.215   9.334  0.0559 -0.1066  0.5691
 1301POPC   GL215604  14.575   9.307   9.303  0.2460  0.0690 -0.0311
 1301POPC   C1A15605  14.909   9.246   8.826 -0.2697 -0.0397 -0.1461
 1301POPC   D2A15606  14.637   9.289   8.455  0.0978  0.0215 -0.0508
 1301POPC   C3A15607  14.212   9.201   8.562 -0.2137 -0.2308 -0.0135
 1301POPC   C4A15608  13.867   9.018   8.807  0.0820 -0.0367  0.1310
 1301POPC   C1B15609  14.471   9.060   8.944  0.0741  0.3133  0.0915
 1301POPC   C2B15610  14.540   8.812   8.568  0.2714  0.1472  0.2003
 1301POPC   C3B15611  14.337   8.824   8.165  0.2090 -0.1427 -0.1469
 1301POPC   C4B15612  14.372   9.069   7.797 -0.2401  0.1224  0.0696
 1302POPC   NC315613  10.337  11.726   9.835  0.0829 -0.0163  0.0722
 1302POPC   PO415614  10.492  11.561  10.190  0.2671 -0.0619  0.0530
 1302POPC   GL115615  10.505  11.307   9.966 -0.4302  0.0102 -0.5464
 1302POPC   GL215616  10.490  11.055  10.054 -0.0414  0.1118 -0.0285
 1302POPC   C1A15617  10.793  11.168   9.596  0.1476 -0.0354  0.0281
 1302POPC   D2A15618  10.672  10.999   9.188  0.0702 -0.1595  0.0894
 1302POPC   C3A15619  10.549  10.760   8.801  0.3109 -0.2020 -0.2067
 1302POPC   C4A15620  10.219  10.754   8.474  0.2702 -0.1761 -0.0678
 1302POPC   C1B15621  10.409  10.723   9.678 -0.1821  0.3424  0.2657
 1302POPC   C2B15622  10.399  10.505   9.283 -0.2510 -0.2350 -0.1536
 1302POPC   C3B15623  10.534  10.258   8.946  0.1266 -0.0046 -0.0728
 1302POPC   C4B15624  10.495   9.864   8.718  0.2575 -0.0220 -0.0010
 1303POPC   NC315625  12.033  14.686  15.579  0.0209  0.0101 -0.0253
 1303POPC   PO415626  11.892  14.996  15.783  0.2201 -0.0404 -0.0533
 1303POPC   GL115627  11.719  15.190  16.129  0.0471  0.2347 -0.1220
 1303POPC   GL215628  11.511  15.320  15.999  0.1112  0.0847  0.2522
 1303POPC   C1A15629  11.778  15.404  16.518  0.1550  0.0104  0.2411
 1303POPC   D2A15630  11.829  15.655  16.876  0.0828  0.0954 -0.1381
 1303POPC   C3A15631  11.583  16.000  17.035 -0.0568  0.1417  0.2076
 1303POPC   C4A15632  11.221  15.988  17.260  0.0595  0.0875 -0.0134
 1303POPC   C1B15633  11.458  15.704  16.322  0.0953  0.1210 -0.0998
 1303POPC   C2B15634  11.377  16.090  16.569 -0.0608 -0.4100  0.0666
 1303POPC   C3B15635  11.260  16.382  16.880 -0.0199 -0.0089  0.5217
 1303POPC   C4B15636  11.065  16.822  16.916  0.0816 -0.0673 -0.1402
 1304POPC   NC315637   5.004   8.960  10.205 -0.2254 -0.1757  0.1212
 1304POPC   PO415638   5.313   8.838  10.311  0.1482  0.2833 -0.2617
 1304POPC   GL115639   5.635   8.614  10.133 -0.1400 -0.2125 -0.1830
 1304POPC   GL215640   5.783   8.803   9.950  0.1589 -0.3429 -0.3057
 1304POPC   C1A15641   5.725   8.174   9.999 -0.0568  0.2282  0.2327
 1304POPC   D2A15642   6.099   7.916   9.884 -0.0273  0.4332  0.1005
 1304POPC   C3A15643   6.408   8.165   9.633  0.0048 -0.0668 -0.1153
 1304POPC   C4A15644   6.725   8.322   9.365  0.1736  0.1162  0.1583
 1304POPC   C1B15645   5.753   8.529   9.586  0.0782  0.0862  0.2887
 1304POPC   C2B15646   5.821   8.426   9.153  0.0441 -0.1661  0.1264
 1304POPC   C3B15647   5.815   8.442   8.684 -0.1097 -0.2327  0.1655
 1304POPC   C4B15648   5.952   8.252   8.272 -0.2869 -0.2299  0.2028
 1305POPC   NC315649  12.231  10.457  16.088 -0.4910 -0.1182 -0.1715
 1305POPC   PO415650  12.368  10.228  15.766  0.0469  0.0590 -0.1155
 1305POPC   GL115651  12.404   9.911  15.959 -0.1040 -0.0160 -0.1176
 1305POPC   GL215652  12.442   9.932  16.221 -0.2944  0.2939 -0.2298
 1305POPC   C1A15653  12.092   9.639  16.103 -0.1972  0.2633  0.1137
 1305POPC   D2A15654  11.996   9.399  16.498 -0.1150  0.0021 -0.0245
 1305POPC   C3A15655  12.167   9.109  16.745 -0.0985 -0.0062 -0.1834
 1305POPC   C4A15656  12.164   9.033  17.197  0.1343  0.0467 -0.1088
 1305POPC   C1B15657  12.358   9.691  16.596  0.1559  0.0054  0.2949
 1305POPC   C2B15658  12.531   9.415  16.901  0.0305  0.0788  0.0438
 1305POPC   C3B15659  12.583   9.303  17.386 -0.0815 -0.6627  0.0826
 1305POPC   C4B15660  12.717   9.433  17.821 -0.1100  0.4449  0.0813
 1306POPC   NC315661   3.444   4.705   9.288 -0.1587 -0.1040 -0.0314
 1306POPC   PO415662   3.678   4.668   9.615 -0.3144  0.4511  0.1045
 1306POPC   GL115663   3.821   4.460   9.233 -0.1318  0.2851 -0.0680
 1306POPC   GL215664   4.027   4.596   9.259 -0.1211 -0.0283 -0.0042
 1306POPC   C1A15665   3.690   4.663   8.855 -0.1842  0.0101  0.2016
 1306POPC   D2A15666   3.758   4.965   8.512 -0.0209  0.0974 -0.1847
 1306POPC   C3A15667   4.063   5.310   8.425 -0.0204 -0.3161  0.0867
 1306POPC   C4A15668   4.297   5.443   8.091 -0.1620 -0.0706  0.0671
 1306POPC   C1B15669   4.159   4.359   8.863  0.3283 -0.1894 -0.2679
 1306POPC   C2B15670   4.395   4.255   8.446 -0.0000 -0.1700 -0.1196
 1306POPC   C3B15671   4.620   4.058   8.100  0.3606 -0.1016 -0.1740
 1306POPC   C4B15672   4.839   3.815   7.807  0.0222 -0.0264 -0.1702
 1307POPC   NC315673   2.569   3.976  15.286 -0.0088  0.0271  0.2072
 1307POPC   PO415674   2.280   3.786  15.124  0.1800  0.0217  0.3993
 1307POPC   GL115675   2.199   3.856  15.546 -0.0390 -0.1137 -0.2539
 1307POPC   GL215676   2.052   4.062  15.688  0.0379 -0.1453  0.0810
 1307POPC   C1A15677   2.141   3.682  15.978  0.2324  0.0731  0.1914
 1307POPC   D2A15678   2.340   3.524  16.335 -0.0935  0.1513 -0.0629
 1307POPC   C3A15679   2.265   3.554  16.771 -0.3115 -0.0384 -0.1355
 1307POPC   C4A15680   2.394   3.301  17.123  0.2086  0.0684  0.0087
 1307POPC   C1B15681   2.529   4.007  15.766 -0.0754 -0.2015  0.1846
 1307POPC   C2B15682   2.692   3.830  16.163 -0.0410  0.0536  0.1350
 1307POPC   C3B15683   2.800   3.832  16.651  0.1197  0.1788 -0.1438
 1307POPC   C4B15684   2.680   3.790  17.099  0.1308  0.1778  0.0081
 1308POPC   NC315685   7.491  12.219  16.310 -0.0170 -0.0010 -0.1889
 1308POPC   PO415686   7.513  12.611  16.256 -0.0064  0.1973 -0.1402
 1308POPC   GL115687   7.444  12.526  16.644 -0.2116  0.2593 -0.3071
 1308POPC   GL215688   7.642  12.794  16.758  0.2360 -0.1372 -0.0058
 1308POPC   C1A15689   7.601  12.241  16.919 -0.0113 -0.0599 -0.1787
 1308POPC   D2A15690   7.826  12.008  17.238  0.1344 -0.0073  0.1056
 1308POPC   C3A15691   8.186  11.664  17.312  0.0160 -0.3066  0.0493
 1308POPC   C4A15692   8.220  11.264  17.541  0.1162 -0.0369 -0.0045
 1308POPC   C1B15693   7.526  13.137  17.066  0.0841  0.3718 -0.2173
 1308POPC   C2B15694   7.546  13.451  17.379  0.0912 -0.0612 -0.1260
 1308POPC   C3B15695   7.606  13.503  17.832 -0.1312 -0.1660 -0.1523
 1308POPC   C4B15696   7.648  13.877  18.119  0.0877  0.0193  0.1010
 1309POPC   NC315697  10.173  13.583  16.351  0.0222 -0.1281  0.0831
 1309POPC   PO415698  10.003  13.914  16.218  0.1043 -0.1479  0.3095
 1309POPC   GL115699  10.128  14.067  16.520  0.0224  0.2888  0.1656
 1309POPC   GL215700   9.794  14.041  16.672  0.0661 -0.2930 -0.2694
 1309POPC   C1A15701  10.145  14.180  16.975  0.1449 -0.1556 -0.1265
 1309POPC   D2A15702  10.466  14.305  17.227  0.1524  0.0162 -0.2636
 1309POPC   C3A15703  10.351  14.474  17.668  0.0049  0.0392 -0.0526
 1309POPC   C4A15704  10.369  14.731  18.065  0.2065  0.0023 -0.0711
 1309POPC   C1B15705   9.777  13.942  17.100 -0.0299  0.1307 -0.0035
 1309POPC   C2B15706   9.769  13.668  17.513 -0.0181  0.1053  0.1529
 1309POPC   C3B15707   9.565  13.496  17.857 -0.1275  0.2191 -0.4252
 1309POPC   C4B15708   9.475  13.428  18.280  0.0022  0.1775  0.0237
 1310POPC   NC315709  11.748  10.408  15.168 -0.0207 -0.0088  0.2279
 1310POPC   PO415710  11.419  10.257  15.193  0.1896  0.1657 -0.1687
 1310POPC   GL115711  11.389  10.229  15.551  0.0755  0.0560  0.1485
 1310POPC   GL215712  11.063  10.086  15.537 -0.0088 -0.3308 -0.2215
 1310POPC   C1A15713  11.376   9.843  15.841 -0.1932  0.2482  0.0242
 1310POPC   D2A15714  10.992   9.645  15.979 -0.2720  0.0776 -0.0691
 1310POPC   C3A15715  10.583   9.701  16.240  0.1577 -0.0325  0.0661
 1310POPC   C4A15716  10.167   9.919  16.481 -0.2029  0.1719  0.0829
 1310POPC   C1B15717  10.752   9.729  15.569  0.1011  0.0506 -0.1671
 1310POPC   C2B15718  10.720   9.241  15.519 -0.3810 -0.0225 -0.1633
 1310POPC   C3B15719  10.425   8.900  15.484  0.3149  0.1347 -0.1698
 1310POPC   C4B15720  10.197   8.665  15.830 -0.0580 -0.1079 -0.4064
 1311POPC   NC315721   1.586   4.899  14.985  0.1874  0.0811 -0.0285
 1311POPC   PO415722   1.641   4.535  15.095 -0.3122 -0.3192 -0.2123
 1311POPC   GL115723   1.726   4.358  15.446 -0.2168 -0.0967  0.0503
 1311POPC   GL215724   1.507   4.253  15.665  0.0947 -0.0595 -0.2342
 1311POPC   C1A15725   1.882   4.595  15.803  0.0131  0.2855 -0.1019
 1311POPC   D2A15726   1.823   4.712  16.254 -0.1332  0.1571  0.0248
 1311POPC   C3A15727   1.895   4.995  16.649 -0.3111 -0.1254 -0.0864
 1311POPC   C4A15728   1.967   5.146  17.045  0.2851  0.2155 -0.1695
 1311POPC   C1B15729   1.764   4.211  16.055 -0.3213  0.1065  0.3682
 1311POPC   C2B15730   1.801   4.266  16.539 -0.5956 -0.2342  0.0139
 1311POPC   C3B15731   1.923   3.997  16.861 -0.2756  0.0779  0.0528
 1311POPC   C4B15732   1.704   3.784  17.205  0.3367  0.0485  0.0470
 1312POPC   NC315733  12.970  12.318  16.074 -0.2770 -0.2605 -0.2536
 1312POPC   PO415734  13.134  12.402  16.428 -0.0309 -0.0428 -0.0553
 1312POPC   GL115735  13.391  12.550  16.672  0.2268  0.0779  0.4322
 1312POPC   GL215736  13.255  12.766  16.812  0.0834 -0.0260  0.1868
 1312POPC   C1A15737  13.637  12.326  17.029  0.1042 -0.0327 -0.2541
 1312POPC   D2A15738  13.879  12.237  17.447  0.0642  0.0287  0.1836
 1312POPC   C3A15739  13.561  12.141  17.762 -0.0119 -0.1165 -0.3693
 1312POPC   C4A15740  13.514  11.868  18.112  0.0720 -0.1249  0.1130
 1312POPC   C1B15741  13.379  12.909  17.244 -0.0885  0.1798  0.1829
 1312POPC   C2B15742  13.397  12.815  17.655  0.4923  0.0488  0.0415
 1312POPC   C3B15743  13.217  12.936  18.040  0.1790  0.0441  0.1418
 1312POPC   C4B15744  13.196  12.710  18.431  0.1681 -0.1098  0.1966
 1313POPC   NC315745  10.628  15.544  15.707  0.3565 -0.0180 -0.0070
 1313POPC   PO415746  10.257  15.525  15.555 -0.3814 -0.1352  0.0744
 1313POPC   GL115747  10.179  15.791  15.832 -0.0621 -0.0165  0.1314
 1313POPC   GL215748  10.176  15.619  16.075  0.1143  0.2308 -0.0756
 1313POPC   C1A15749  10.216  16.150  16.152  0.4688 -0.2739 -0.1314
 1313POPC   D2A15750  10.239  16.469  16.393  0.0139  0.0732  0.1235
 1313POPC   C3A15751  10.596  16.646  16.374  0.2042  0.2860  0.2420
 1313POPC   C4A15752  10.990  16.860  16.400 -0.0341 -0.0987 -0.1651
 1313POPC   C1B15753  10.188  15.827  16.500 -0.2570  0.0284 -0.2612
 1313POPC   C2B15754  10.077  16.198  16.760 -0.0223 -0.2637 -0.0407
 1313POPC   C3B15755  10.185  16.556  16.998  0.0292 -0.0944 -0.1092
 1313POPC   C4B15756  10.556  16.809  17.097 -0.0159  0.1109  0.1341
 1314POPC   NC315757  10.052  10.695  11.174  0.0494  0.1613  0.3351
 1314POPC   PO415758  10.221  10.897  11.462  0.2178 -0.0061 -0.1154
 1314POPC   GL115759  10.198  10.440  11.530  0.0122  0.0537 -0.0807
 1314POPC   GL215760  10.417  10.382  11.345 -0.0799  0.1664 -0.0315
 1314POPC   C1A15761   9.896  10.107  11.473  0.1165 -0.4242 -0.0071
 1314POPC   D2A15762   9.493   9.932  11.245 -0.0352  0.2056 -0.0465
 1314POPC   C3A15763   9.327   9.671  10.847 -0.0473 -0.0322  0.1024
 1314POPC   C4A15764   9.117   9.660  10.376  0.3269 -0.1748 -0.3170
 1314POPC   C1B15765  10.254   9.999  11.113  0.0286 -0.3260 -0.2504
 1314POPC   C2B15766  10.162   9.578  10.952 -0.1038 -0.2224  0.0017
 1314POPC   C3B15767   9.953   9.175  10.899  0.0336  0.0437 -0.0913
 1314POPC   C4B15768   9.926   8.744  11.020 -0.4409  0.1030  0.1135
 1315POPC   NC315769  14.902   7.786  15.778  0.3476  0.0672  0.3753
 1315POPC   PO415770  14.784   8.159  15.807  0.3095 -0.2469 -0.0053
 1315POPC   GL115771  14.743   8.061  16.193  0.2013  0.2881 -0.1355
 1315POPC   GL215772  15.035   8.073  16.227 -0.2688 -0.2096 -0.3213
 1315POPC   C1A15773  14.381   7.871  16.388 -0.0852  0.0827  0.1563
 1315POPC   D2A15774  14.101   7.521  16.572  0.1638 -0.1675  0.2665
 1315POPC   C3A15775  14.130   7.237  16.888  0.3664  0.2713 -0.1683
 1315POPC   C4A15776  14.498   7.177  17.184  0.0210  0.1694 -0.0913
 1315POPC   C1B15777  15.268   7.982  16.621 -0.0306  0.0662  0.1124
 1315POPC   C2B15778  15.396   8.078  17.103  0.1418  0.0580  0.1918
 1315POPC   C3B15779  15.420   7.854  17.487 -0.1926  0.0362  0.4161
 1315POPC   C4B15780  15.303   7.634  17.827 -0.0636  0.1139 -0.1390
 1316POPC   NC315781   4.797  10.497   8.746 -0.3419  0.0684  0.2085
 1316POPC   PO415782   4.875  10.611   9.133 -0.1035  0.1853 -0.1243
 1316POPC   GL115783   5.257  10.623   8.937 -0.1146 -0.2086  0.0245
 1316POPC   GL215784   5.394  10.833   9.021  0.0527 -0.1046  0.0117
 1316POPC   C1A15785   5.343  10.525   8.474  0.3940  0.0836 -0.1391
 1316POPC   D2A15786   5.362  10.402   8.054  0.0390 -0.0194  0.0201
 1316POPC   C3A15787   5.590  10.088   7.860 -0.1283  0.0122  0.2474
 1316POPC   C4A15788   5.807   9.659   7.886 -0.1577  0.0611  0.0013
 1316POPC   C1B15789   5.654  10.888   8.669 -0.1345  0.1397 -0.2609
 1316POPC   C2B15790   6.026  10.835   8.444 -0.0679  0.1012 -0.0160
 1316POPC   C3B15791   6.288  10.727   8.061  0.0766 -0.3030  0.1351
 1316POPC   C4B15792   6.528  10.552   7.748 -0.6414  0.0438 -0.1088
 1317POPC   NC315793  15.722   5.323  15.478  0.2180 -0.0954 -0.0027
 1317POPC   PO415794  15.728   5.702  15.529 -0.0868 -0.1876  0.1819
 1317POPC   GL115795  15.979   5.867  15.877 -0.1817 -0.0504  0.2592
 1317POPC   GL215796  15.729   5.950  15.997  0.0302 -0.1310 -0.0114
 1317POPC   C1A15797  16.120   5.564  16.276 -0.0513 -0.0074  0.0006
 1317POPC   D2A15798  15.980   5.197  16.534  0.0743  0.0852  0.1210
 1317POPC   C3A15799  15.672   5.086  16.815 -0.0109  0.2660  0.1783
 1317POPC   C4A15800  15.357   5.242  17.135 -0.1879  0.2304  0.1880
 1317POPC   C1B15801  15.602   5.609  16.261 -0.1217 -0.0778  0.3802
 1317POPC   C2B15802  15.527   5.504  16.678  0.1821  0.2643 -0.0762
 1317POPC   C3B15803  15.838   5.599  16.952  0.0895 -0.1320  0.2448
 1317POPC   C4B15804  16.036   5.648  17.408  0.1465 -0.0148  0.3989
 1318POPC   NC315805   9.512  10.763  14.360 -0.1282  0.0160  0.1227
 1318POPC   PO415806   9.629  10.818  13.977 -0.0676 -0.1072  0.0439
 1318POPC   GL115807   9.523  10.417  14.028 -0.1525 -0.0142 -0.0006
 1318POPC   GL215808   9.703  10.240  14.058 -0.0998  0.0987  0.1496
 1318POPC   C1A15809   9.285  10.046  13.859  0.0379  0.5326  0.1557
 1318POPC   D2A15810   9.205   9.546  13.802  0.0512 -0.1035  0.2126
 1318POPC   C3A15811   9.304   9.248  14.140  0.5344 -0.0924  0.4601
 1318POPC   C4A15812   8.969   8.953  14.394  0.1231  0.3985 -0.0944
 1318POPC   C1B15813   9.748   9.849  14.223  0.2558  0.2303  0.0497
 1318POPC   C2B15814   9.754   9.414  14.253  0.1983 -0.0149  0.0589
 1318POPC   C3B15815   9.783   8.957  14.090  0.0883  0.2060  0.1679
 1318POPC   C4B15816   9.816   8.695  13.693 -0.0241  0.2785 -0.1726
 1319POPC   NC315817  13.584   9.949  11.125 -0.1600 -0.0402 -0.1077
 1319POPC   PO415818  13.726   9.696  10.943  0.1341  0.1114 -0.0066
 1319POPC   GL115819  13.437   9.492  10.711 -0.1353  0.0347  0.0096
 1319POPC   GL215820  13.194   9.631  10.804  0.3849  0.3784  0.0598
 1319POPC   C1A15821  13.386   9.086  10.497 -0.0544 -0.0482 -0.3669
 1319POPC   D2A15822  13.230   8.908  10.074  0.1509 -0.0399 -0.1373
 1319POPC   C3A15823  13.328   8.967   9.583 -0.0477  0.0681  0.1364
 1319POPC   C4A15824  13.498   8.929   9.161 -0.1371 -0.2214  0.0871
 1319POPC   C1B15825  12.964   9.370  10.475 -0.1913  0.0467 -0.1682
 1319POPC   C2B15826  12.792   9.078  10.201 -0.3632  0.0555  0.2180
 1319POPC   C3B15827  12.435   8.893   9.988  0.0104 -0.0305 -0.0369
 1319POPC   C4B15828  12.174   8.896   9.589  0.3298  0.2525  0.2464
 1320POPC   NC315829   3.300   1.514  15.647  0.1935 -0.1743 -0.2072
 1320POPC   PO415830   2.898   1.492  15.631  0.0658 -0.1758  0.0253
 1320POPC   GL115831   2.913   1.667  15.907 -0.1722  0.1010 -0.0147
 1320POPC   GL215832   2.678   1.871  15.798  0.0212  0.2175  0.0184
 1320POPC   C1A15833   3.101   1.480  16.287 -0.0360 -0.0449 -0.3266
 1320POPC   D2A15834   3.208   1.391  16.764 -0.2736 -0.0034 -0.2190
 1320POPC   C3A15835   3.195   1.665  17.055 -0.0928  0.1443  0.0709
 1320POPC   C4A15836   3.233   1.611  17.539 -0.1899 -0.1759  0.1069
 1320POPC   C1B15837   2.770   2.102  16.199 -0.1240  0.0816  0.3918
 1320POPC   C2B15838   2.977   2.325  16.516  0.0661 -0.1494 -0.2356
 1320POPC   C3B15839   3.412   2.367  16.784  0.2821  0.0707  0.1393
 1320POPC   C4B15840   3.332   2.169  17.192  0.4584  0.2474 -0.0598
 1321POPC   NC315841   2.396  15.023  16.850 -0.1358 -0.1099 -0.0338
 1321POPC   PO415842   2.653  14.732  16.832 -0.0173  0.0050 -0.1542
 1321POPC   GL115843   2.622  14.672  17.200  0.1603 -0.4250 -0.1775
 1321POPC   GL215844   2.532  14.851  17.375 -0.0959 -0.3567  0.1246
 1321POPC   C1A15845   2.700  14.426  17.594 -0.0336  0.1064  0.3092
 1321POPC   D2A15846   2.930  14.142  17.834  0.3012 -0.0258  0.0459
 1321POPC   C3A15847   2.850  14.231  18.247  0.0016 -0.0261 -0.0621
 1321POPC   C4A15848   2.885  14.446  18.636  0.0733  0.0947  0.0278
 1321POPC   C1B15849   2.098  14.999  17.350 -0.3405 -0.1430  0.3350
 1321POPC   C2B15850   1.849  14.934  17.739  0.0540 -0.1780  0.1526
 1321POPC   C3B15851   1.872  14.804  18.169 -0.0457  0.1878 -0.0218
 1321POPC   C4B15852   2.142  14.862  18.585 -0.1671 -0.1346  0.2568
 1322POPC   NC315853  12.770  11.609  16.423  0.2657 -0.1455 -0.0972
 1322POPC   PO415854  12.465  11.343  16.510 -0.2217  0.0828 -0.2179
 1322POPC   GL115855  12.445  11.372  16.815 -0.2084  0.0736 -0.1315
 1322POPC   GL215856  12.342  11.112  16.936  0.1238  0.3446  0.0462
 1322POPC   C1A15857  12.440  11.604  17.182 -0.2206  0.0930 -0.1107
 1322POPC   D2A15858  12.532  11.549  17.624 -0.3608 -0.4020  0.0510
 1322POPC   C3A15859  12.393  11.444  18.033  0.2221  0.2181  0.0770
 1322POPC   C4A15860  12.221  11.226  18.408  0.2789 -0.0743 -0.2279
 1322POPC   C1B15861  12.581  11.127  17.276  0.0630  0.2689 -0.4326
 1322POPC   C2B15862  12.555  11.041  17.711 -0.1270  0.1615  0.3506
 1322POPC   C3B15863  12.504  10.808  18.120 -0.0545 -0.0462 -0.0165
 1322POPC   C4B15864  12.806  10.709  18.460  0.1873  0.1343 -0.0073
 1323POPC   NC315865   4.747  10.251  15.789 -0.3750  0.0432  0.2497
 1323POPC   PO415866   4.555   9.994  15.997 -0.0527  0.1615 -0.2714
 1323POPC   GL115867   4.518   9.704  16.345 -0.4460  0.0052 -0.2036
 1323POPC   GL215868   4.708   9.560  16.236  0.1957  0.0153 -0.1060
 1323POPC   C1A15869   4.735   9.684  16.731  0.1909  0.0566 -0.1725
 1323POPC   D2A15870   5.061   9.598  17.019 -0.0073  0.1343 -0.1620
 1323POPC   C3A15871   5.064   9.474  17.453  0.0447  0.2342 -0.4218
 1323POPC   C4A15872   5.251   9.255  17.854 -0.1350  0.0045 -0.0263
 1323POPC   C1B15873   5.071   9.309  16.074  0.3364 -0.3521 -0.0392
 1323POPC   C2B15874   5.446   9.133  16.255 -0.1380 -0.0875 -0.1125
 1323POPC   C3B15875   5.707   8.826  16.487  0.1420  0.0432  0.1030
 1323POPC   C4B15876   5.782   8.431  16.644 -0.0088  0.0549  0.0047
 1324POPC   NC315877   6.648  13.697  16.567  0.0647 -0.0097 -0.1022
 1324POPC   PO415878   6.902  13.984  16.415  0.1776  0.0962 -0.2227
 1324POPC   GL115879   7.090  13.847  16.705  0.2639  0.0289 -0.1357
 1324POPC   GL215880   7.113  14.048  16.945 -0.4431  0.1102  0.0228
 1324POPC   C1A15881   7.009  13.569  17.064 -0.1625 -0.0937  0.0266
 1324POPC   D2A15882   7.062  13.362  17.495 -0.0848  0.1843  0.0668
 1324POPC   C3A15883   7.052  13.115  17.874 -0.0799  0.1285  0.0799
 1324POPC   C4A15884   7.136  12.826  18.262 -0.1946 -0.0946  0.0632
 1324POPC   C1B15885   7.206  13.889  17.356  0.0409 -0.1321 -0.1206
 1324POPC   C2B15886   7.168  13.753  17.825  0.0147 -0.1494 -0.1335
 1324POPC   C3B15887   6.872  13.906  18.284 -0.1792  0.1138  0.4694
 1324POPC   C4B15888   6.513  13.785  18.450 -0.0601  0.1006 -0.0452
 1325POPC   NC315889  11.226  10.482  11.611 -0.1973  0.0586  0.0078
 1325POPC   PO415890  10.846  10.569  11.599  0.1536  0.0850 -0.0595
 1325POPC   GL115891  10.713  10.258  11.679  0.1311 -0.0937 -0.3507
 1325POPC   GL215892  10.848  10.082  11.805  0.0900 -0.1407 -0.2425
 1325POPC   C1A15893  10.674   9.922  11.369 -0.2743 -0.0042 -0.1136
 1325POPC   D2A15894  10.542   9.523  11.314  0.0568 -0.0225  0.0733
 1325POPC   C3A15895  10.249   9.263  11.476  0.0171  0.2017  0.1619
 1325POPC   C4A15896   9.860   9.021  11.541 -0.1291 -0.0994  0.1311
 1325POPC   C1B15897  10.557   9.674  11.812 -0.0892  0.0892  0.0777
 1325POPC   C2B15898  10.413   9.234  11.936 -0.5244 -0.2950 -0.4186
 1325POPC   C3B15899  10.188   8.853  11.872 -0.1072 -0.1246  0.0429
 1325POPC   C4B15900   9.869   8.531  11.792  0.1191  0.0780 -0.0026
 1326POPC   NC315901   3.779  16.910  16.450 -0.1227 -0.3723 -0.4802
 1326POPC   PO415902   3.544  16.918  16.150  0.2609  0.1555  0.0619
 1326POPC   GL115903   3.413  17.167  16.461  0.0615  0.2646  0.1814
 1326POPC   GL215904   3.329  16.993  16.667  0.2341 -0.0658 -0.2110
 1326POPC   C1A15905   3.567  17.421  16.831 -0.0698  0.0097 -0.2240
 1326POPC   D2A15906   3.706  17.771  17.133 -0.0106 -0.1095  0.1407
 1326POPC   C3A15907   3.420  17.868  17.439  0.0904 -0.1157 -0.0423
 1326POPC   C4A15908   2.991  17.997  17.525 -0.1747  0.0162 -0.0107
 1326POPC   C1B15909   3.182  17.172  17.102 -0.3855 -0.2278  0.0465
 1326POPC   C2B15910   3.101  17.439  17.505 -0.3978  0.3291 -0.0088
 1326POPC   C3B15911   3.412  17.585  17.853  0.1709 -0.0270 -0.1301
 1326POPC   C4B15912   3.442  17.996  18.005 -0.0233 -0.1122  0.0185
 1327POPC   NC315913   3.968  31.677  16.095 -0.0193  0.1456 -0.3439
 1327POPC   PO415914   4.227  31.873  16.297  0.0465 -0.4210  0.1174
 1327POPC   GL115915   4.276  31.959  16.680  0.1625  0.0924 -0.2946
 1327POPC   GL215916   4.224  32.251  16.637 -0.1322 -0.2552 -0.0420
 1327POPC   C1A15917   4.649  32.049  16.959  0.0081 -0.0354 -0.0357
 1327POPC   D2A15918   5.082  31.987  17.186 -0.1329  0.2039  0.2689
 1327POPC   C3A15919   5.008  31.741  17.620  0.0136 -0.0957 -0.1341
 1327POPC   C4A15920   4.933  31.576  18.000 -0.2908  0.3909  0.1875
 1327POPC   C1B15921   4.072  32.605  16.898 -0.0533  0.0605  0.3424
 1327POPC   C2B15922   3.990  32.724  17.350 -0.1746 -0.1034 -0.0791
 1327POPC   C3B15923   4.192  33.005  17.623 -0.1936 -0.2969  0.2266
 1327POPC   C4B15924   4.327  33.225  17.984 -0.0215 -0.4543  0.1970
 1328POPC   NC315925   2.088   4.311  14.923 -0.3121 -0.0473 -0.0930
 1328POPC   PO415926   2.231   4.381  15.278  0.0386 -0.2065 -0.0927
 1328POPC   GL115927   2.367   4.393  15.607  0.1290  0.0959  0.0286
 1328POPC   GL215928   2.631   4.546  15.482 -0.2005 -0.1350 -0.0953
 1328POPC   C1A15929   2.258   4.308  16.063 -0.3271 -0.0385  0.0842
 1328POPC   D2A15930   2.246   4.015  16.415  0.1420 -0.0726 -0.4393
 1328POPC   C3A15931   2.359   4.223  16.796 -0.0647  0.1808 -0.1427
 1328POPC   C4A15932   2.224   4.230  17.260  0.0731 -0.1002  0.0139
 1328POPC   C1B15933   2.714   4.554  15.914 -0.1436 -0.1762 -0.0913
 1328POPC   C2B15934   2.659   4.453  16.335  0.2742 -0.3086  0.1825
 1328POPC   C3B15935   2.821   4.429  16.786  0.4273  0.0158  0.1464
 1328POPC   C4B15936   2.761   4.284  17.225 -0.1290 -0.0336 -0.2596
 1329POPC   NC315937   1.781  10.800  16.482  0.0640  0.1743 -0.1301
 1329POPC   PO415938   1.577  10.494  16.359  0.2798  0.2269  0.1024
 1329POPC   GL115939   1.398  10.621  16.746  0.2740  0.1024 -0.4360
 1329POPC   GL215940   1.191  10.839  16.923  0.0457 -0.2529  0.4105
 1329POPC   C1A15941   1.323  10.367  17.149  0.0399 -0.3530  0.1117
 1329POPC   D2A15942   1.552  10.154  17.455  0.1516  0.1239 -0.1734
 1329POPC   C3A15943   1.296   9.942  17.806  0.4553 -0.0984 -0.0791
 1329POPC   C4A15944   1.227   9.921  18.281  0.3418  0.2740  0.0987
 1329POPC   C1B15945   1.006  10.886  17.314  0.0864 -0.0504 -0.0839
 1329POPC   C2B15946   1.188  10.921  17.800  0.0064 -0.0261 -0.1027
 1329POPC   C3B15947   1.472  11.063  18.143 -0.1144  0.1819  0.1543
 1329POPC   C4B15948   1.425  11.147  18.606 -0.0435 -0.1285 -0.0956
 1330POPC   NC315949  10.096  12.119   9.336  0.0656  0.1431  0.5207
 1330POPC   PO415950   9.966  11.825   9.584 -0.1842 -0.0110 -0.1907
 1330POPC   GL115951   9.790  11.484   9.355 -0.0251  0.1846 -0.1158
 1330POPC   GL215952   9.737  11.273   9.471  0.1429 -0.3880 -0.1307
 1330POPC   C1A15953   9.441  11.498   9.059 -0.0484  0.0967  0.1114
 1330POPC   D2A15954   9.179  11.634   8.720 -0.1387  0.0069  0.0656
 1330POPC   C3A15955   9.293  12.054   8.687 -0.2521  0.0110 -0.1204
 1330POPC   C4A15956   8.981  12.417   8.541 -0.1229 -0.2493  0.0237
 1330POPC   C1B15957   9.843  11.215   9.012 -0.1902  0.5995 -0.1791
 1330POPC   C2B15958   9.777  10.996   8.577  0.1003 -0.0408  0.0341
 1330POPC   C3B15959   9.573  10.905   8.176 -0.1230 -0.2878  0.2590
 1330POPC   C4B15960   9.229  10.820   7.933  0.0339 -0.3866  0.0892
 1331POPC   NC315961   9.106  10.518  13.917 -0.0778 -0.0328 -0.2952
 1331POPC   PO415962   8.971  10.826  13.873 -0.0954  0.0201  0.1504
 1331POPC   GL115963   8.867  10.608  13.525  0.2813 -0.2721 -0.1982
 1331POPC   GL215964   8.671  10.356  13.673 -0.0745  0.2588  0.2621
 1331POPC   C1A15965   9.177  10.287  13.439  0.0665  0.1540  0.0870
 1331POPC   D2A15966   9.454   9.895  13.418  0.2488  0.1192  0.5062
 1331POPC   C3A15967   9.652   9.711  13.724 -0.2412 -0.2865 -0.2110
 1331POPC   C4A15968  10.090   9.622  13.861  0.0108 -0.0267 -0.2748
 1331POPC   C1B15969   8.808   9.925  13.521 -0.1210 -0.2564  0.0024
 1331POPC   C2B15970   8.815   9.460  13.441  0.2195  0.0854 -0.2026
 1331POPC   C3B15971   9.038   9.129  13.615  0.1717  0.2153  0.1229
 1331POPC   C4B15972   9.239   8.784  13.836  0.2039 -0.2445 -0.0217
 1332POPC   NC315973  12.711  12.440  16.679  0.1444  0.0284  0.1072
 1332POPC   PO415974  12.774  12.080  16.599  0.3185 -0.0887  0.2009
 1332POPC   GL115975  12.913  12.171  16.970 -0.1111  0.2222  0.2716
 1332POPC   GL215976  12.941  12.474  17.091 -0.0165 -0.1405  0.2296
 1332POPC   C1A15977  12.817  11.982  17.409  0.0472  0.0884 -0.1081
 1332POPC   D2A15978  13.012  11.911  17.756 -0.0534  0.1467 -0.0027
 1332POPC   C3A15979  12.956  11.766  18.208  0.1852  0.3530  0.2634
 1332POPC   C4A15980  12.516  11.741  18.470  0.0547  0.0947 -0.1675
 1332POPC   C1B15981  12.571  12.431  17.294 -0.1735  0.2822 -0.1618
 1332POPC   C2B15982  12.338  12.039  17.459  0.1037 -0.1325 -0.3600
 1332POPC   C3B15983  12.082  11.836  17.831  0.1292  0.0403  0.0566
 1332POPC   C4B15984  11.910  11.622  18.205 -0.1239  0.2025 -0.0929
 1333POPC   NC315985  15.133   3.813  14.740  0.1543  0.0774 -0.2907
 1333POPC   PO415986  14.931   3.721  15.028 -0.1632  0.2318 -0.0358
 1333POPC   GL115987  14.739   3.780  15.259 -0.3090 -0.2774 -0.0482
 1333POPC   GL215988  14.513   3.964  15.104  0.1546 -0.0270  0.2289
 1333POPC   C1A15989  14.346   3.683  15.417 -0.3959  0.0268  0.3048
 1333POPC   D2A15990  13.971   3.703  15.692 -0.0570  0.0824  0.0445
 1333POPC   C3A15991  13.733   3.979  15.970  0.0708 -0.1505 -0.1152
 1333POPC   C4A15992  13.392   3.947  16.250  0.0960 -0.2194  0.2293
 1333POPC   C1B15993  14.399   4.161  15.513  0.0523  0.1235  0.0004
 1333POPC   C2B15994  14.153   4.351  15.880 -0.4053  0.0895 -0.2903
 1333POPC   C3B15995  14.101   4.229  16.319  0.2320 -0.2103  0.2161
 1333POPC   C4B15996  14.167   4.507  16.703  0.3406  0.1510  0.1701
 1334POPC   NC315997   2.066  10.410   8.420 -0.1496 -0.2435 -0.2893
 1334POPC   PO415998   2.429  10.489   8.581  0.0090  0.2829 -0.1176
 1334POPC   GL115999   2.861  10.546   8.358 -0.2569  0.0799  0.5467
 1334POPC   GL216000   2.667  10.444   8.130  0.0263  0.0350  0.0594
 1334POPC   C1A16001   3.116  10.555   7.917 -0.0050  0.1729  0.0304
 1334POPC   D2A16002   3.395  10.589   7.551 -0.2395 -0.1685 -0.0215
 1334POPC   C3A16003   3.270  10.590   7.153  0.0419 -0.1117  0.0719
 1334POPC   C4A16004   3.005  10.598   6.734 -0.1882 -0.1830  0.0077
 1334POPC   C1B16005   2.538  10.287   7.725  0.0589 -0.1371 -0.1989
 1334POPC   C2B16006   2.589  10.155   7.338 -0.1190 -0.0236  0.3286
 1334POPC   C3B16007   2.794  10.059   6.986  0.0450  0.3069  0.0152
 1334POPC   C4B16008   3.253   9.907   6.870 -0.0325  0.0564  0.1396
 1335POPC   NC316009   4.847   6.880  14.871 -0.1777 -0.2481 -0.2048
 1335POPC   PO416010   4.519   6.717  14.699  0.1954 -0.0891 -0.1102
 1335POPC   GL116011   4.580   6.479  15.006  0.1876 -0.0190 -0.1888
 1335POPC   GL216012   4.715   6.185  15.026 -0.0950  0.0189  0.1868
 1335POPC   C1A16013   4.861   6.557  15.365 -0.1505 -0.1527 -0.0089
 1335POPC   D2A16014   5.052   6.697  15.756  0.1961 -0.1354 -0.1446
 1335POPC   C3A16015   4.960   6.486  16.159 -0.0898  0.2785  0.0511
 1335POPC   C4A16016   4.743   6.294  16.556 -0.2931 -0.2949 -0.0604
 1335POPC   C1B16017   5.043   6.073  15.353  0.0763 -0.0016  0.3913
 1335POPC   C2B16018   5.411   6.194  15.488  0.3790 -0.0823 -0.5009
 1335POPC   C3B16019   5.410   6.401  15.917  0.0009 -0.0712  0.4613
 1335POPC   C4B16020   5.519   6.543  16.322 -0.3476 -0.3222  0.2144
 1336POPC   NC316021   7.341   1.557  11.714  0.0066 -0.1497  0.0673
 1336POPC   PO416022   6.977   1.730  11.773  0.2459  0.1035  0.0398
 1336POPC   GL116023   7.205   1.987  11.955 -0.2772  0.0110 -0.3926
 1336POPC   GL216024   7.359   2.129  11.704 -0.0038  0.2815  0.2683
 1336POPC   C1A16025   7.306   2.442  12.104  0.0700 -0.3108 -0.2436
 1336POPC   D2A16026   7.422   2.909  12.058  0.0909 -0.0268 -0.1770
 1336POPC   C3A16027   7.874   3.014  11.995 -0.0331 -0.3063  0.0930
 1336POPC   C4A16028   8.230   3.199  12.040 -0.2586  0.1568  0.2615
 1336POPC   C1B16029   7.604   2.570  11.701  0.2187 -0.1253 -0.1905
 1336POPC   C2B16030   7.580   3.005  11.528 -0.0337  0.1174 -0.0071
 1336POPC   C3B16031   7.662   3.374  11.241 -0.3291  0.1898 -0.1534
 1336POPC   C4B16032   7.931   3.675  11.107 -0.0045  0.1315 -0.1517
 1337POPC   NC316033   5.552  16.577  15.249 -0.3364 -0.0269 -0.1677
 1337POPC   PO416034   5.699  16.295  15.539  0.1310  0.0676  0.0975
 1337POPC   GL116035   5.789  16.496  15.946  0.2977  0.3186  0.1466
 1337POPC   GL216036   5.969  16.380  16.096  0.2393 -0.1940  0.0739
 1337POPC   C1A16037   5.821  16.885  16.158 -0.2467  0.0634  0.3589
 1337POPC   D2A16038   5.926  17.286  16.413 -0.1708 -0.0546 -0.0054
 1337POPC   C3A16039   5.702  17.448  16.780 -0.2499  0.2399 -0.1200
 1337POPC   C4A16040   5.679  17.811  17.003  0.0234  0.2953 -0.1546
 1337POPC   C1B16041   6.158  16.223  16.469 -0.0890  0.0305 -0.3745
 1337POPC   C2B16042   6.329  16.269  16.899  0.0186 -0.2494  0.0731
 1337POPC   C3B16043   6.572  16.360  17.279  0.2740  0.0852  0.4090
 1337POPC   C4B16044   6.896  16.503  17.609  0.0571 -0.1376 -0.2803
 1338POPC   NC316045  14.991   6.767  10.810 -0.2324  0.1362  0.0812
 1338POPC   PO416046  14.643   6.601  10.928 -0.0971  0.0747 -0.2641
 1338POPC   GL116047  14.260   6.519  10.777 -0.0087 -0.0224  0.1865
 1338POPC   GL216048  14.161   6.730  10.623  0.2137 -0.2630 -0.1015
 1338POPC   C1A16049  13.823   6.289  10.823  0.2495  0.1311  0.0955
 1338POPC   D2A16050  13.438   6.017  10.944 -0.0430  0.1723  0.2801
 1338POPC   C3A16051  13.080   6.148  10.731  0.2857  0.2377 -0.0922
 1338POPC   C4A16052  12.754   6.259  10.432  0.0981 -0.0273  0.1525
 1338POPC   C1B16053  14.030   6.645  10.196  0.1818 -0.1699  0.1135
 1338POPC   C2B16054  13.846   6.853   9.790 -0.1864  0.2396 -0.0839
 1338POPC   C3B16055  13.987   7.217   9.555  0.2356  0.2408  0.0927
 1338POPC   C4B16056  14.243   7.421   9.244  0.0292 -0.1966 -0.0970
 1339POPC   NC316057   4.115   6.602  14.954  0.1449 -0.0545  0.2005
 1339POPC   PO416058   4.212   6.202  14.862 -0.5273  0.1221 -0.0314
 1339POPC   GL116059   4.274   5.822  15.004 -0.2286  0.2370  0.1077
 1339POPC   GL216060   4.555   5.737  15.122 -0.0558 -0.0862 -0.2409
 1339POPC   C1A16061   4.237   5.488  15.334 -0.1452 -0.2812 -0.1776
 1339POPC   D2A16062   4.417   5.323  15.736  0.1649 -0.1300  0.2102
 1339POPC   C3A16063   4.312   4.975  15.935  0.1622  0.0167 -0.1892
 1339POPC   C4A16064   4.117   4.578  16.032 -0.0990  0.2101 -0.3195
 1339POPC   C1B16065   4.743   5.659  15.522 -0.2743  0.3514 -0.1885
 1339POPC   C2B16066   5.081   5.450  15.718 -0.4269  0.3614  0.1144
 1339POPC   C3B16067   5.109   5.345  16.171  0.0699 -0.1376 -0.1512
 1339POPC   C4B16068   5.008   5.166  16.522  0.2356 -0.2544  0.2734
 1340POPC   NC316069   9.324  11.318  15.445  0.2252 -0.0644  0.2631
 1340POPC   PO416070   9.452  11.447  15.818 -0.4144 -0.0710 -0.0372
 1340POPC   GL116071   9.462  11.372  16.239 -0.0120  0.0385 -0.1547
 1340POPC   GL216072   9.531  11.620  16.353  0.1518  0.1046  0.0029
 1340POPC   C1A16073   9.827  11.152  16.489 -0.0009 -0.0978 -0.0441
 1340POPC   D2A16074   9.928  11.126  16.905  0.2606  0.0734  0.2668
 1340POPC   C3A16075  10.026  11.194  17.346 -0.1911  0.1907 -0.0503
 1340POPC   C4A16076  10.032  11.040  17.773  0.1469  0.0236  0.2034
 1340POPC   C1B16077   9.358  11.308  16.662  0.2356  0.0237 -0.0708
 1340POPC   C2B16078   9.123  11.049  16.916 -0.1078  0.0765  0.2395
 1340POPC   C3B16079   9.053  11.011  17.343 -0.0920  0.4009 -0.1943
 1340POPC   C4B16080   9.096  10.720  17.760 -0.0985  0.2660  0.0907
 1341POPC   NC316081   1.936   6.229  15.848  0.2104  0.1346  0.1636
 1341POPC   PO416082   2.177   6.053  15.602 -0.2157 -0.1157 -0.0074
 1341POPC   GL116083   2.321   5.968  15.963 -0.1859  0.1502  0.0150
 1341POPC   GL216084   2.125   5.770  16.078  0.1804  0.4244 -0.0557
 1341POPC   C1A16085   2.631   5.955  16.277 -0.1056  0.1651 -0.0995
 1341POPC   D2A16086   2.866   5.890  16.695  0.2248 -0.1922 -0.1107
 1341POPC   C3A16087   2.767   5.514  17.017 -0.1138 -0.1129 -0.0227
 1341POPC   C4A16088   2.604   5.087  17.189 -0.0344 -0.1435  0.1658
 1341POPC   C1B16089   2.015   5.609  16.549 -0.0314 -0.1041 -0.0862
 1341POPC   C2B16090   2.025   5.639  17.054 -0.0159 -0.0177 -0.1654
 1341POPC   C3B16091   2.096   5.663  17.525 -0.0022 -0.0143  0.1950
 1341POPC   C4B16092   2.357   5.730  17.869 -0.1356 -0.0911 -0.2023
 1342POPC   NC316093   9.187   0.805  13.554  0.3495  0.0536 -0.1225
 1342POPC   PO416094   9.540   0.626  13.660 -0.0591 -0.3489  0.1475
 1342POPC   GL116095   9.505   1.015  13.915 -0.1507  0.2298  0.1537
 1342POPC   GL216096   9.798   1.033  14.036  0.0494 -0.0371 -0.2380
 1342POPC   C1A16097   9.410   1.469  13.886  0.2656  0.0758  0.2316
 1342POPC   D2A16098   9.163   1.847  13.918 -0.1433  0.0379 -0.1473
 1342POPC   C3A16099   9.318   2.149  14.146 -0.0909  0.4094  0.0212
 1342POPC   C4A16100   9.164   2.494  14.388  0.1307 -0.3029  0.2869
 1342POPC   C1B16101   9.738   1.457  14.201  0.0556 -0.2773 -0.1440
 1342POPC   C2B16102   9.673   1.870  14.312 -0.0461  0.2265 -0.0552
 1342POPC   C3B16103   9.748   2.356  14.455 -0.2456 -0.0815  0.2275
 1342POPC   C4B16104   9.612   2.814  14.487  0.0893  0.1999 -0.0279
 1343POPC   NC316105   1.445   6.620  15.423  0.1939 -0.0611 -0.1941
 1343POPC   PO416106   1.488   6.240  15.414  0.1485  0.0259 -0.0315
 1343POPC   GL116107   1.469   6.229  15.798 -0.2070  0.1180  0.0105
 1343POPC   GL216108   1.530   5.922  15.846 -0.0702  0.0907 -0.1871
 1343POPC   C1A16109   1.287   6.305  16.194  0.1840  0.4264  0.2837
 1343POPC   D2A16110   1.295   6.212  16.630  0.0689 -0.0865 -0.1875
 1343POPC   C3A16111   1.401   6.013  17.014 -0.0378 -0.0449  0.0666
 1343POPC   C4A16112   1.648   5.953  17.385  0.1543  0.0616  0.0751
 1343POPC   C1B16113   1.680   5.902  16.295 -0.3372  0.0691  0.2251
 1343POPC   C2B16114   1.820   6.068  16.700  0.1678  0.0101  0.0298
 1343POPC   C3B16115   1.997   6.211  17.112 -0.1177 -0.3707  0.0618
 1343POPC   C4B16116   2.202   6.185  17.503 -0.1393  0.0801 -0.0572
 1344POPC   NC316117   8.158  10.672  12.975 -0.2353  0.0810 -0.2386
 1344POPC   PO416118   8.047  10.778  12.632  0.0023  0.0503  0.1423
 1344POPC   GL116119   8.318  10.408  12.547  0.1420  0.1631 -0.2277
 1344POPC   GL216120   8.298  10.206  12.830  0.0622  0.0203  0.0101
 1344POPC   C1A16121   8.469  10.173  12.196 -0.1774  0.0986  0.5778
 1344POPC   D2A16122   8.341   9.753  11.989 -0.4981  0.1320 -0.0144
 1344POPC   C3A16123   8.398   9.285  12.127 -0.2512 -0.1637 -0.0281
 1344POPC   C4A16124   8.559   8.902  12.259 -0.1328 -0.1013 -0.0404
 1344POPC   C1B16125   8.457   9.813  12.885  0.0974 -0.2274 -0.3094
 1344POPC   C2B16126   8.380   9.424  13.093  0.1117 -0.1760  0.1333
 1344POPC   C3B16127   8.569   9.050  13.106 -0.1655  0.2456  0.1184
 1344POPC   C4B16128   8.915   8.695  13.241 -0.1305  0.1568  0.1228
 1345POPC   NC316129  14.804  14.456  20.186  0.4496 -0.1506 -0.0150
 1345POPC   PO416130  15.191  14.649  20.249  0.2639 -0.1945 -0.1117
 1345POPC   GL116131  15.331  14.494  19.957 -0.0832 -0.0935  0.2845
 1345POPC   GL216132  15.369  14.151  19.946 -0.2297  0.1900  0.0644
 1345POPC   C1A16133  15.305  14.515  19.494  0.0381  0.0337  0.3117
 1345POPC   D2A16134  15.477  14.419  19.076 -0.0209 -0.1127  0.0185
 1345POPC   C3A16135  15.794  14.217  18.786 -0.0640  0.2769 -0.1803
 1345POPC   C4A16136  15.999  14.021  18.396 -0.2596 -0.1467  0.3197
 1345POPC   C1B16137  15.479  14.089  19.454  0.0551 -0.0155  0.0191
 1345POPC   C2B16138  15.486  13.810  19.070 -0.2250 -0.0986 -0.0236
 1345POPC   C3B16139  15.867  13.730  18.792 -0.3317 -0.2730  0.5520
 1345POPC   C4B16140  16.109  13.474  18.544 -0.3111 -0.2603  0.1625
 1346POPC   NC316141  13.957  10.536  20.282  0.1371 -0.0001  0.2660
 1346POPC   PO416142  14.174  10.812  20.370 -0.0153 -0.1598 -0.1422
 1346POPC   GL116143  14.270  10.771  19.966 -0.0339 -0.5189 -0.0506
 1346POPC   GL216144  14.111  10.980  19.875  0.1132 -0.1184  0.0639
 1346POPC   C1A16145  14.448  10.756  19.534  0.1859 -0.1618  0.2381
 1346POPC   D2A16146  14.499  10.679  19.054  0.2279 -0.2943  0.2411
 1346POPC   C3A16147  14.340  10.386  18.730 -0.4106 -0.0094  0.0762
 1346POPC   C4A16148  14.211   9.987  18.498  0.0280 -0.0334  0.1318
 1346POPC   C1B16149  13.770  10.884  19.575 -0.0021  0.1609  0.0803
 1346POPC   C2B16150  13.493  10.974  19.213  0.1995  0.3540 -0.2271
 1346POPC   C3B16151  13.639  10.927  18.773  0.2294  0.2897  0.1014
 1346POPC   C4B16152  13.605  11.065  18.325  0.1469 -0.1244 -0.2588
 1347POPC   NC316153   5.363   8.785  19.490 -0.3571  0.1945 -0.3735
 1347POPC   PO416154   5.485   9.167  19.638 -0.1529  0.3032  0.0701
 1347POPC   GL116155   5.337   9.230  19.278 -0.1583 -0.1052  0.0837
 1347POPC   GL216156   5.557   9.455  19.137  0.0695 -0.3369  0.0465
 1347POPC   C1A16157   5.087   9.535  19.008 -0.1151  0.0712 -0.1142
 1347POPC   D2A16158   4.681   9.450  18.867  0.0301 -0.0390  0.0770
 1347POPC   C3A16159   4.607   9.143  18.538  0.0529  0.1715  0.2216
 1347POPC   C4A16160   4.664   8.955  18.079 -0.0882 -0.0732 -0.3476
 1347POPC   C1B16161   5.431   9.833  19.268 -0.1696  0.2288  0.1731
 1347POPC   C2B16162   5.186  10.207  19.050 -0.4004 -0.1042  0.0171
 1347POPC   C3B16163   4.970  10.530  18.778  0.1410 -0.0582  0.0268
 1347POPC   C4B16164   4.723  10.858  18.636 -0.0703 -0.0657  0.2454
 1348POPC   NC316165   9.908  14.923  19.744  0.2143  0.2268 -0.2070
 1348POPC   PO416166   9.701  15.033  20.055 -0.0730  0.0599 -0.2728
 1348POPC   GL116167   9.406  14.865  19.755 -0.1242 -0.0539  0.0235
 1348POPC   GL216168   9.496  14.558  19.807  0.1682 -0.0207  0.0894
 1348POPC   C1A16169   9.389  14.941  19.277 -0.1630  0.2560  0.1614
 1348POPC   D2A16170   9.374  15.171  18.914 -0.0509  0.2236  0.1795
 1348POPC   C3A16171   9.796  15.144  18.667  0.0357  0.0265 -0.2710
 1348POPC   C4A16172  10.165  15.176  18.296  0.1850 -0.1706  0.2754
 1348POPC   C1B16173   9.654  14.371  19.402  0.0216  0.1233 -0.0440
 1348POPC   C2B16174   9.712  14.007  19.089  0.1233 -0.0558  0.0297
 1348POPC   C3B16175   9.948  13.905  18.675 -0.5408 -0.2387  0.2784
 1348POPC   C4B16176  10.370  13.810  18.501 -0.3246  0.2333 -0.0347
 1349POPC   NC316177  13.773  12.506  20.226  0.0062 -0.2554  0.1354
 1349POPC   PO416178  14.030  12.814  20.336  0.1804  0.3054  0.2925
 1349POPC   GL116179  14.288  12.577  20.105  0.0521 -0.3810  0.1988
 1349POPC   GL216180  14.209  12.296  20.164 -0.1716  0.0025 -0.0618
 1349POPC   C1A16181  14.481  12.666  19.715  0.4374  0.0368 -0.2280
 1349POPC   D2A16182  14.575  12.640  19.291 -0.1801 -0.3765  0.0512
 1349POPC   C3A16183  14.251  12.992  19.148 -0.2966 -0.1372 -0.0968
 1349POPC   C4A16184  13.807  13.081  19.033 -0.1545  0.0670 -0.0935
 1349POPC   C1B16185  14.235  12.171  19.707 -0.0922  0.0407  0.1601
 1349POPC   C2B16186  14.283  12.229  19.194 -0.0278 -0.2059 -0.0221
 1349POPC   C3B16187  14.199  11.945  18.819 -0.2599  0.1227 -0.1268
 1349POPC   C4B16188  14.192  11.835  18.404 -0.0653  0.0511 -0.0033
 1350POPC   NC316189  13.916   5.164  18.874 -0.0690 -0.1159 -0.4241
 1350POPC   PO416190  14.213   5.043  19.067 -0.0469  0.2157 -0.0949
 1350POPC   GL116191  14.473   4.868  18.768 -0.1829 -0.3231  0.1460
 1350POPC   GL216192  14.552   5.174  18.704 -0.0426 -0.1913  0.1386
 1350POPC   C1A16193  14.397   4.782  18.290 -0.2845  0.0268  0.0010
 1350POPC   D2A16194  14.099   4.794  17.934 -0.1091  0.1144  0.0038
 1350POPC   C3A16195  14.136   4.758  17.508 -0.1371  0.0047  0.1322
 1350POPC   C4A16196  14.281   4.885  17.112 -0.3002 -0.0324 -0.1427
 1350POPC   C1B16197  14.634   5.443  18.334 -0.1166 -0.2317 -0.1214
 1350POPC   C2B16198  14.607   5.748  18.044 -0.2995  0.1014  0.1547
 1350POPC   C3B16199  14.803   5.726  17.650  0.1418  0.2093 -0.1234
 1350POPC   C4B16200  14.808   6.016  17.329 -0.3333  0.1741 -0.1110
 1351POPC   NC316201  16.390   0.784  20.268  0.4473  0.2147  0.0939
 1351POPC   PO416202  16.086   0.513  20.235 -0.0012 -0.1271 -0.2952
 1351POPC   GL116203  16.014   0.226  19.966  0.2612  0.2742 -0.3660
 1351POPC   GL216204  16.241   0.227  19.797  0.0682 -0.0083 -0.0789
 1351POPC   C1A16205  15.845   0.198  19.491 -0.2832  0.3347 -0.0621
 1351POPC   D2A16206  15.681   0.151  19.021  0.0001  0.2649 -0.0129
 1351POPC   C3A16207  15.809  -0.082  18.636  0.2274 -0.3202  0.0825
 1351POPC   C4A16208  15.872  -0.419  18.348 -0.1859 -0.0127  0.3918
 1351POPC   C1B16209  16.380   0.242  19.378  0.5764 -0.4158  0.2237
 1351POPC   C2B16210  16.594   0.274  19.011  0.1516 -0.0553 -0.1491
 1351POPC   C3B16211  16.693   0.340  18.565 -0.6679  0.0208 -0.1180
 1351POPC   C4B16212  17.139   0.467  18.431  0.2073 -0.2277  0.2682
 1352POPC   NC316213  15.530  12.676  20.141  0.1229  0.3043  0.2459
 1352POPC   PO416214  15.881  12.684  20.288 -0.0996  0.2323 -0.0696
 1352POPC   GL116215  15.989  12.978  20.067 -0.1093 -0.0456  0.5298
 1352POPC   GL216216  15.762  13.251  20.135  0.0934 -0.0829  0.0128
 1352POPC   C1A16217  16.351  13.199  19.816  0.2965 -0.0597 -0.1731
 1352POPC   D2A16218  16.506  13.069  19.441  0.0708  0.5628  0.1530
 1352POPC   C3A16219  16.848  12.960  19.201  0.0326 -0.2075 -0.1056
 1352POPC   C4A16220  17.194  12.722  18.955 -0.0466  0.1485  0.2937
 1352POPC   C1B16221  15.927  13.356  19.718 -0.0622 -0.1880  0.1515
 1352POPC   C2B16222  16.276  13.576  19.487  0.2285  0.0107 -0.0332
 1352POPC   C3B16223  16.672  13.852  19.366  0.3640  0.0332 -0.1102
 1352POPC   C4B16224  16.851  14.189  19.103 -0.0866  0.1903  0.2283
 1353POPC   NC316225   6.839   5.394  17.353 -0.1088  0.0653 -0.0893
 1353POPC   PO416226   7.151   5.132  17.390  0.1947 -0.1160  0.0112
 1353POPC   GL116227   6.815   5.032  17.123 -0.1324 -0.2273 -0.0826
 1353POPC   GL216228   6.653   4.884  17.293  0.1828  0.2210  0.3271
 1353POPC   C1A16229   6.498   5.350  16.963  0.2965 -0.0306 -0.0500
 1353POPC   D2A16230   6.097   5.411  16.736  0.1598  0.1799  0.1921
 1353POPC   C3A16231   5.979   5.626  16.348 -0.1879  0.0308  0.1847
 1353POPC   C4A16232   6.258   5.767  16.108  0.0306  0.4175  0.1837
 1353POPC   C1B16233   6.287   4.908  17.036 -0.2960 -0.1156 -0.0009
 1353POPC   C2B16234   6.078   4.923  16.669  0.1849  0.0305 -0.0924
 1353POPC   C3B16235   5.853   5.094  16.321  0.2600 -0.2124 -0.0243
 1353POPC   C4B16236   5.573   4.864  16.011  0.0980  0.1239 -0.0837
 1354POPC   NC316237   3.691   9.741  20.406 -0.0536  0.0674  0.1910
 1354POPC   PO416238   3.361   9.605  20.582 -0.2836 -0.0759 -0.1099
 1354POPC   GL116239   3.294   9.764  20.182  0.0721  0.4013  0.0265
 1354POPC   GL216240   3.406   9.600  19.987 -0.1278  0.0150  0.1164
 1354POPC   C1A16241   3.118  10.034  19.839 -0.0350  0.2697  0.1267
 1354POPC   D2A16242   3.153  10.411  19.545  0.0515 -0.0834 -0.0865
 1354POPC   C3A16243   3.121  10.503  19.054 -0.1627 -0.3268 -0.1840
 1354POPC   C4A16244   3.250  10.488  18.600  0.3330  0.0372 -0.1231
 1354POPC   C1B16245   3.701   9.787  19.671 -0.2036 -0.0151 -0.1476
 1354POPC   C2B16246   3.853  10.021  19.316  0.1357  0.2837  0.0531
 1354POPC   C3B16247   3.890  10.149  18.903 -0.1919 -0.3573 -0.2108
 1354POPC   C4B16248   3.998   9.967  18.474  0.1103 -0.3638 -0.0557
 1355POPC   NC316249  10.331   9.579  19.416  0.0390  0.0464 -0.0461
 1355POPC   PO416250   9.950   9.427  19.289  0.2006 -0.2225  0.1795
 1355POPC   GL116251  10.106   9.598  18.901 -0.1933 -0.2399 -0.1230
 1355POPC   GL216252  10.136   9.879  19.079  0.1226  0.0886  0.4111
 1355POPC   C1A16253  10.181   9.683  18.472  0.2753  0.1188  0.1314
 1355POPC   D2A16254  10.030   9.818  18.049  0.1341  0.0076  0.1329
 1355POPC   C3A16255  10.252   9.749  17.674  0.2517  0.5528 -0.3288
 1355POPC   C4A16256  10.382   9.491  17.336  0.0473  0.2640  0.1260
 1355POPC   C1B16257  10.406  10.002  18.782 -0.1530  0.1772 -0.0017
 1355POPC   C2B16258  10.802  10.230  18.748 -0.0250 -0.0794  0.1667
 1355POPC   C3B16259  10.842  10.691  18.656 -0.2893  0.1962  0.3172
 1355POPC   C4B16260  11.126  10.902  18.351 -0.3786  0.2797  0.0066
 1356POPC   NC316261   9.451   8.767  19.138  0.0543  0.3840  0.1757
 1356POPC   PO416262   9.806   8.920  19.088  0.1671  0.0570 -0.2990
 1356POPC   GL116263   9.820   9.158  18.849 -0.3422  0.1552 -0.2666
 1356POPC   GL216264  10.147   9.170  18.837  0.2519 -0.0645 -0.0341
 1356POPC   C1A16265   9.627   9.399  18.491  0.0487  0.2240  0.1704
 1356POPC   D2A16266   9.631   9.808  18.444 -0.1259  0.0138  0.0755
 1356POPC   C3A16267   9.455   9.828  18.036 -0.1983  0.1219  0.0136
 1356POPC   C4A16268   9.212   9.731  17.654  0.0827 -0.1358  0.0151
 1356POPC   C1B16269  10.342   9.138  18.432 -0.0141  0.0629 -0.3580
 1356POPC   C2B16270  10.548   9.411  18.117 -0.2611 -0.1252  0.0832
 1356POPC   C3B16271  10.737   9.667  17.889  0.0551 -0.0989  0.2938
 1356POPC   C4B16272  10.906  10.064  17.702 -0.0442 -0.1723 -0.1630
 1357POPC   NC316273   1.364   5.921  19.411  0.0546  0.0026 -0.4835
 1357POPC   PO416274   1.149   5.594  19.487  0.1409  0.0104 -0.2126
 1357POPC   GL116275   1.424   5.505  19.222  0.3274  0.0581  0.0026
 1357POPC   GL216276   1.140   5.496  19.023  0.0128 -0.1567 -0.0057
 1357POPC   C1A16277   1.791   5.737  19.052 -0.1841  0.0833 -0.1506
 1357POPC   D2A16278   2.134   5.697  18.738 -0.2145 -0.4841 -0.0918
 1357POPC   C3A16279   1.999   5.706  18.327  0.1947  0.2742 -0.1933
 1357POPC   C4A16280   1.852   5.445  17.941  0.1252 -0.0814  0.2002
 1357POPC   C1B16281   1.391   5.745  18.724 -0.1729 -0.0267  0.2009
 1357POPC   C2B16282   1.499   5.894  18.312  0.1518 -0.0710  0.1223
 1357POPC   C3B16283   1.464   6.222  17.969 -0.0576  0.0531 -0.2910
 1357POPC   C4B16284   1.717   6.402  17.650 -0.0776  0.2364 -0.0802
 1358POPC   NC316285   8.098   3.109  17.842 -0.1375 -0.0731  0.0236
 1358POPC   PO416286   8.374   2.899  17.954 -0.2571  0.2570 -0.1684
 1358POPC   GL116287   8.439   2.515  17.791 -0.3854  0.3357 -0.2150
 1358POPC   GL216288   8.213   2.449  17.517 -0.0114 -0.2480 -0.4308
 1358POPC   C1A16289   8.765   2.255  17.614  0.2553 -0.0058  0.1370
 1358POPC   D2A16290   8.905   1.926  17.331 -0.2476 -0.0347  0.0409
 1358POPC   C3A16291   8.896   1.500  17.159  0.2090  0.0048 -0.0494
 1358POPC   C4A16292   8.763   1.146  16.885  0.0500  0.3010  0.1497
 1358POPC   C1B16293   8.047   2.301  17.105  0.0272 -0.0448 -0.0294
 1358POPC   C2B16294   8.021   2.087  16.720 -0.0457 -0.0648  0.1570
 1358POPC   C3B16295   8.226   1.843  16.477  0.3787  0.1316  0.3416
 1358POPC   C4B16296   8.647   1.926  16.271 -0.1275  0.0387  0.3283
 1359POPC   NC316297  13.247   5.415  18.716  0.1929  0.3737  0.1336
 1359POPC   PO416298  13.414   5.060  18.865  0.1903  0.2109 -0.1489
 1359POPC   GL116299  13.366   4.921  18.482  0.3520 -0.2590 -0.0795
 1359POPC   GL216300  13.384   4.677  18.408 -0.1274 -0.1964 -0.0384
 1359POPC   C1A16301  13.718   5.094  18.217  0.1274  0.1165 -0.4068
 1359POPC   D2A16302  14.099   5.230  18.333 -0.1211 -0.1933  0.0188
 1359POPC   C3A16303  14.377   5.237  17.963  0.2834  0.0923 -0.0054
 1359POPC   C4A16304  14.772   5.234  17.878  0.0349  0.0392  0.1970
 1359POPC   C1B16305  13.685   4.511  18.067  0.0211  0.2187  0.0917
 1359POPC   C2B16306  13.969   4.311  17.677  0.0805  0.2744  0.0253
 1359POPC   C3B16307  14.116   4.346  17.178 -0.4387  0.1312 -0.0914
 1359POPC   C4B16308  14.175   4.051  16.856 -0.1152 -0.1203  0.2400
 1360POPC   NC316309   8.340  15.245  20.111 -0.0813  0.0458  0.3359
 1360POPC   PO416310   7.960  15.064  20.094  0.1905 -0.5123 -0.0290
 1360POPC   GL116311   7.988  15.344  19.797  0.2268  0.2055 -0.3017
 1360POPC   GL216312   7.742  15.505  19.917 -0.2392 -0.1995  0.1922
 1360POPC   C1A16313   7.969  15.237  19.360  0.0992  0.0991  0.5642
 1360POPC   D2A16314   7.953  14.981  18.939  0.4429  0.2023  0.1604
 1360POPC   C3A16315   7.950  14.621  18.670 -0.0990 -0.2097  0.2797
 1360POPC   C4A16316   7.952  14.111  18.509  0.1838  0.0338  0.0088
 1360POPC   C1B16317   7.732  15.662  19.505 -0.2389 -0.0376 -0.0862
 1360POPC   C2B16318   7.688  15.590  19.070 -0.0542 -0.0595 -0.0478
 1360POPC   C3B16319   7.775  15.345  18.647 -0.1323  0.0008 -0.0244
 1360POPC   C4B16320   7.903  15.117  18.269  0.1574  0.0686 -0.0847
 1361POPC   NC316321  11.299   5.643  15.632 -0.3513  0.2051 -0.0278
 1361POPC   PO416322  11.121   5.383  15.858 -0.0819  0.0427 -0.0098
 1361POPC   GL116323  11.411   5.213  15.911 -0.0272 -0.4915 -0.0406
 1361POPC   GL216324  11.632   5.298  15.803 -0.1819  0.0909  0.3090
 1361POPC   C1A16325  11.484   4.867  15.591 -0.1219 -0.0372  0.0534
 1361POPC   D2A16326  11.614   4.710  15.190  0.1933  0.1390  0.0783
 1361POPC   C3A16327  11.280   4.530  14.879  0.2707 -0.0310 -0.2851
 1361POPC   C4A16328  10.994   4.734  14.517 -0.1508  0.3688 -0.0973
 1361POPC   C1B16329  11.853   5.595  15.463 -0.1844 -0.1238  0.0703
 1361POPC   C2B16330  12.242   5.467  15.232  0.3817  0.0404 -0.0260
 1361POPC   C3B16331  12.483   5.373  14.846  0.1131 -0.0640  0.1199
 1361POPC   C4B16332  12.481   5.107  14.469  0.1006 -0.2031  0.2334
 1362POPC   NC316333   3.894  11.485  20.753  0.0373  0.4661 -0.1978
 1362POPC   PO416334   3.800  11.879  20.703  0.0592  0.0231 -0.0677
 1362POPC   GL116335   3.912  11.943  20.284 -0.1159  0.0900 -0.2437
 1362POPC   GL216336   4.132  11.988  20.055 -0.1330  0.0279  0.3313
 1362POPC   C1A16337   3.700  11.944  19.874 -0.1872 -0.0834 -0.1238
 1362POPC   D2A16338   3.376  12.127  19.655 -0.2374  0.2547 -0.1418
 1362POPC   C3A16339   3.082  12.238  19.274 -0.1844 -0.1130 -0.2209
 1362POPC   C4A16340   2.733  12.036  19.056 -0.0924  0.2069  0.3011
 1362POPC   C1B16341   4.279  12.058  19.604 -0.0767 -0.0888 -0.1342
 1362POPC   C2B16342   4.106  11.991  19.196  0.0308  0.1393 -0.2303
 1362POPC   C3B16343   3.860  11.677  18.989 -0.1956 -0.0101  0.0834
 1362POPC   C4B16344   3.551  11.389  18.893 -0.0282 -0.0116  0.1114
 1363POPC   NC316345  14.559   1.076  20.468 -0.2241  0.1235 -0.2170
 1363POPC   PO416346  14.604   1.113  20.052  0.0424 -0.3189 -0.0352
 1363POPC   GL116347  14.616   1.043  19.632 -0.0136  0.1145 -0.1309
 1363POPC   GL216348  14.589   1.361  19.626  0.1263 -0.2552 -0.1468
 1363POPC   C1A16349  14.631   0.849  19.251  0.0532  0.1646 -0.3085
 1363POPC   D2A16350  14.722   0.693  18.838 -0.0086 -0.2897 -0.0910
 1363POPC   C3A16351  14.655   0.652  18.360 -0.0921 -0.2306  0.1193
 1363POPC   C4A16352  14.473   0.413  18.081 -0.2212 -0.1158  0.0397
 1363POPC   C1B16353  14.922   1.251  19.373 -0.0293  0.4559  0.0522
 1363POPC   C2B16354  15.330   1.328  19.180  0.1001 -0.3348  0.1858
 1363POPC   C3B16355  15.630   1.609  18.930 -0.0365 -0.0191  0.0565
 1363POPC   C4B16356  15.931   1.830  18.711 -0.2282  0.2277  0.0499
 1364POPC   NC316357   4.305   9.074  20.662  0.0407 -0.1057  0.1649
 1364POPC   PO416358   4.310   9.474  20.643  0.1790  0.4254  0.1049
 1364POPC   GL116359   4.109   9.608  20.302 -0.3140 -0.1396 -0.0740
 1364POPC   GL216360   3.994   9.470  20.050 -0.1400  0.2303  0.0515
 1364POPC   C1A16361   4.124   9.949  19.968 -0.0512  0.1897 -0.3332
 1364POPC   D2A16362   4.406  10.090  19.623 -0.2061 -0.0357 -0.1514
 1364POPC   C3A16363   4.411   9.867  19.282  0.4138 -0.1191  0.0954
 1364POPC   C4A16364   4.322   9.778  18.860  0.0960 -0.1589  0.1687
 1364POPC   C1B16365   4.088   9.560  19.591 -0.3253 -0.2632  0.0970
 1364POPC   C2B16366   4.052   9.523  19.159  0.1620  0.0032  0.1868
 1364POPC   C3B16367   3.734   9.671  18.894  0.0928 -0.1230 -0.1116
 1364POPC   C4B16368   3.693   9.542  18.472  0.0253  0.0100  0.1072
 1365POPC   NC316369  10.662   6.000  12.562  0.0736  0.0645 -0.0010
 1365POPC   PO416370  10.952   6.218  12.364  0.0014 -0.0800 -0.1588
 1365POPC   GL116371  11.267   6.338  12.528  0.0443  0.1814 -0.0623
 1365POPC   GL216372  11.400   6.587  12.339 -0.0055 -0.0486 -0.0007
 1365POPC   C1A16373  11.509   6.368  12.947 -0.1719 -0.2288 -0.1267
 1365POPC   D2A16374  11.748   6.062  13.195 -0.0388  0.0890  0.0931
 1365POPC   C3A16375  11.893   6.086  13.651 -0.1147 -0.1950 -0.0798
 1365POPC   C4A16376  11.928   6.332  14.067 -0.3318  0.2667 -0.2838
 1365POPC   C1B16377  11.565   6.938  12.058  0.0209  0.0641  0.1263
 1365POPC   C2B16378  11.727   7.071  11.655 -0.1601 -0.0641  0.0744
 1365POPC   C3B16379  11.862   6.900  11.279 -0.0246 -0.3025 -0.0576
 1365POPC   C4B16380  12.289   6.709  11.145 -0.1371  0.1440 -0.0214
 1366POPC   NC316381   9.722   5.236  13.293  0.1587  0.0895  0.1291
 1366POPC   PO416382   9.766   4.849  13.399 -0.2355 -0.0223  0.2062
 1366POPC   GL116383  10.206   4.690  13.374  0.2157  0.1122  0.0864
 1366POPC   GL216384  10.312   4.572  13.638 -0.1715 -0.3680 -0.0419
 1366POPC   C1A16385  10.399   4.255  13.296  0.2259 -0.0301  0.4427
 1366POPC   D2A16386  10.582   3.935  13.438 -0.0140 -0.1216 -0.1956
 1366POPC   C3A16387  10.986   3.658  13.280  0.2446  0.0661 -0.0656
 1366POPC   C4A16388  11.382   3.374  13.443 -0.0622 -0.2228  0.2043
 1366POPC   C1B16389  10.688   4.369  13.707 -0.3874  0.2209  0.1802
 1366POPC   C2B16390  11.035   4.094  13.582  0.1032  0.0965 -0.0706
 1366POPC   C3B16391  11.445   3.892  13.445 -0.0283 -0.1843 -0.0711
 1366POPC   C4B16392  11.614   3.577  13.112 -0.2203  0.0254  0.0272
 1367POPC   NC316393  15.207   4.804  19.608 -0.1757  0.1049  0.0646
 1367POPC   PO416394  15.357   5.167  19.539  0.0274 -0.1287  0.1641
 1367POPC   GL116395  15.352   5.163  19.126  0.0407  0.2574  0.1719
 1367POPC   GL216396  15.146   4.935  19.069  0.1047 -0.3184 -0.1840
 1367POPC   C1A16397  15.516   5.457  18.860  0.1203  0.2153  0.0852
 1367POPC   D2A16398  15.497   5.814  18.560  0.0764  0.0631  0.0897
 1367POPC   C3A16399  15.537   5.889  18.138  0.2117  0.1333  0.4215
 1367POPC   C4A16400  15.729   5.908  17.712  0.0711 -0.1194 -0.0496
 1367POPC   C1B16401  15.441   5.034  18.709 -0.1498  0.1553  0.1279
 1367POPC   C2B16402  15.619   5.349  18.370 -0.1786  0.1890 -0.0848
 1367POPC   C3B16403  15.662   5.463  17.925 -0.0881 -0.1707  0.0732
 1367POPC   C4B16404  15.738   5.256  17.488  0.1197  0.0403  0.0027
 1368POPC   NC316405   3.796   1.750  19.963 -0.3089  0.0429  0.3268
 1368POPC   PO416406   3.435   1.885  19.885 -0.1671 -0.0547 -0.2421
 1368POPC   GL116407   3.362   1.638  19.495 -0.0986 -0.1352  0.0864
 1368POPC   GL216408   3.122   1.510  19.368 -0.1648  0.1003  0.0109
 1368POPC   C1A16409   3.531   1.363  19.101 -0.0307  0.0326 -0.4144
 1368POPC   D2A16410   3.352   1.464  18.757  0.0807  0.2471  0.0788
 1368POPC   C3A16411   3.400   1.444  18.306 -0.2225  0.0677 -0.1500
 1368POPC   C4A16412   3.584   1.606  17.902  0.1178 -0.0767 -0.1480
 1368POPC   C1B16413   2.901   1.419  19.002  0.1543 -0.1042  0.1242
 1368POPC   C2B16414   2.507   1.393  18.734 -0.1426 -0.2625  0.3313
 1368POPC   C3B16415   2.222   1.107  18.591  0.0528  0.2947 -0.1191
 1368POPC   C4B16416   1.983   0.814  18.393 -0.1515 -0.1881 -0.0517
 1369POPC   NC316417   8.032   2.497  18.020  0.0698 -0.1095  0.4833
 1369POPC   PO416418   7.825   2.682  17.707 -0.2392 -0.1664 -0.3207
 1369POPC   GL116419   7.782   2.272  17.526 -0.2553 -0.2021 -0.0413
 1369POPC   GL216420   7.669   2.068  17.716 -0.0802  0.2800  0.0515
 1369POPC   C1A16421   7.482   2.228  17.193 -0.2950  0.0102 -0.0908
 1369POPC   D2A16422   7.068   2.378  16.911 -0.2991 -0.1247  0.2152
 1369POPC   C3A16423   6.903   2.087  16.565 -0.1933 -0.1449 -0.0287
 1369POPC   C4A16424   6.718   1.898  16.302 -0.0384  0.1550  0.0926
 1369POPC   C1B16425   7.371   1.829  17.456 -0.1189 -0.2468  0.1250
 1369POPC   C2B16426   7.240   1.667  16.973 -0.1056  0.1817  0.1957
 1369POPC   C3B16427   7.057   1.589  16.575  0.0132 -0.0534 -0.2292
 1369POPC   C4B16428   6.958   1.228  16.374 -0.1854 -0.0434  0.1333
 1370POPC   NC316429   8.366   3.799  16.319  0.0208 -0.0582  0.0878
 1370POPC   PO416430   8.570   4.137  16.244  0.1297  0.0941 -0.0844
 1370POPC   GL116431   8.720   3.917  15.890 -0.0988 -0.4276  0.1531
 1370POPC   GL216432   9.000   3.910  15.876 -0.1137  0.1930 -0.2427
 1370POPC   C1A16433   8.676   3.833  15.407 -0.1243 -0.5515 -0.2441
 1370POPC   D2A16434   8.583   3.676  14.995  0.2614  0.3952 -0.0295
 1370POPC   C3A16435   8.139   3.627  15.017  0.2830 -0.1454  0.6280
 1370POPC   C4A16436   7.704   3.645  14.784  0.0260  0.0706 -0.5184
 1370POPC   C1B16437   8.896   3.511  15.678  0.0413  0.0108 -0.0208
 1370POPC   C2B16438   9.016   3.134  15.414 -0.1694 -0.0177  0.0267
 1370POPC   C3B16439   9.022   2.732  15.150  0.0448 -0.1562 -0.2102
 1370POPC   C4B16440   8.991   2.406  14.846 -0.3372  0.0625  0.1758
 1371POPC   NC316441   2.446   5.471  19.570 -0.2059 -0.2613 -0.1204
 1371POPC   PO416442   2.736   5.599  19.366  0.1570  0.2886 -0.3740
 1371POPC   GL116443   2.851   5.903  19.052 -0.1239 -0.1314 -0.2573
 1371POPC   GL216444   2.540   6.004  19.126 -0.0839 -0.0195  0.3378
 1371POPC   C1A16445   2.880   6.155  18.684  0.0179  0.2151  0.0297
 1371POPC   D2A16446   2.793   6.570  18.463  0.2926 -0.1104 -0.1004
 1371POPC   C3A16447   2.929   6.705  18.041 -0.0873 -0.1162  0.2622
 1371POPC   C4A16448   3.141   6.831  17.655 -0.2600 -0.1339 -0.3334
 1371POPC   C1B16449   2.604   5.684  18.767  0.1307 -0.3269  0.1158
 1371POPC   C2B16450   2.346   5.371  18.502 -0.1453 -0.1418  0.5067
 1371POPC   C3B16451   1.976   5.156  18.329 -0.0742 -0.1327  0.0867
 1371POPC   C4B16452   1.658   4.865  18.470  0.2533 -0.2659  0.1849
 1372POPC   NC316453   4.412   7.366  19.629  0.2190  0.2287  0.0303
 1372POPC   PO416454   4.355   7.753  19.813 -0.0253 -0.4016 -0.2496
 1372POPC   GL116455   4.073   7.770  19.535 -0.2877 -0.0924 -0.1354
 1372POPC   GL216456   4.133   7.810  19.258 -0.3489 -0.0970 -0.0391
 1372POPC   C1A16457   3.783   7.493  19.352 -0.1609 -0.1286  0.1650
 1372POPC   D2A16458   3.364   7.463  19.465  0.0187 -0.1037  0.0191
 1372POPC   C3A16459   3.118   7.581  19.111  0.1493  0.1181 -0.2402
 1372POPC   C4A16460   3.014   7.666  18.696 -0.0094  0.2838  0.0117
 1372POPC   C1B16461   4.070   8.058  18.861 -0.0034  0.1109  0.0829
 1372POPC   C2B16462   3.815   8.005  18.502 -0.2161 -0.1642 -0.0007
 1372POPC   C3B16463   3.463   7.964  18.170 -0.3150 -0.1004  0.1646
 1372POPC   C4B16464   3.039   7.842  18.204  0.1492  0.0077 -0.0646
 1373POPC   NC316465   9.100   3.888  13.650  0.1831 -0.1692 -0.2744
 1373POPC   PO416466   9.189   4.155  13.394 -0.0351 -0.1765 -0.0184
 1373POPC   GL116467   8.768   4.051  13.334  0.0618  0.1676  0.0350
 1373POPC   GL216468   8.712   4.334  13.266 -0.2918  0.1099  0.2383
 1373POPC   C1A16469   8.339   3.834  13.276  0.2197 -0.3232 -0.0991
 1373POPC   D2A16470   8.038   3.740  13.647  0.2405 -0.2571  0.0344
 1373POPC   C3A16471   7.655   3.867  13.499  0.4484 -0.1172  0.1544
 1373POPC   C4A16472   7.219   4.015  13.416  0.3941 -0.0253 -0.0848
 1373POPC   C1B16473   8.286   4.432  13.156  0.1084  0.0352  0.1548
 1373POPC   C2B16474   7.947   4.230  13.301 -0.1779 -0.2098 -0.0266
 1373POPC   C3B16475   7.627   4.047  13.014  0.1217  0.0827  0.2263
 1373POPC   C4B16476   7.481   3.749  12.675 -0.3494 -0.1464  0.3878
 1374POPC   NC316477  10.355  15.120  20.395  0.0974 -0.0822  0.1270
 1374POPC   PO416478  10.340  15.164  20.032 -0.3000 -0.0013  0.1891
 1374POPC   GL116479  10.422  15.137  19.568 -0.1404 -0.1167  0.0981
 1374POPC   GL216480  10.247  15.337  19.430 -0.0006  0.1075  0.1519
 1374POPC   C1A16481  10.646  14.759  19.408 -0.1001  0.1340  0.1123
 1374POPC   D2A16482  10.976  14.552  19.203  0.0084  0.1679 -0.0400
 1374POPC   C3A16483  11.050  14.661  18.807 -0.2441 -0.2181 -0.0850
 1374POPC   C4A16484  11.301  14.459  18.453 -0.2705 -0.1008  0.0578
 1374POPC   C1B16485   9.847  15.140  19.183  0.1257 -0.2376  0.1376
 1374POPC   C2B16486   9.765  14.778  18.990 -0.3186  0.1222 -0.2201
 1374POPC   C3B16487   9.739  14.398  18.714  0.1746  0.1813 -0.0154
 1374POPC   C4B16488   9.452  14.042  18.601 -0.2914 -0.0732 -0.0094
 1375POPC   NC316489   6.960   6.203  17.926 -0.1208 -0.2180 -0.1620
 1375POPC   PO416490   7.113   6.573  17.959 -0.2108  0.1491 -0.3469
 1375POPC   GL116491   7.019   6.871  17.731 -0.0804  0.2231  0.1764
 1375POPC   GL216492   6.812   6.725  17.493  0.0750 -0.3566  0.1401
 1375POPC   C1A16493   6.984   7.211  17.378  0.0486  0.0243  0.0897
 1375POPC   D2A16494   6.920   7.553  17.011  0.1346  0.1126  0.2199
 1375POPC   C3A16495   6.548   7.742  16.886  0.2361 -0.0330 -0.0778
 1375POPC   C4A16496   6.192   7.520  16.648 -0.1838 -0.1836 -0.1678
 1375POPC   C1B16497   6.605   6.850  17.117 -0.1030  0.3011  0.2969
 1375POPC   C2B16498   6.567   7.237  16.884 -0.1750  0.1225 -0.2430
 1375POPC   C3B16499   6.649   7.460  16.442 -0.0248 -0.0498 -0.3152
 1375POPC   C4B16500   6.642   7.685  15.985 -0.0094 -0.1495 -0.3558
 1376POPC   NC316501  13.289  15.778  20.481  0.1273  0.2508 -0.0852
 1376POPC   PO416502  13.433  15.407  20.382 -0.2855  0.0411 -0.1254
 1376POPC   GL116503  13.327  15.045  20.096  0.1824 -0.1308  0.3773
 1376POPC   GL216504  13.228  14.740  20.034  0.0134 -0.1879  0.1659
 1376POPC   C1A16505  13.177  15.206  19.663  0.0072  0.0338  0.2291
 1376POPC   D2A16506  13.102  15.015  19.261  0.1534  0.1410 -0.1355
 1376POPC   C3A16507  13.432  15.206  18.960  0.1230  0.0579  0.2352
 1376POPC   C4A16508  13.820  15.351  18.845  0.1099  0.0381  0.0849
 1376POPC   C1B16509  13.406  14.733  19.574  0.1246 -0.0319 -0.2479
 1376POPC   C2B16510  13.383  14.656  19.104  0.2394 -0.0788  0.4031
 1376POPC   C3B16511  13.616  14.735  18.695  0.2019  0.3401  0.0652
 1376POPC   C4B16512  13.541  14.475  18.331 -0.0838  0.2067  0.2961
 1377POPC   NC316513   9.867   8.815  18.555 -0.0800  0.0332 -0.0512
 1377POPC   PO416514   9.836   8.438  18.366  0.0130 -0.0150  0.2798
 1377POPC   GL116515   9.911   8.607  18.069  0.0179 -0.1023 -0.1177
 1377POPC   GL216516   9.683   8.643  17.844  0.0931 -0.2078  0.0586
 1377POPC   C1A16517  10.237   8.672  17.748 -0.0301  0.0513 -0.2592
 1377POPC   D2A16518  10.567   8.554  17.455 -0.2562  0.0296  0.1927
 1377POPC   C3A16519  10.660   8.934  17.367  0.0622  0.2002 -0.3015
 1377POPC   C4A16520  11.018   9.229  17.338  0.2037  0.0365  0.2527
 1377POPC   C1B16521   9.634   9.086  17.745 -0.0226  0.1891  0.0461
 1377POPC   C2B16522   9.697   9.526  17.692  0.0526  0.3774 -0.2184
 1377POPC   C3B16523   9.779   9.996  17.644 -0.2215  0.2039 -0.0946
 1377POPC   C4B16524   9.870  10.481  17.574  0.2037 -0.0961 -0.1667
 1378POPC   NC316525  13.027   2.759  19.277 -0.2253 -0.2286 -0.1641
 1378POPC   PO416526  12.925   3.124  19.141  0.2122 -0.0314  0.0506
 1378POPC   GL116527  13.054   3.203  18.699  0.0523 -0.2096  0.1129
 1378POPC   GL216528  13.120   3.464  18.723  0.0120  0.0454 -0.3502
 1378POPC   C1A16529  13.075   3.228  18.271 -0.2299  0.1772  0.2630
 1378POPC   D2A16530  12.988   3.451  17.899  0.0474  0.3812  0.3229
 1378POPC   C3A16531  12.801   3.180  17.575 -0.1960 -0.2478  0.4361
 1378POPC   C4A16532  12.937   2.767  17.417  0.0302  0.1424 -0.0268
 1378POPC   C1B16533  13.417   3.590  18.419 -0.0650 -0.0730 -0.1207
 1378POPC   C2B16534  13.675   3.433  18.018  0.3219 -0.2878  0.0781
 1378POPC   C3B16535  13.865   3.269  17.650  0.3564 -0.0340 -0.2858
 1378POPC   C4B16536  13.825   3.130  17.179 -0.1002  0.2804 -0.3480
 1379POPC   NC316537   4.307  15.303  20.739  0.1995  0.0738  0.2805
 1379POPC   PO416538   4.210  14.920  20.841  0.2256  0.0278  0.3046
 1379POPC   GL116539   4.171  14.938  20.440  0.0501  0.0619 -0.1827
 1379POPC   GL216540   3.868  15.044  20.492 -0.0360  0.1733 -0.1857
 1379POPC   C1A16541   4.247  14.648  20.075  0.0893 -0.3673  0.2514
 1379POPC   D2A16542   4.169  14.503  19.680  0.0428 -0.1301  0.1232
 1379POPC   C3A16543   4.231  14.214  19.292  0.0296 -0.2320 -0.3839
 1379POPC   C4A16544   4.526  14.272  18.935  0.1960 -0.0544 -0.3511
 1379POPC   C1B16545   3.751  14.636  20.304 -0.3388 -0.1232  0.1007
 1379POPC   C2B16546   3.761  14.321  19.999  0.0730 -0.0003  0.1002
 1379POPC   C3B16547   3.909  14.002  19.690  0.1380  0.0984 -0.1063
 1379POPC   C4B16548   4.059  13.639  19.459  0.1642  0.1552 -0.0978
 1380POPC   NC316549   6.346  14.955  20.646 -0.2109  0.0311 -0.2607
 1380POPC   PO416550   6.203  15.354  20.581 -0.0901 -0.0114  0.0263
 1380POPC   GL116551   6.312  15.307  20.119 -0.1082  0.2179 -0.2439
 1380POPC   GL216552   6.466  15.080  20.007  0.1854  0.2764 -0.2008
 1380POPC   C1A16553   6.137  15.413  19.663  0.2533  0.0250 -0.3496
 1380POPC   D2A16554   5.782  15.422  19.356  0.0577  0.1065  0.1763
 1380POPC   C3A16555   5.717  15.888  19.315 -0.3754 -0.0432 -0.1641
 1380POPC   C4A16556   5.637  16.365  19.421  0.2156  0.1140  0.1157
 1380POPC   C1B16557   6.490  15.021  19.562  0.2170 -0.0193  0.1433
 1380POPC   C2B16558   6.610  14.902  19.179 -0.0674 -0.0412  0.2761
 1380POPC   C3B16559   6.412  14.859  18.708 -0.3788 -0.3876  0.1308
 1380POPC   C4B16560   6.273  14.726  18.328 -0.1718 -0.1594 -0.1440
 1381POPC   NC316561   6.046   0.931  18.903 -0.2285  0.0118 -0.0569
 1381POPC   PO416562   6.113   0.897  19.291 -0.2771  0.2620  0.0414
 1381POPC   GL116563   6.446   0.816  19.064  0.2003 -0.2223 -0.0525
 1381POPC   GL216564   6.621   0.892  19.286  0.0861  0.0241  0.0281
 1381POPC   C1A16565   6.455   0.801  18.599  0.0645 -0.0860 -0.1847
 1381POPC   D2A16566   6.531   0.578  18.165  0.1191 -0.0772  0.0772
 1381POPC   C3A16567   6.851   0.235  18.094  0.1528  0.1061  0.0087
 1381POPC   C4A16568   7.067  -0.179  18.020  0.2418 -0.0292  0.0293
 1381POPC   C1B16569   6.814   1.072  18.888 -0.1398  0.1259  0.3489
 1381POPC   C2B16570   7.215   1.171  18.587 -0.0787 -0.1781 -0.0800
 1381POPC   C3B16571   7.491   1.059  18.237  0.0289 -0.1177 -0.0442
 1381POPC   C4B16572   7.709   0.770  17.960 -0.0423  0.0700  0.2029
 1382POPC   NC316573   9.375  13.879  20.548  0.5430  0.1697  0.0358
 1382POPC   PO416574   9.158  13.561  20.432 -0.2696 -0.1394  0.2345
 1382POPC   GL116575   9.469  13.621  20.160 -0.0273 -0.1764  0.0838
 1382POPC   GL216576   9.437  13.634  19.840  0.1050 -0.2006  0.0888
 1382POPC   C1A16577   9.704  13.231  20.070  0.2310  0.2963  0.0373
 1382POPC   D2A16578  10.096  12.989  19.973 -0.0088 -0.2025 -0.0307
 1382POPC   C3A16579  10.499  13.119  19.771  0.0615 -0.0392 -0.0631
 1382POPC   C4A16580  10.811  13.406  19.624 -0.0867 -0.0124  0.0919
 1382POPC   C1B16581   9.426  13.670  19.372 -0.0459  0.1940 -0.1751
 1382POPC   C2B16582   9.292  13.658  18.961  0.0278  0.1838 -0.0391
 1382POPC   C3B16583   9.104  13.687  18.520 -0.0632  0.4969 -0.0865
 1382POPC   C4B16584   9.241  13.825  18.145  0.1340  0.1074  0.0793
 1383POPC   NC316585  10.777   6.857  16.959  0.2241  0.0351  0.3523
 1383POPC   PO416586  10.372   6.892  16.885 -0.0429  0.1390  0.1272
 1383POPC   GL116587  10.599   7.220  16.701 -0.1956 -0.0407  0.2622
 1383POPC   GL216588  10.595   7.348  16.964  0.2677  0.0785  0.2426
 1383POPC   C1A16589  10.802   7.485  16.383  0.1486  0.0260  0.1020
 1383POPC   D2A16590  10.776   7.946  16.576  0.0012  0.1681  0.2115
 1383POPC   C3A16591  10.999   8.291  16.462  0.0289 -0.2120  0.4926
 1383POPC   C4A16592  11.347   8.388  16.744 -0.1119 -0.1639  0.0715
 1383POPC   C1B16593  10.948   7.572  16.921  0.0008  0.2517 -0.0717
 1383POPC   C2B16594  11.275   7.911  16.791  0.1459 -0.0033 -0.1337
 1383POPC   C3B16595  11.452   8.074  16.427 -0.1064 -0.1711  0.2177
 1383POPC   C4B16596  11.752   7.873  16.157 -0.0086  0.2469 -0.1859
 1384POPC   NC316597  13.215   0.853  19.653 -0.1353 -0.2483  0.1261
 1384POPC   PO416598  12.914   0.596  19.635 -0.1434 -0.1105 -0.0052
 1384POPC   GL116599  12.899   0.639  19.246 -0.3073  0.1863 -0.0578
 1384POPC   GL216600  13.019   0.862  19.150 -0.5225  0.1867  0.0308
 1384POPC   C1A16601  12.619   0.797  18.883  0.0172  0.1668  0.1214
 1384POPC   D2A16602  12.321   0.478  18.661  0.0139 -0.1890  0.2942
 1384POPC   C3A16603  12.524   0.283  18.271  0.1179 -0.0643  0.4614
 1384POPC   C4A16604  12.812  -0.067  18.086 -0.2207 -0.1698 -0.0498
 1384POPC   C1B16605  13.074   0.801  18.696 -0.0935 -0.0240  0.2628
 1384POPC   C2B16606  13.468   0.642  18.450 -0.3308  0.3371 -0.0022
 1384POPC   C3B16607  13.830   0.629  18.144  0.2641 -0.4180  0.2882
 1384POPC   C4B16608  14.146   0.923  17.927  0.0314  0.2366 -0.1758
 1385POPC   NC316609  11.617   2.411  18.421 -0.1185  0.0264  0.0540
 1385POPC   PO416610  12.025   2.385  18.396  0.0599 -0.0221 -0.0559
 1385POPC   GL116611  11.876   2.224  18.055  0.3699 -0.0991  0.1216
 1385POPC   GL216612  11.559   2.277  17.962 -0.0785  0.0568 -0.1433
 1385POPC   C1A16613  12.148   1.865  17.853  0.0269  0.0448 -0.0913
 1385POPC   D2A16614  12.135   1.415  17.673 -0.0206  0.3423 -0.0461
 1385POPC   C3A16615  11.988   0.962  17.896  0.1145 -0.0033 -0.2009
 1385POPC   C4A16616  11.646   0.747  18.070  0.4251 -0.0759  0.0349
 1385POPC   C1B16617  11.660   1.960  17.641 -0.1102  0.2965  0.0367
 1385POPC   C2B16618  11.866   1.700  17.317 -0.1390 -0.2418  0.2299
 1385POPC   C3B16619  11.930   1.841  16.889  0.0048  0.1811  0.1252
 1385POPC   C4B16620  11.810   2.141  16.595  0.1205  0.0248 -0.1960
 1386POPC   NC316621  14.608   4.742  19.187  0.2917  0.0363  0.0239
 1386POPC   PO416622  14.563   4.344  19.284 -0.1729 -0.1880 -0.1442
 1386POPC   GL116623  14.755   4.377  18.955 -0.2312  0.0834  0.1666
 1386POPC   GL216624  14.872   4.063  18.872  0.0646 -0.1769 -0.0737
 1386POPC   C1A16625  14.954   4.660  18.670  0.0274 -0.2184  0.0540
 1386POPC   D2A16626  15.009   4.915  18.286 -0.1127  0.1503  0.1915
 1386POPC   C3A16627  15.360   5.047  18.082  0.0857 -0.2000 -0.0755
 1386POPC   C4A16628  15.785   4.908  17.842  0.1738  0.0228  0.3533
 1386POPC   C1B16629  15.128   3.724  18.662  0.1956 -0.2160  0.3147
 1386POPC   C2B16630  15.297   3.668  18.240 -0.0052 -0.0182  0.0223
 1386POPC   C3B16631  15.463   3.500  17.839  0.1773  0.2955 -0.1770
 1386POPC   C4B16632  15.481   3.255  17.412  0.0250 -0.0377  0.1317
 1387POPC   NC316633   9.284   1.939  18.449 -0.0572 -0.1523  0.3270
 1387POPC   PO416634   9.347   1.781  18.784  0.0603  0.0291  0.1008
 1387POPC   GL116635   9.369   1.480  18.483  0.2767  0.1425 -0.0382
 1387POPC   GL216636   9.059   1.495  18.431  0.1168 -0.3632 -0.1957
 1387POPC   C1A16637   9.631   1.202  18.256 -0.0106  0.1059 -0.1097
 1387POPC   D2A16638   9.947   0.865  18.230  0.3446  0.1003 -0.0923
 1387POPC   C3A16639   9.940   0.511  17.959  0.0240  0.1292  0.0216
 1387POPC   C4A16640   9.943   0.086  17.730 -0.1095  0.3995  0.1959
 1387POPC   C1B16641   8.775   1.364  18.073 -0.1455 -0.1767  0.0049
 1387POPC   C2B16642   8.777   1.251  17.648  0.1351  0.1862 -0.5278
 1387POPC   C3B16643   8.906   0.948  17.324 -0.0308  0.0136  0.1806
 1387POPC   C4B16644   9.206   0.632  17.145 -0.1156  0.2423 -0.0671
 1388POPC   NC316645   1.416   6.380  19.946 -0.0798  0.0324 -0.0415
 1388POPC   PO416646   1.716   6.202  19.724 -0.1975  0.0762 -0.0332
 1388POPC   GL116647   1.951   6.358  19.353  0.0604  0.0782  0.0195
 1388POPC   GL216648   2.051   6.258  19.135  0.1893  0.0840 -0.1551
 1388POPC   C1A16649   1.682   6.631  19.029  0.0232 -0.1724 -0.4553
 1388POPC   D2A16650   1.359   6.751  18.767  0.0481  0.0007 -0.0919
 1388POPC   C3A16651   1.381   7.139  18.531 -0.0216 -0.2197 -0.0556
 1388POPC   C4A16652   1.385   7.588  18.590  0.1365  0.0360 -0.2346
 1388POPC   C1B16653   2.154   6.163  18.713 -0.3714 -0.2812 -0.2343
 1388POPC   C2B16654   2.469   6.042  18.386  0.1200 -0.0113  0.3891
 1388POPC   C3B16655   2.894   6.131  18.200  0.3576 -0.1615  0.3016
 1388POPC   C4B16656   3.175   6.272  17.840  0.5109 -0.1398 -0.1278
 1389POPC   NC316657   2.930  12.156  21.221  0.0810  0.2960  0.0630
 1389POPC   PO416658   3.010  12.435  20.932 -0.1794  0.1824 -0.1812
 1389POPC   GL116659   3.088  12.341  20.528 -0.0574 -0.4464 -0.1354
 1389POPC   GL216660   2.822  12.552  20.436 -0.0158  0.1029  0.1365
 1389POPC   C1A16661   3.233  12.029  20.139 -0.0397 -0.1373  0.1054
 1389POPC   D2A16662   3.120  11.684  19.869  0.0675  0.1818  0.1025
 1389POPC   C3A16663   3.554  11.439  19.924 -0.2207  0.0241  0.2704
 1389POPC   C4A16664   3.898  11.181  19.699 -0.1024 -0.0347 -0.2819
 1389POPC   C1B16665   2.701  12.211  20.158 -0.1609 -0.0342 -0.0525
 1389POPC   C2B16666   2.767  12.025  19.706  0.3470  0.2148  0.0762
 1389POPC   C3B16667   2.889  11.719  19.424 -0.1239  0.0137  0.2230
 1389POPC   C4B16668   2.935  11.400  19.059 -0.0055 -0.1566 -0.3022
 1390POPC   NC316669   4.414   1.061  19.748  0.1143  0.2418  0.0201
 1390POPC   PO416670   4.534   1.338  19.534  0.3712 -0.2425  0.2226
 1390POPC   GL116671   4.677   1.249  19.097 -0.1848 -0.3575  0.0142
 1390POPC   GL216672   4.467   1.427  18.973 -0.0199 -0.4165  0.2564
 1390POPC   C1A16673   4.640   0.902  18.740 -0.0682 -0.0184 -0.0084
 1390POPC   D2A16674   4.543   0.576  18.415  0.0646  0.1806 -0.2065
 1390POPC   C3A16675   4.294   0.263  18.554 -0.0342  0.1184 -0.1964
 1390POPC   C4A16676   3.979   0.080  18.792  0.0242 -0.2477  0.3710
 1390POPC   C1B16677   4.324   1.659  18.625  0.0915  0.0138 -0.0167
 1390POPC   C2B16678   3.952   1.872  18.455  0.1849  0.0734  0.0462
 1390POPC   C3B16679   3.735   2.030  18.081 -0.1308 -0.0312 -0.0102
 1390POPC   C4B16680   3.467   2.070  17.703 -0.0349  0.2152  0.0739
 1391POPC   NC316681  12.500  15.760  19.952  0.0079 -0.2600 -0.2115
 1391POPC   PO416682  12.851  15.898  19.864  0.3436 -0.0032  0.1044
 1391POPC   GL116683  13.026  15.922  19.435 -0.0078 -0.0744 -0.0714
 1391POPC   GL216684  13.244  15.714  19.520 -0.0039 -0.1336  0.1215
 1391POPC   C1A16685  12.920  15.538  19.203 -0.0968 -0.1124  0.0594
 1391POPC   D2A16686  12.911  15.362  18.825  0.1302 -0.2051 -0.0872
 1391POPC   C3A16687  13.048  15.200  18.474 -0.1706  0.0322  0.4572
 1391POPC   C4A16688  13.112  15.298  18.028  0.0483 -0.0374 -0.4787
 1391POPC   C1B16689  13.468  15.656  19.237 -0.0680  0.2429 -0.0264
 1391POPC   C2B16690  13.376  15.686  18.820 -0.1557 -0.1346  0.2551
 1391POPC   C3B16691  13.505  15.402  18.423  0.2428 -0.0578  0.1263
 1391POPC   C4B16692  13.596  15.542  17.976 -0.3327  0.0993  0.2451
 1392POPC   NC316693   8.928   4.646  13.602  0.0815  0.2442  0.1218
 1392POPC   PO416694   8.680   4.702  13.891 -0.0442  0.0549 -0.1811
 1392POPC   GL116695   8.384   4.654  13.587  0.2577  0.1057 -0.0660
 1392POPC   GL216696   8.352   4.364  13.643 -0.0726  0.1776  0.0673
 1392POPC   C1A16697   7.895   4.552  13.658  0.2682 -0.2260 -0.1008
 1392POPC   D2A16698   7.450   4.421  13.605 -0.3376  0.2823  0.0845
 1392POPC   C3A16699   7.408   4.288  14.041  0.0920  0.0730 -0.1068
 1392POPC   C4A16700   7.178   4.048  14.323 -0.0756  0.4272 -0.1212
 1392POPC   C1B16701   8.062   4.120  13.965 -0.2231  0.2492  0.0925
 1392POPC   C2B16702   7.929   3.720  14.228  0.0542 -0.1071 -0.0642
 1392POPC   C3B16703   7.848   3.305  14.212  0.1912 -0.0177 -0.0484
 1392POPC   C4B16704   7.938   2.847  14.206 -0.1389 -0.0372  0.3488
 1393POPC   NC316705  10.300   2.637  17.859 -0.0239  0.0617  0.0927
 1393POPC   PO416706  10.687   2.574  17.965  0.1044  0.4006  0.0738
 1393POPC   GL116707  10.864   2.483  17.624 -0.0357 -0.1881  0.2174
 1393POPC   GL216708  11.139   2.398  17.690  0.0118 -0.3112 -0.1091
 1393POPC   C1A16709  10.795   2.216  17.250  0.2023 -0.0037 -0.1397
 1393POPC   D2A16710  11.077   2.145  16.869 -0.0447 -0.1307 -0.1605
 1393POPC   C3A16711  10.857   1.970  16.458 -0.1025  0.0172  0.0118
 1393POPC   C4A16712  10.507   1.858  16.130 -0.2045  0.1037 -0.0602
 1393POPC   C1B16713  11.405   2.302  17.396 -0.1605  0.1499  0.1094
 1393POPC   C2B16714  11.398   1.941  17.167 -0.0205  0.0203  0.0399
 1393POPC   C3B16715  11.224   1.561  16.964  0.1660  0.0830  0.3965
 1393POPC   C4B16716  11.144   1.115  16.856  0.3280  0.0234 -0.0028
 1394POPC   NC316717  13.601   2.809  19.750 -0.2050  0.2215 -0.1457
 1394POPC   PO416718  13.725   2.737  19.360 -0.1743  0.4793  0.1192
 1394POPC   GL116719  13.904   2.598  19.015  0.1949 -0.1079 -0.0320
 1394POPC   GL216720  13.813   2.794  18.775 -0.1333 -0.0237 -0.0520
 1394POPC   C1A16721  14.024   2.396  18.626 -0.1581 -0.2068  0.0671
 1394POPC   D2A16722  13.997   2.220  18.182  0.0159  0.0672  0.0546
 1394POPC   C3A16723  14.317   1.837  18.025 -0.1180 -0.0292 -0.3859
 1394POPC   C4A16724  14.764   1.794  17.876 -0.3464 -0.3835 -0.2033
 1394POPC   C1B16725  13.620   2.581  18.410 -0.3362  0.1410 -0.0827
 1394POPC   C2B16726  13.463   2.430  17.959 -0.0073 -0.1917 -0.1778
 1394POPC   C3B16727  13.314   2.345  17.515 -0.0164 -0.0398  0.1488
 1394POPC   C4B16728  13.209   2.154  17.132 -0.0225 -0.0513  0.1356
 1395POPC   NC316729  15.183  11.956  20.201  0.3091 -0.2034 -0.1269
 1395POPC   PO416730  15.451  12.143  20.340  0.1713  0.0839  0.2235
 1395POPC   GL116731  15.530  12.145  19.885 -0.3992  0.3047 -0.0930
 1395POPC   GL216732  15.280  12.312  19.860 -0.0967  0.2225 -0.0072
 1395POPC   C1A16733  15.841  12.416  19.694 -0.1027  0.2699 -0.1897
 1395POPC   D2A16734  16.213  12.573  19.828  0.0472  0.2416  0.0659
 1395POPC   C3A16735  16.488  12.195  19.801 -0.2307  0.2486  0.1330
 1395POPC   C4A16736  16.979  11.999  19.774  0.2805 -0.0239  0.3173
 1395POPC   C1B16737  15.237  12.287  19.414  0.0888  0.2032  0.1045
 1395POPC   C2B16738  15.148  12.546  19.033  0.1838 -0.1776 -0.1090
 1395POPC   C3B16739  14.849  12.711  18.720 -0.1237 -0.0457 -0.2708
 1395POPC   C4B16740  14.400  12.783  18.629  0.1456 -0.3114  0.0369
 1396POPC   NC316741   4.537  14.602  20.406 -0.2968 -0.0508 -0.0946
 1396POPC   PO416742   4.616  14.987  20.578 -0.2520  0.2038  0.1126
 1396POPC   GL116743   4.830  15.072  20.159  0.3120 -0.2167  0.0877
 1396POPC   GL216744   4.654  15.197  19.949 -0.1744 -0.0666  0.3945
 1396POPC   C1A16745   5.122  14.840  19.841  0.0274  0.0444 -0.3139
 1396POPC   D2A16746   5.566  14.630  19.731  0.0150  0.0678 -0.0400
 1396POPC   C3A16747   5.501  14.338  19.370 -0.1149 -0.0641  0.1806
 1396POPC   C4A16748   5.380  14.058  18.969  0.1063 -0.0889  0.3753
 1396POPC   C1B16749   4.776  15.104  19.512  0.0198 -0.1840  0.2198
 1396POPC   C2B16750   4.733  15.034  19.064 -0.0474 -0.1616  0.1898
 1396POPC   C3B16751   4.637  15.030  18.611 -0.4464  0.0855 -0.2875
 1396POPC   C4B16752   4.602  15.449  18.291 -0.2623  0.1297  0.0469
 1397POPC   NC316753   9.450   4.435  15.967  0.1959 -0.0472  0.2155
 1397POPC   PO416754   9.423   4.137  15.730 -0.2939  0.0548 -0.1063
 1397POPC   GL116755   9.698   3.834  15.655 -0.1307 -0.1563  0.2182
 1397POPC   GL216756   9.747   3.544  15.765 -0.3091  0.3133 -0.2851
 1397POPC   C1A16757   9.496   3.486  15.386 -0.0351  0.1433 -0.0598
 1397POPC   D2A16758   9.074   3.524  15.102 -0.0196  0.1230  0.0333
 1397POPC   C3A16759   8.867   3.170  14.933  0.1300 -0.0252 -0.0901
 1397POPC   C4A16760   9.088   2.939  14.601 -0.3758  0.0927  0.0977
 1397POPC   C1B16761   9.853   3.195  15.903 -0.1437  0.3607 -0.0139
 1397POPC   C2B16762   9.977   2.904  16.236 -0.1184  0.2855 -0.2654
 1397POPC   C3B16763  10.266   2.664  16.506 -0.1208 -0.1852  0.2754
 1397POPC   C4B16764  10.243   2.183  16.642  0.0594  0.2168 -0.1504
 1398POPC   NC316765   9.706   4.628  14.845  0.0703  0.0295 -0.0893
 1398POPC   PO416766   9.820   4.337  14.645 -0.0777  0.2702 -0.0619
 1398POPC   GL116767  10.100   3.949  14.771  0.3423  0.1986  0.3381
 1398POPC   GL216768   9.865   3.810  14.675  0.1372 -0.1361 -0.1024
 1398POPC   C1A16769  10.575   3.842  14.654  0.1450  0.1487 -0.3100
 1398POPC   D2A16770  10.935   3.776  14.437  0.0255 -0.1917  0.2343
 1398POPC   C3A16771  10.866   3.323  14.251  0.0226 -0.0400  0.2663
 1398POPC   C4A16772  10.528   3.160  13.963  0.0522 -0.1740  0.1330
 1398POPC   C1B16773  10.024   3.420  14.534 -0.3749 -0.2078 -0.0007
 1398POPC   C2B16774  10.175   3.058  14.283  0.0197  0.0294  0.1022
 1398POPC   C3B16775  10.153   2.780  13.881  0.1466  0.0765  0.0956
 1398POPC   C4B16776  10.141   2.928  13.463  0.0772  0.2270  0.4307
 1399POPC   NC316777   1.253   9.354  19.982  0.1975 -0.2881  0.2019
 1399POPC   PO416778   1.621   9.354  20.163 -0.2630  0.0851  0.2223
 1399POPC   GL116779   1.705   9.540  19.784  0.0673 -0.3969 -0.5784
 1399POPC   GL216780   1.500   9.730  19.651 -0.6223  0.0719  0.0028
 1399POPC   C1A16781   1.950   9.479  19.422 -0.1807 -0.2141  0.1676
 1399POPC   D2A16782   2.210   9.560  19.040  0.3886 -0.0633 -0.1300
 1399POPC   C3A16783   2.430   9.769  18.687 -0.2290 -0.0088  0.1046
 1399POPC   C4A16784   2.401   9.624  18.268 -0.3117  0.1573 -0.1488
 1399POPC   C1B16785   1.278   9.412  19.509 -0.0448  0.2836 -0.0598
 1399POPC   C2B16786   1.475   9.084  19.244  0.1761 -0.1655 -0.0164
 1399POPC   C3B16787   1.870   9.135  18.989 -0.0900  0.1504  0.2703
 1399POPC   C4B16788   1.958   8.828  18.656 -0.1910 -0.1733  0.1350
 1400POPC   NC316789  11.254   5.291  16.325  0.0257 -0.1030 -0.1158
 1400POPC   PO416790  11.280   5.008  16.642 -0.0731  0.1284  0.0279
 1400POPC   GL116791  11.637   4.821  16.482 -0.0722 -0.0283  0.2630
 1400POPC   GL216792  11.636   5.030  16.262 -0.0109 -0.0117  0.0949
 1400POPC   C1A16793  12.114   4.909  16.450  0.4445  0.2925  0.1487
 1400POPC   D2A16794  12.469   5.035  16.163 -0.1598  0.0791  0.0706
 1400POPC   C3A16795  12.246   5.198  15.737  0.2428 -0.2034 -0.0505
 1400POPC   C4A16796  11.950   5.040  15.464  0.2745 -0.3952  0.4157
 1400POPC   C1B16797  11.942   4.840  15.995  0.1231  0.1952  0.0598
 1400POPC   C2B16798  12.140   4.495  15.820 -0.1931  0.0956 -0.1590
 1400POPC   C3B16799  12.116   4.088  15.633  0.0259  0.0422  0.0046
 1400POPC   C4B16800  12.072   4.127  15.146  0.4380  0.2189  0.0914
 1401POPC   NC316801  15.792   4.950  19.716  0.1627 -0.0626 -0.3494
 1401POPC   PO416802  15.594   4.579  19.722 -0.1820 -0.2170 -0.1165
 1401POPC   GL116803  15.580   4.789  19.312  0.3723 -0.0207  0.4510
 1401POPC   GL216804  15.769   5.000  19.199  0.1195 -0.1108 -0.0619
 1401POPC   C1A16805  15.486   4.570  18.870  0.2538 -0.1533 -0.1871
 1401POPC   D2A16806  15.482   4.665  18.395 -0.1163  0.0241 -0.3128
 1401POPC   C3A16807  15.442   4.518  17.957 -0.0388 -0.2048  0.0965
 1401POPC   C4A16808  15.439   4.633  17.501  0.2880 -0.1736  0.1641
 1401POPC   C1B16809  15.961   4.627  18.859  0.4005  0.1424 -0.2898
 1401POPC   C2B16810  15.913   4.375  18.502 -0.0572  0.1032  0.2283
 1401POPC   C3B16811  16.010   4.412  18.034 -0.0266  0.0733  0.0066
 1401POPC   C4B16812  15.942   4.357  17.588 -0.0635 -0.1956 -0.2394
 1402POPC   NC316813  10.874  15.546  20.073 -0.3769 -0.2588  0.0976
 1402POPC   PO416814  11.272  15.534  20.016  0.1575  0.0363  0.0671
 1402POPC   GL116815  11.199  15.457  19.699  0.2538  0.0197 -0.1166
 1402POPC   GL216816  11.343  15.588  19.480  0.0224  0.1741 -0.1812
 1402POPC   C1A16817  10.782  15.479  19.452 -0.3370 -0.0552 -0.1013
 1402POPC   D2A16818  10.462  15.744  19.336 -0.1010  0.2702  0.1021
 1402POPC   C3A16819  10.225  15.726  18.908  0.0667 -0.1258 -0.0189
 1402POPC   C4A16820   9.962  15.710  18.494 -0.0918 -0.2190 -0.0756
 1402POPC   C1B16821  11.144  15.462  19.072 -0.3314  0.1155 -0.0625
 1402POPC   C2B16822  11.023  15.191  18.661  0.3969 -0.0568  0.1050
 1402POPC   C3B16823  11.140  14.964  18.232 -0.3896  0.1218  0.1125
 1402POPC   C4B16824  11.229  14.894  17.824 -0.3123  0.3466 -0.2167
 1403POPC   NC316825   9.101   4.099  14.518 -0.0821 -0.3106 -0.1266
 1403POPC   PO416826   9.345   4.440  14.431  0.1323 -0.2804 -0.1491
 1403POPC   GL116827   9.515   4.086  14.382  0.0501  0.3005 -0.0791
 1403POPC   GL216828   9.688   4.104  14.097 -0.1758 -0.1874 -0.1508
 1403POPC   C1A16829   9.370   3.701  14.165 -0.0124  0.0144 -0.1405
 1403POPC   D2A16830   9.274   3.382  13.811  0.2626 -0.1418  0.0350
 1403POPC   C3A16831   9.275   3.487  13.359 -0.0022  0.1963 -0.1219
 1403POPC   C4A16832   9.131   3.485  12.923 -0.0730 -0.3611  0.3292
 1403POPC   C1B16833   9.918   3.713  14.142 -0.1901 -0.0059  0.0933
 1403POPC   C2B16834  10.355   3.578  14.213 -0.0976 -0.0935  0.1766
 1403POPC   C3B16835  10.724   3.706  13.981 -0.0851 -0.0455  0.0220
 1403POPC   C4B16836  11.007   3.450  13.763 -0.4605 -0.0683 -0.2628
 1404POPC   NC316837   7.193   2.173  18.752  0.1971  0.0537  0.1797
 1404POPC   PO416838   6.838   2.105  18.832 -0.1081 -0.0719 -0.1554
 1404POPC   GL116839   7.012   1.827  18.543 -0.2068  0.0481 -0.2869
 1404POPC   GL216840   6.812   1.605  18.630  0.1206  0.1420  0.0573
 1404POPC   C1A16841   7.157   1.535  18.215  0.0305  0.1750 -0.2036
 1404POPC   D2A16842   7.084   1.181  17.960 -0.1734  0.0435  0.1298
 1404POPC   C3A16843   6.706   0.986  17.873 -0.0578  0.2925 -0.0590
 1404POPC   C4A16844   6.634   0.578  17.648  0.1298  0.3887  0.2372
 1404POPC   C1B16845   6.716   1.270  18.425 -0.1979  0.3502  0.2244
 1404POPC   C2B16846   6.350   1.178  18.128 -0.1774  0.0874  0.2411
 1404POPC   C3B16847   5.996   1.138  17.919  0.0338 -0.0193  0.0816
 1404POPC   C4B16848   5.657   1.087  17.594 -0.1716 -0.0690 -0.4711
 1405POPC   NC316849   4.473  12.079  20.837  0.1519 -0.0059  0.1691
 1405POPC   PO416850   4.163  12.222  20.663 -0.1018  0.2755  0.0708
 1405POPC   GL116851   3.931  12.422  20.364 -0.2798  0.0457  0.0830
 1405POPC   GL216852   3.590  12.266  20.463  0.3369  0.2371 -0.1962
 1405POPC   C1A16853   3.911  12.432  19.881 -0.0069  0.1420  0.0106
 1405POPC   D2A16854   3.908  12.394  19.411  0.1739  0.0562  0.0677
 1405POPC   C3A16855   3.567  12.164  19.198 -0.2873  0.0530 -0.2650
 1405POPC   C4A16856   3.294  11.764  19.090 -0.1856  0.0450  0.0841
 1405POPC   C1B16857   3.508  12.501  20.074 -0.3052 -0.2206  0.0027
 1405POPC   C2B16858   3.530  12.646  19.576  0.1647 -0.0144 -0.0131
 1405POPC   C3B16859   3.533  12.689  19.069 -0.0826  0.0892  0.0060
 1405POPC   C4B16860   3.467  13.089  18.780 -0.0721  0.2314 -0.0096
 1406POPC   NC316861   3.885   6.067  19.720  0.0557  0.0040 -0.0897
 1406POPC   PO416862   4.106   5.801  19.572 -0.0464 -0.2250 -0.1398
 1406POPC   GL116863   3.887   5.748  19.242  0.0593  0.3164 -0.1185
 1406POPC   GL216864   4.105   5.768  19.024  0.0192 -0.2459  0.1518
 1406POPC   C1A16865   3.689   6.069  18.940 -0.3499  0.0236 -0.1250
 1406POPC   D2A16866   3.659   6.135  18.441 -0.2540  0.2681  0.0471
 1406POPC   C3A16867   3.929   6.481  18.292  0.4244  0.2401 -0.0739
 1406POPC   C4A16868   4.030   6.767  17.970 -0.1207 -0.1340 -0.0679
 1406POPC   C1B16869   4.139   5.834  18.551 -0.2339  0.0424  0.2673
 1406POPC   C2B16870   3.969   5.988  18.102 -0.1784 -0.1125 -0.1333
 1406POPC   C3B16871   3.722   6.261  17.816 -0.3032 -0.0147 -0.0807
 1406POPC   C4B16872   3.993   6.380  17.491 -0.1540 -0.1386  0.0164
 1407POPC   NC316873   5.104   7.510  19.319 -0.1086  0.0336  0.0711
 1407POPC   PO416874   4.953   7.148  19.423 -0.1856 -0.0108  0.0269
 1407POPC   GL116875   4.803   7.057  19.004  0.4499 -0.4292  0.0836
 1407POPC   GL216876   4.549   7.160  19.172  0.1049  0.0610 -0.2243
 1407POPC   C1A16877   4.974   7.275  18.625  0.1088 -0.5339 -0.1177
 1407POPC   D2A16878   5.224   7.593  18.409 -0.1273  0.1108 -0.2017
 1407POPC   C3A16879   5.022   7.797  18.070 -0.2104  0.0082 -0.0299
 1407POPC   C4A16880   4.615   7.857  17.921 -0.1103 -0.2886 -0.2205
 1407POPC   C1B16881   4.377   7.131  18.734 -0.0885 -0.4604 -0.1588
 1407POPC   C2B16882   4.365   7.079  18.274 -0.3021  0.3325 -0.0626
 1407POPC   C3B16883   4.224   7.298  17.936 -0.4565  0.0704 -0.0486
 1407POPC   C4B16884   3.804   7.292  17.723  0.0684 -0.0091  0.3229
 1408POPC   NC316885   8.189   5.165  15.565  0.0159 -0.0453  0.0481
 1408POPC   PO416886   7.871   5.249  15.677  0.2185  0.0732  0.0592
 1408POPC   GL116887   7.578   5.433  15.561 -0.1981 -0.2429  0.1148
 1408POPC   GL216888   7.459   5.141  15.411 -0.1905  0.1910  0.0966
 1408POPC   C1A16889   7.344   5.630  15.232 -0.0149  0.2718 -0.1374
 1408POPC   D2A16890   7.144   5.650  14.800 -0.2305  0.2342 -0.0581
 1408POPC   C3A16891   7.287   5.679  14.351  0.2070  0.2858 -0.2141
 1408POPC   C4A16892   6.990   5.651  13.932 -0.0569  0.0609 -0.1024
 1408POPC   C1B16893   7.179   5.089  15.012 -0.0775 -0.0179  0.3645
 1408POPC   C2B16894   6.846   5.150  14.707  0.0845  0.1563  0.1453
 1408POPC   C3B16895   6.766   5.215  14.257  0.0834 -0.2008 -0.1126
 1408POPC   C4B16896   6.729   5.209  13.817 -0.0900 -0.1845 -0.1103
 1409POPC   NC316897  10.587   8.313  18.868 -0.1035  0.0640  0.1819
 1409POPC   PO416898  10.248   8.296  18.655  0.2307  0.1706 -0.2060
 1409POPC   GL116899  10.337   8.345  18.232  0.1813 -0.0864  0.1583
 1409POPC   GL216900  10.356   8.653  18.238 -0.0928  0.1896  0.0322
 1409POPC   C1A16901  10.613   8.289  17.878  0.1810 -0.2110  0.0713
 1409POPC   D2A16902  10.755   8.095  17.483 -0.1220  0.0141  0.3746
 1409POPC   C3A16903  11.166   8.098  17.248  0.2860 -0.1735  0.0661
 1409POPC   C4A16904  11.575   8.238  17.225 -0.1019  0.1109 -0.1193
 1409POPC   C1B16905  10.778   8.886  18.241  0.1450  0.2165  0.3654
 1409POPC   C2B16906  10.965   9.051  17.880 -0.3042  0.2787 -0.0488
 1409POPC   C3B16907  11.290   8.998  17.654 -0.1731 -0.2126 -0.1843
 1409POPC   C4B16908  11.578   8.702  17.478  0.2668 -0.2546 -0.2926
 1410POPC   NC316909   1.212  14.658  20.299  0.0165 -0.0870  0.2120
 1410POPC   PO416910   1.308  14.422  20.579  0.1058  0.0022 -0.1246
 1410POPC   GL116911   1.588  14.309  20.364  0.1308 -0.0857 -0.0548
 1410POPC   GL216912   1.700  14.445  20.189  0.3279  0.0666  0.4551
 1410POPC   C1A16913   1.509  13.980  20.051 -0.3310  0.0634 -0.1759
 1410POPC   D2A16914   1.660  13.815  19.676 -0.1176 -0.1305  0.1391
 1410POPC   C3A16915   2.065  13.915  19.479 -0.0014  0.2979 -0.1230
 1410POPC   C4A16916   2.345  14.168  19.289 -0.0425 -0.0675 -0.1331
 1410POPC   C1B16917   1.349  14.491  19.852  0.0710 -0.0047 -0.0730
 1410POPC   C2B16918   1.237  14.348  19.404  0.0603 -0.1250  0.1457
 1410POPC   C3B16919   1.135  14.204  18.947 -0.0122 -0.2789 -0.0222
 1410POPC   C4B16920   1.313  14.114  18.543  0.2354 -0.2421 -0.0472
 1411POPC   NC316921  11.206   1.786  18.931 -0.1626 -0.0812  0.2187
 1411POPC   PO416922  10.955   2.048  18.855 -0.0622 -0.1716 -0.0537
 1411POPC   GL116923  11.083   1.996  18.487  0.0475  0.4844  0.1883
 1411POPC   GL216924  11.284   2.052  18.506 -0.1185  0.0244  0.3333
 1411POPC   C1A16925  11.049   1.706  18.170  0.0809 -0.0590 -0.1319
 1411POPC   D2A16926  10.898   1.485  17.774 -0.1016  0.3942  0.0082
 1411POPC   C3A16927  10.903   1.645  17.307  0.0078 -0.3654 -0.2143
 1411POPC   C4A16928  10.722   1.720  16.913 -0.2083 -0.3522 -0.3897
 1411POPC   C1B16929  11.422   1.552  18.527 -0.0368  0.1368 -0.1808
 1411POPC   C2B16930  11.606   1.123  18.323 -0.1532  0.0055 -0.1781
 1411POPC   C3B16931  11.954   0.839  18.450  0.2759 -0.0071  0.0145
 1411POPC   C4B16932  12.262   0.694  18.163 -0.2051 -0.1094 -0.5040
 1412POPC   NC316933   8.437   2.202  18.666 -0.0160  0.1067 -0.0407
 1412POPC   PO416934   8.115   2.224  18.411 -0.0323  0.1550 -0.2592
 1412POPC   GL116935   8.159   2.069  18.064  0.1374 -0.1922  0.0905
 1412POPC   GL216936   8.427   2.142  17.991 -0.0766  0.3163  0.1420
 1412POPC   C1A16937   8.305   1.592  17.995  0.1501 -0.0502 -0.3137
 1412POPC   D2A16938   8.397   1.162  17.923 -0.0059 -0.0615 -0.3576
 1412POPC   C3A16939   8.108   1.056  17.591  0.0441  0.0657  0.1042
 1412POPC   C4A16940   7.901   1.271  17.226 -0.0418 -0.0983  0.1002
 1412POPC   C1B16941   8.256   1.992  17.606  0.2894 -0.0328  0.2794
 1412POPC   C2B16942   8.288   1.875  17.137  0.1676 -0.0744 -0.0539
 1412POPC   C3B16943   8.324   1.486  16.935  0.2496 -0.1828 -0.0285
 1412POPC   C4B16944   8.432   1.375  16.541 -0.0636  0.1838  0.0400
 1413POPC   NC316945  10.319   5.465  13.059 -0.3828 -0.0184 -0.4647
 1413POPC   PO416946  10.578   5.783  13.021  0.0034  0.0374  0.0129
 1413POPC   GL116947  10.934   6.015  13.054 -0.1307  0.0063  0.1174
 1413POPC   GL216948  11.089   5.946  12.781 -0.0742 -0.0753 -0.0389
 1413POPC   C1A16949  11.291   5.895  13.288 -0.1366  0.3599 -0.0681
 1413POPC   D2A16950  11.567   5.663  13.592  0.0360  0.0457  0.0310
 1413POPC   C3A16951  11.992   5.469  13.537  0.1360  0.0184 -0.1214
 1413POPC   C4A16952  12.371   5.239  13.595 -0.0687 -0.0396 -0.0274
 1413POPC   C1B16953  11.514   5.826  12.757  0.0064  0.0203  0.1898
 1413POPC   C2B16954  11.824   5.581  13.041  0.1966  0.1865 -0.0818
 1413POPC   C3B16955  12.028   5.179  13.087  0.1332 -0.0098  0.4430
 1413POPC   C4B16956  12.460   4.996  13.099  0.0207 -0.2954  0.2401
 1414POPC   NC316957   8.424   6.115  15.248  0.3084  0.4444 -0.4283
 1414POPC   PO416958   8.796   6.109  15.120 -0.2153  0.1845  0.0047
 1414POPC   GL116959   8.690   6.495  14.987 -0.1614  0.2133  0.2161
 1414POPC   GL216960   8.514   6.650  15.180  0.4320  0.0578  0.1592
 1414POPC   C1A16961   8.338   6.615  14.728  0.4600  0.0370  0.1015
 1414POPC   D2A16962   7.881   6.723  14.643  0.0691 -0.2503 -0.3035
 1414POPC   C3A16963   7.722   7.153  14.470 -0.1276  0.0788 -0.0856
 1414POPC   C4A16964   7.861   7.567  14.331 -0.0853  0.1793 -0.1189
 1414POPC   C1B16965   8.061   6.827  15.087  0.4375  0.2536 -0.1736
 1414POPC   C2B16966   7.573   6.967  15.042 -0.0747 -0.0516  0.0141
 1414POPC   C3B16967   7.151   6.840  15.172 -0.1405 -0.0592  0.3680
 1414POPC   C4B16968   6.910   7.046  15.415  0.5274  0.0553 -0.1455
 1415POPC   NC316969   4.284   5.100  18.969 -0.0998  0.2962  0.0102
 1415POPC   PO416970   4.497   5.402  18.892  0.4487 -0.0406 -0.0391
 1415POPC   GL116971   4.531   5.333  18.456 -0.3057  0.1039 -0.3341
 1415POPC   GL216972   4.269   5.178  18.393  0.2059 -0.1944 -0.0893
 1415POPC   C1A16973   4.815   5.412  18.149 -0.1586  0.0565 -0.1746
 1415POPC   D2A16974   5.033   5.813  18.072  0.0887 -0.1397  0.0339
 1415POPC   C3A16975   4.836   5.931  17.672 -0.2487 -0.0642 -0.4853
 1415POPC   C4A16976   4.888   5.877  17.189  0.0857 -0.0170  0.0240
 1415POPC   C1B16977   4.055   4.937  18.037 -0.2253 -0.0888  0.1439
 1415POPC   C2B16978   3.704   5.093  17.798  0.0982  0.0243 -0.1933
 1415POPC   C3B16979   3.517   5.419  17.610 -0.0589 -0.4866  0.1554
 1415POPC   C4B16980   3.362   5.887  17.571 -0.0925  0.2154  0.1060
 1416POPC   NC316981  11.452   3.771  17.490 -0.2441  0.0544  0.1586
 1416POPC   PO416982  11.724   4.065  17.530 -0.0537 -0.4112 -0.0489
 1416POPC   GL116983  12.114   4.159  17.307 -0.0936 -0.2061  0.2633
 1416POPC   GL216984  12.152   3.966  17.101  0.0607 -0.0785  0.0756
 1416POPC   C1A16985  12.600   4.123  17.390 -0.1522  0.0781 -0.2280
 1416POPC   D2A16986  13.033   4.144  17.424  0.0382 -0.0777  0.0586
 1416POPC   C3A16987  13.413   3.990  17.178  0.1801 -0.3527  0.0931
 1416POPC   C4A16988  13.865   3.963  17.226 -0.1016 -0.1670  0.0451
 1416POPC   C1B16989  12.384   4.295  16.953  0.1217 -0.3110  0.1828
 1416POPC   C2B16990  12.546   4.627  16.694  0.0085  0.0484  0.0707
 1416POPC   C3B16991  12.803   4.951  16.481 -0.0829  0.2961 -0.1815
 1416POPC   C4B16992  13.089   4.990  16.123  0.1681 -0.1579  0.2549
 1417POPC   NC316993   2.990   8.358  20.277 -0.1484 -0.0227  0.0821
 1417POPC   PO416994   3.038   8.020  20.071  0.2381 -0.2558 -0.0275
 1417POPC   GL116995   3.101   8.324  19.739 -0.0263 -0.0845 -0.0694
 1417POPC   GL216996   3.100   8.082  19.547  0.0394  0.0092 -0.1929
 1417POPC   C1A16997   3.023   8.658  19.459 -0.0950  0.0298  0.2128
 1417POPC   D2A16998   2.576   8.730  19.340  0.1312 -0.1961 -0.0359
 1417POPC   C3A16999   2.396   9.049  18.996  0.1544 -0.0904 -0.0556
 1417POPC   C4A17000   2.150   9.250  18.618  0.2502 -0.1990  0.1841
 1417POPC   C1B17001   3.058   8.105  19.065 -0.0486 -0.0594 -0.2003
 1417POPC   C2B17002   3.266   8.086  18.637  0.0428  0.0352 -0.0732
 1417POPC   C3B17003   3.401   8.391  18.386 -0.0154 -0.0689 -0.1223
 1417POPC   C4B17004   3.764   8.576  18.155 -0.0386  0.1488  0.2651
 1418POPC   NC317005   4.800   8.635  19.855 -0.1499 -0.1296 -0.3594
 1418POPC   PO417006   5.043   8.502  19.604 -0.0867 -0.2483 -0.0196
 1418POPC   GL117007   4.890   8.787  19.291 -0.0024  0.3716  0.3090
 1418POPC   GL217008   4.575   8.696  19.364  0.3475  0.3723 -0.2456
 1418POPC   C1A17009   4.934   8.998  18.863  0.1143  0.1115  0.0337
 1418POPC   D2A17010   5.204   9.280  18.596 -0.2708 -0.0622  0.4681
 1418POPC   C3A17011   4.950   9.321  18.247  0.1464  0.0393  0.1293
 1418POPC   C4A17012   4.698   9.481  17.874  0.1789  0.1008 -0.0734
 1418POPC   C1B17013   4.322   8.531  18.997 -0.0908  0.1243  0.0026
 1418POPC   C2B17014   4.220   8.796  18.639  0.1776  0.0360 -0.0906
 1418POPC   C3B17015   4.216   8.847  18.156  0.0325  0.0138  0.0071
 1418POPC   C4B17016   4.427   8.883  17.709  0.1823  0.3280  0.2817
 1419POPC   NC317017  11.036   8.922  19.340 -0.1464 -0.1980 -0.3042
 1419POPC   PO417018  10.707   8.776  19.180  0.1213  0.0909 -0.0479
 1419POPC   GL117019  10.933   8.676  18.869 -0.1269 -0.3490 -0.0547
 1419POPC   GL217020  11.213   8.656  18.967 -0.2855  0.2304  0.1995
 1419POPC   C1A17021  11.155   8.851  18.483 -0.0642 -0.0686 -0.1534
 1419POPC   D2A17022  11.442   9.081  18.170  0.0721  0.1025 -0.0357
 1419POPC   C3A17023  11.749   9.269  17.878 -0.3092  0.0358  0.0796
 1419POPC   C4A17024  12.079   9.590  18.011 -0.1027 -0.0471 -0.0200
 1419POPC   C1B17025  11.283   9.085  18.918 -0.0399  0.2377 -0.1381
 1419POPC   C2B17026  11.121   9.508  18.925  0.1422 -0.0682 -0.1713
 1419POPC   C3B17027  11.169   9.861  18.641 -0.0042 -0.0827 -0.1939
 1419POPC   C4B17028  11.064   9.904  18.213 -0.0542 -0.0510 -0.0073
 1420POPC   NC317029  14.484  13.607  20.441  0.2164 -0.1453 -0.0157
 1420POPC   PO417030  14.219  13.295  20.446 -0.1494  0.1153 -0.0082
 1420POPC   GL117031  14.326  13.324  20.064  0.0667 -0.3060 -0.0334
 1420POPC   GL217032  14.177  13.123  19.902  0.0958  0.0210  0.0696
 1420POPC   C1A17033  14.695  13.501  19.797  0.1855 -0.0139  0.0371
 1420POPC   D2A17034  14.896  13.555  19.429 -0.4154 -0.1549  0.3098
 1420POPC   C3A17035  14.539  13.738  19.189 -0.0894 -0.0151  0.0178
 1420POPC   C4A17036  14.501  13.848  18.794 -0.0143 -0.2291 -0.2125
 1420POPC   C1B17037  13.783  13.175  19.607 -0.1459  0.0724  0.0970
 1420POPC   C2B17038  13.397  13.026  19.431 -0.0836  0.1665  0.0095
 1420POPC   C3B17039  13.067  12.675  19.295 -0.1709  0.1809  0.2537
 1420POPC   C4B17040  13.001  12.398  18.878  0.0050  0.1140  0.0917
 1421POPC   NC317041   3.526   8.842  20.269  0.0675  0.1030  0.1835
 1421POPC   PO417042   3.537   9.126  20.002  0.1146 -0.0966  0.2193
 1421POPC   GL117043   3.264   8.984  19.745 -0.3540 -0.1511  0.5489
 1421POPC   GL217044   3.116   9.240  19.766  0.2792 -0.3185 -0.0407
 1421POPC   C1A17045   3.390   8.970  19.253  0.3157  0.0523  0.0097
 1421POPC   D2A17046   3.538   9.173  18.914  0.2764  0.3403 -0.0748
 1421POPC   C3A17047   3.767   8.994  18.515 -0.0403 -0.1773 -0.3755
 1421POPC   C4A17048   3.819   9.156  18.079 -0.1397 -0.2948 -0.1425
 1421POPC   C1B17049   2.897   9.125  19.333 -0.2038  0.1488  0.1160
 1421POPC   C2B17050   2.896   8.900  18.928  0.0155  0.2240 -0.2462
 1421POPC   C3B17051   2.847   8.471  18.795 -0.2378  0.0631 -0.4073
 1421POPC   C4B17052   2.693   8.113  18.559  0.0550  0.1550  0.0200
 1422POPC   NC317053   6.247   0.829  19.830  0.2411  0.0331  0.0786
 1422POPC   PO417054   5.994   0.545  19.659  0.0184  0.1338 -0.1853
 1422POPC   GL117055   5.798   0.342  19.433 -0.2680 -0.1699 -0.1353
 1422POPC   GL217056   5.699   0.464  19.147  0.2648 -0.2361 -0.0218
 1422POPC   C1A17057   5.974   0.044  19.117  0.1132  0.3837 -0.0733
 1422POPC   D2A17058   5.821   0.003  18.734 -0.2444  0.1665 -0.2511
 1422POPC   C3A17059   5.736  -0.212  18.296  0.0351  0.2528 -0.1314
 1422POPC   C4A17060   6.058  -0.229  18.009  0.0827 -0.1744  0.0156
 1422POPC   C1B17061   5.640   0.561  18.710 -0.3390  0.1498  0.2140
 1422POPC   C2B17062   5.560   0.406  18.296 -0.2339  0.1422 -0.0381
 1422POPC   C3B17063   5.707   0.189  17.900 -0.2575  0.3200  0.1254
 1422POPC   C4B17064   5.703  -0.102  17.550 -0.0120  0.2123  0.1939
 1423POPC   NC317065  12.192   4.090  17.807 -0.0652  0.0897 -0.0532
 1423POPC   PO417066  12.141   3.765  17.990  0.2746 -0.0371  0.1853
 1423POPC   GL117067  12.397   3.410  17.739 -0.4067  0.3586 -0.2595
 1423POPC   GL217068  12.565   3.664  17.660  0.0418 -0.2723 -0.4327
 1423POPC   C1A17069  12.386   3.262  17.294 -0.1206 -0.1671  0.3047
 1423POPC   D2A17070  12.709   3.020  17.034 -0.2284 -0.2737 -0.0020
 1423POPC   C3A17071  13.169   3.128  16.970  0.1769 -0.3457  0.3346
 1423POPC   C4A17072  13.527   2.961  16.675  0.2591 -0.0908 -0.0341
 1423POPC   C1B17073  12.651   3.670  17.173 -0.1520 -0.0810 -0.0793
 1423POPC   C2B17074  12.583   3.780  16.693 -0.1543 -0.2078  0.1027
 1423POPC   C3B17075  12.812   4.202  16.527  0.0582  0.2285  0.0628
 1423POPC   C4B17076  13.057   4.545  16.328 -0.1376  0.0799 -0.1452
 1424POPC   NC317077   7.917   8.492  18.657 -0.0145  0.1050 -0.3455
 1424POPC   PO417078   7.899   8.108  18.518  0.1891 -0.2705  0.1560
 1424POPC   GL117079   7.667   8.355  18.320  0.0788  0.0089 -0.0677
 1424POPC   GL217080   7.405   8.260  18.364  0.1270 -0.1950  0.1813
 1424POPC   C1A17081   7.757   8.468  17.863  0.0417  0.1642 -0.0328
 1424POPC   D2A17082   8.094   8.753  17.683 -0.0088 -0.1200 -0.0104
 1424POPC   C3A17083   8.007   9.036  17.337 -0.1289  0.2904 -0.0904
 1424POPC   C4A17084   8.076   9.235  16.975  0.2806  0.0606 -0.2355
 1424POPC   C1B17085   7.033   8.452  18.082  0.1270 -0.2040  0.2435
 1424POPC   C2B17086   6.844   8.767  17.773 -0.1569  0.0288  0.3124
 1424POPC   C3B17087   6.756   9.046  17.377  0.0876  0.1768  0.2347
 1424POPC   C4B17088   6.638   9.144  16.953  0.1106  0.4320  0.0494
 1425POPC   NC317089  10.783   6.061  16.293  0.1590 -0.2398  0.1246
 1425POPC   PO417090  10.976   5.690  16.314  0.3477  0.0300  0.0062
 1425POPC   GL117091  11.146   5.800  16.054  0.0801  0.1018  0.3685
 1425POPC   GL217092  11.442   5.753  16.075 -0.0840 -0.0152  0.1209
 1425POPC   C1A17093  11.350   6.168  15.792 -0.1024 -0.2340 -0.1826
 1425POPC   D2A17094  11.830   6.270  15.705  0.1965 -0.1660  0.0195
 1425POPC   C3A17095  11.958   6.560  15.339  0.3038 -0.1263  0.0298
 1425POPC   C4A17096  12.175   6.757  14.931 -0.2988 -0.2034 -0.0111
 1425POPC   C1B17097  11.869   5.831  15.912 -0.0766 -0.0339  0.2270
 1425POPC   C2B17098  12.255   5.745  15.682 -0.1502 -0.2641  0.1241
 1425POPC   C3B17099  12.644   5.517  15.708  0.2529 -0.1202  0.0940
 1425POPC   C4B17100  12.924   5.190  15.718 -0.1735 -0.0120 -0.2061
 1426POPC   NC317101   8.778   3.125  17.879  0.0360 -0.2872 -0.0615
 1426POPC   PO417102   8.997   2.931  17.578 -0.2302 -0.0461  0.1095
 1426POPC   GL117103   8.662   2.702  17.485  0.2099 -0.2953  0.0112
 1426POPC   GL217104   8.518   2.920  17.291  0.4700 -0.1723  0.0348
 1426POPC   C1A17105   8.562   2.418  17.162  0.2681 -0.1420  0.0027
 1426POPC   D2A17106   8.796   2.189  16.844 -0.0353  0.1079 -0.0007
 1426POPC   C3A17107   8.707   1.738  16.802 -0.1023  0.0029 -0.0082
 1426POPC   C4A17108   8.956   1.585  16.483  0.0060 -0.2144  0.1425
 1426POPC   C1B17109   8.243   2.720  16.899  0.3277 -0.3241  0.0251
 1426POPC   C2B17110   7.964   2.721  16.550  0.0521  0.1849  0.0150
 1426POPC   C3B17111   7.862   2.742  16.084  0.1149 -0.0048 -0.1363
 1426POPC   C4B17112   7.635   2.657  15.709  0.2472  0.1186  0.0960
 1427POPC   NC317113  14.920   8.583  20.188 -0.3362  0.0096 -0.3353
 1427POPC   PO417114  15.241   8.704  20.065  0.2609 -0.2344  0.1387
 1427POPC   GL117115  15.361   8.477  19.780  0.0646  0.4516  0.1187
 1427POPC   GL217116  15.132   8.494  19.614 -0.0124 -0.0244 -0.2028
 1427POPC   C1A17117  15.478   8.751  19.416 -0.0346 -0.0196 -0.0347
 1427POPC   D2A17118  15.758   9.166  19.309 -0.4162 -0.2262  0.0766
 1427POPC   C3A17119  15.799   9.279  18.856 -0.0555 -0.1624  0.0707
 1427POPC   C4A17120  15.916   9.432  18.501 -0.1603 -0.1536 -0.1930
 1427POPC   C1B17121  15.014   8.705  19.199 -0.0086 -0.0369  0.1395
 1427POPC   C2B17122  14.695   8.859  18.951  0.2277 -0.1367  0.2063
 1427POPC   C3B17123  14.506   9.110  18.562  0.1723 -0.2039  0.0480
 1427POPC   C4B17124  14.586   9.255  18.068  0.0217 -0.0412 -0.0258
 1428POPC   NC317125   6.213  11.177  19.927  0.0145  0.3132 -0.2804
 1428POPC   PO417126   5.866  11.025  19.924  0.0128 -0.0325 -0.4038
 1428POPC   GL117127   5.850  11.303  19.678  0.5039 -0.2225 -0.1331
 1428POPC   GL217128   6.018  11.445  19.495 -0.0167 -0.0413 -0.2857
 1428POPC   C1A17129   5.520  11.456  19.402 -0.0679  0.3131 -0.5056
 1428POPC   D2A17130   5.420  11.696  18.990  0.0146  0.0389 -0.1742
 1428POPC   C3A17131   5.038  11.972  18.854  0.2796  0.1334 -0.0393
 1428POPC   C4A17132   4.675  12.067  18.655  0.2408  0.1038  0.0246
 1428POPC   C1B17133   5.912  11.624  19.033 -0.1783 -0.0860  0.0070
 1428POPC   C2B17134   5.780  11.686  18.571  0.1460 -0.0172 -0.2487
 1428POPC   C3B17135   5.635  11.780  18.112  0.1545 -0.1647  0.1271
 1428POPC   C4B17136   5.590  11.845  17.633  0.0223  0.0545 -0.3761
 1429POPC   NC317137   4.042   3.971  19.243  0.4599  0.3723 -0.2196
 1429POPC   PO417138   4.256   4.231  19.108 -0.2877 -0.2110 -0.0826
 1429POPC   GL117139   4.081   4.408  18.828  0.2225 -0.0847 -0.1784
 1429POPC   GL217140   4.096   4.170  18.577 -0.1124 -0.0261 -0.0515
 1429POPC   C1A17141   3.606   4.400  18.682 -0.2477 -0.0268 -0.0705
 1429POPC   D2A17142   3.340   4.493  18.304  0.4117 -0.2311 -0.3302
 1429POPC   C3A17143   3.360   4.742  17.918 -0.2018  0.1059 -0.1357
 1429POPC   C4A17144   3.404   4.731  17.424 -0.3118 -0.0630  0.3432
 1429POPC   C1B17145   3.686   4.055  18.384 -0.2030  0.4378  0.1777
 1429POPC   C2B17146   3.411   3.764  18.042  0.0710 -0.1476  0.2916
 1429POPC   C3B17147   3.508   3.716  17.599  0.1363 -0.0705  0.0914
 1429POPC   C4B17148   3.901   3.734  17.382 -0.0948  0.0818  0.1116
 1430POPC   NC317149  11.461   6.348  17.824 -0.0896  0.3342  0.3110
 1430POPC   PO417150  11.474   6.113  17.474 -0.1085 -0.3204  0.2487
 1430POPC   GL117151  11.653   6.341  17.170 -0.0273  0.0068  0.1244
 1430POPC   GL217152  11.540   6.664  17.292  0.2582  0.0040 -0.1831
 1430POPC   C1A17153  12.056   6.564  17.046  0.0040  0.0666  0.1476
 1430POPC   D2A17154  12.367   6.903  17.133  0.0260  0.0830 -0.1966
 1430POPC   C3A17155  12.664   7.018  16.773 -0.0753 -0.2063  0.1920
 1430POPC   C4A17156  12.787   7.226  16.443 -0.0776 -0.0866 -0.1220
 1430POPC   C1B17157  11.837   6.985  17.147 -0.0869 -0.0567  0.6224
 1430POPC   C2B17158  12.119   7.091  16.762 -0.0372  0.3498  0.0483
 1430POPC   C3B17159  12.273   7.461  16.511 -0.0412 -0.3178  0.2252
 1430POPC   C4B17160  12.512   7.510  16.113  0.1566 -0.0623  0.2643
 1431POPC   NC317161   0.315  16.523  20.056 -0.0401 -0.2880 -0.0914
 1431POPC   PO417162   0.362  16.090  20.085  0.1064 -0.0876  0.2715
 1431POPC   GL117163   0.289  16.021  19.693 -0.0658  0.0854  0.4541
 1431POPC   GL217164   0.199  16.308  19.649 -0.0250 -0.0879  0.2810
 1431POPC   C1A17165   0.398  16.100  19.264  0.0336 -0.2026  0.0297
 1431POPC   D2A17166   0.527  15.721  19.008 -0.1789 -0.0004 -0.1074
 1431POPC   C3A17167   0.365  15.360  18.855  0.1897  0.0170  0.0771
 1431POPC   C4A17168   0.424  15.125  18.475  0.2649  0.3080 -0.0671
 1431POPC   C1B17169  -0.064  16.275  19.269 -0.0562 -0.0119  0.2370
 1431POPC   C2B17170  -0.090  16.168  18.879 -0.0639  0.3137 -0.0783
 1431POPC   C3B17171   0.048  16.006  18.500 -0.1075  0.0939  0.1803
 1431POPC   C4B17172   0.239  15.629  18.403 -0.2061 -0.1679 -0.3390
 1432POPC   NC317173   5.351   3.416  19.413  0.1398  0.0147 -0.0718
 1432POPC   PO417174   5.276   3.565  19.057  0.1854 -0.0892 -0.0155
 1432POPC   GL117175   5.143   3.488  18.699 -0.0648 -0.0714 -0.1047
 1432POPC   GL217176   4.964   3.226  18.723  0.0390  0.1014 -0.2556
 1432POPC   C1A17177   5.306   3.468  18.264  0.3258 -0.1269  0.0531
 1432POPC   D2A17178   5.153   3.671  17.846  0.0129 -0.1356  0.4694
 1432POPC   C3A17179   4.838   3.553  17.531  0.2255  0.0694 -0.1419
 1432POPC   C4A17180   4.366   3.669  17.529 -0.1568 -0.2323  0.1294
 1432POPC   C1B17181   4.824   3.440  18.301 -0.0049 -0.1905  0.0715
 1432POPC   C2B17182   4.578   3.508  17.953  0.2047 -0.1088 -0.0698
 1432POPC   C3B17183   4.343   3.177  17.771  0.2461  0.3463 -0.0091
 1432POPC   C4B17184   4.109   3.275  17.354  0.3746  0.0948 -0.3165
 1433POPC   NC317185   0.358   1.562  19.708 -0.2442  0.0535  0.1793
 1433POPC   PO417186   0.225   1.887  19.532 -0.0582 -0.0286 -0.1576
 1433POPC   GL117187   0.165   1.609  19.246 -0.2181 -0.3041  0.0351
 1433POPC   GL217188  -0.001   1.743  19.094  0.1214 -0.1881 -0.0677
 1433POPC   C1A17189   0.330   1.501  18.834 -0.1694  0.1160 -0.1261
 1433POPC   D2A17190   0.251   1.242  18.473 -0.2210 -0.0739 -0.1133
 1433POPC   C3A17191   0.415   0.832  18.333 -0.0222  0.2696  0.0506
 1433POPC   C4A17192   0.375   0.420  18.015  0.0702 -0.0701 -0.1764
 1433POPC   C1B17193  -0.003   1.949  18.679 -0.2697 -0.1486 -0.2083
 1433POPC   C2B17194   0.162   2.136  18.320  0.1937 -0.0446 -0.3050
 1433POPC   C3B17195   0.315   2.490  18.114  0.2134 -0.0230  0.2808
 1433POPC   C4B17196   0.447   2.571  17.663 -0.2271  0.2071 -0.1764
 1434POPC   NC317197  10.528   2.020  19.259  0.2345  0.1871 -0.0622
 1434POPC   PO417198  10.371   1.843  18.957  0.1662  0.0070 -0.2244
 1434POPC   GL117199  10.395   1.585  18.604 -0.2729 -0.0045  0.0382
 1434POPC   GL217200  10.266   1.385  18.782 -0.1623  0.1761 -0.1679
 1434POPC   C1A17201  10.606   1.477  18.197  0.1274  0.0966  0.1248
 1434POPC   D2A17202  10.642   1.091  17.971 -0.0877  0.1280 -0.1533
 1434POPC   C3A17203  10.568   0.883  17.513  0.1445 -0.2365 -0.3968
 1434POPC   C4A17204  10.402   0.455  17.328  0.3447 -0.0257  0.3230
 1434POPC   C1B17205  10.161   1.395  18.275  0.1516 -0.4391 -0.0460
 1434POPC   C2B17206  10.120   1.261  17.887  0.0557 -0.3054  0.1737
 1434POPC   C3B17207  10.049   1.366  17.454  0.2216 -0.0090  0.2605
 1434POPC   C4B17208  10.207   1.209  17.056  0.0536 -0.0498  0.2422
 1435POPC   NC317209   1.723  13.475  20.411  0.0620  0.0141  0.2273
 1435POPC   PO417210   1.421  13.352  20.625  0.0760  0.2037  0.2098
 1435POPC   GL117211   1.266  13.441  20.319  0.2000  0.0704  0.4162
 1435POPC   GL217212   1.154  13.678  20.225  0.0146  0.0638  0.1122
 1435POPC   C1A17213   1.341  13.483  19.855  0.0894  0.0794  0.2744
 1435POPC   D2A17214   1.469  13.382  19.484 -0.3876 -0.1833 -0.0611
 1435POPC   C3A17215   1.594  13.523  19.089 -0.1924 -0.2340  0.1892
 1435POPC   C4A17216   1.507  13.742  18.734  0.3449  0.0018 -0.1698
 1435POPC   C1B17217   0.875  13.385  20.015 -0.0848 -0.1462  0.0609
 1435POPC   C2B17218   0.942  13.279  19.588  0.1937  0.2157 -0.0691
 1435POPC   C3B17219   0.948  13.206  19.184  0.2409 -0.1426 -0.0369
 1435POPC   C4B17220   0.655  13.211  18.784  0.0433 -0.0902 -0.2092
 1436POPC   NC317221   4.261   2.250  18.936 -0.3008 -0.2580 -0.0041
 1436POPC   PO417222   4.200   2.591  19.131  0.0475  0.0863  0.2779
 1436POPC   GL117223   3.841   2.504  18.902 -0.1440  0.1399  0.2507
 1436POPC   GL217224   3.884   2.692  18.756  0.1238  0.0835  0.3510
 1436POPC   C1A17225   3.622   2.139  18.707 -0.3284  0.2240  0.0761
 1436POPC   D2A17226   3.261   2.159  18.379 -0.0429  0.0133 -0.0605
 1436POPC   C3A17227   3.212   1.867  18.060  0.2100 -0.2444  0.2800
 1436POPC   C4A17228   2.893   1.619  17.859  0.1442 -0.2931  0.5494
 1436POPC   C1B17229   3.678   2.994  18.432 -0.3360  0.1668 -0.2145
 1436POPC   C2B17230   3.540   3.033  18.006  0.1086 -0.0545 -0.3483
 1436POPC   C3B17231   3.211   3.270  17.693 -0.2039  0.0652 -0.1948
 1436POPC   C4B17232   2.772   3.465  17.617 -0.1823 -0.1297  0.1787
 1437POPC   NC317233   6.968  13.378  20.221  0.2398 -0.0221 -0.2595
 1437POPC   PO417234   7.262  13.623  20.373 -0.0275  0.0985 -0.1691
 1437POPC   GL117235   7.206  13.759  20.059  0.2119  0.0914  0.0929
 1437POPC   GL217236   7.248  14.068  20.064  0.1228 -0.0672  0.0691
 1437POPC   C1A17237   7.145  13.623  19.565 -0.3924  0.1689  0.0130
 1437POPC   D2A17238   6.839  13.500  19.287  0.1983  0.1191 -0.0693
 1437POPC   C3A17239   6.383  13.461  19.462 -0.2175 -0.0708  0.2502
 1437POPC   C4A17240   5.973  13.543  19.623 -0.1236  0.1215  0.1745
 1437POPC   C1B17241   7.555  13.952  19.705  0.3049 -0.2168 -0.1107
 1437POPC   C2B17242   7.797  14.238  19.396  0.0555 -0.1037  0.0053
 1437POPC   C3B17243   8.075  14.214  19.007  0.0828  0.0331 -0.0110
 1437POPC   C4B17244   8.401  14.072  18.769 -0.1318 -0.1086 -0.0118
 1438POPC   NC317245   4.716  11.096  20.308  0.1594  0.0651 -0.0127
 1438POPC   PO417246   5.055  11.196  20.401 -0.0944 -0.1928  0.2028
 1438POPC   GL117247   4.917  11.439  20.055 -0.1768 -0.3590 -0.0617
 1438POPC   GL217248   4.829  11.676  20.199 -0.1519  0.0744  0.0415
 1438POPC   C1A17249   5.187  11.619  19.723  0.1761 -0.2265  0.0257
 1438POPC   D2A17250   5.057  11.778  19.328  0.1139  0.1237 -0.1344
 1438POPC   C3A17251   4.767  12.096  19.270 -0.1808 -0.0560 -0.4041
 1438POPC   C4A17252   4.822  12.449  18.945 -0.0958 -0.0015 -0.0185
 1438POPC   C1B17253   4.413  11.617  20.043 -0.1573  0.2100  0.3614
 1438POPC   C2B17254   4.172  11.612  19.632  0.1158 -0.0453  0.0670
 1438POPC   C3B17255   4.260  11.464  19.233 -0.0910  0.1083  0.1623
 1438POPC   C4B17256   4.270  11.428  18.739 -0.3123  0.2206 -0.0187
 1439POPC   NC317257  10.044   4.431  15.623 -0.1666  0.0972  0.0399
 1439POPC   PO417258  10.432   4.384  15.735  0.1387  0.0763 -0.0317
 1439POPC   GL117259  10.645   4.047  15.663 -0.0948 -0.0605  0.1259
 1439POPC   GL217260  10.898   4.018  15.701 -0.1093  0.1346  0.2021
 1439POPC   C1A17261  10.635   3.625  15.437  0.0521  0.1423 -0.1795
 1439POPC   D2A17262  10.648   3.179  15.228 -0.3958  0.1336  0.1893
 1439POPC   C3A17263  10.242   3.013  15.142  0.3227  0.0774 -0.1039
 1439POPC   C4A17264   9.971   2.977  14.780 -0.0907 -0.0553 -0.2574
 1439POPC   C1B17265  11.188   3.758  15.447  0.1318 -0.2215 -0.0267
 1439POPC   C2B17266  11.297   3.391  15.168 -0.0338 -0.0586 -0.0220
 1439POPC   C3B17267  11.529   3.157  14.878 -0.0444  0.0349 -0.0314
 1439POPC   C4B17268  11.958   2.967  14.823  0.0262  0.2780 -0.0317
 1440POPC   NC317269   4.413   4.680  19.212 -0.1351 -0.2577  0.0945
 1440POPC   PO417270   4.734   4.837  18.983 -0.0443 -0.1393 -0.0558
 1440POPC   GL117271   4.582   4.936  18.644  0.0521 -0.4592  0.1696
 1440POPC   GL217272   4.743   4.897  18.463 -0.0508 -0.1588 -0.0709
 1440POPC   C1A17273   4.253   4.667  18.473  0.0336 -0.0411  0.4657
 1440POPC   D2A17274   3.871   4.512  18.221  0.0492  0.0396 -0.1977
 1440POPC   C3A17275   3.822   4.577  17.778 -0.2118  0.1275  0.2155
 1440POPC   C4A17276   3.897   4.850  17.375 -0.1030  0.4373 -0.1645
 1440POPC   C1B17277   4.567   4.854  18.073  0.1941 -0.1592  0.1093
 1440POPC   C2B17278   4.355   4.808  17.668  0.2475 -0.1011 -0.1638
 1440POPC   C3B17279   4.360   5.001  17.283 -0.2067  0.2819  0.1373
 1440POPC   C4B17280   4.081   4.983  16.911  0.0846  0.1065 -0.1823
 1441POPC   NC317281   8.666   1.724  19.307 -0.0076  0.1836 -0.0872
 1441POPC   PO417282   8.424   1.842  19.003 -0.0914  0.0267  0.4294
 1441POPC   GL117283   8.488   1.575  18.711  0.0915 -0.0010 -0.3810
 1441POPC   GL217284   8.594   1.336  18.834  0.0040  0.0674 -0.2537
 1441POPC   C1A17285   8.289   1.287  18.439 -0.0927 -0.0236 -0.3151
 1441POPC   D2A17286   7.994   0.894  18.385 -0.0254 -0.0198 -0.4195
 1441POPC   C3A17287   8.211   0.626  18.672 -0.0159  0.0978  0.3070
 1441POPC   C4A17288   8.222   0.243  18.854  0.2377  0.2788  0.0069
 1441POPC   C1B17289   8.704   1.002  18.540 -0.3616 -0.0559 -0.0968
 1441POPC   C2B17290   8.506   0.815  18.207  0.2930  0.0812  0.1149
 1441POPC   C3B17291   8.179   0.592  17.921 -0.2338  0.0094 -0.2350
 1441POPC   C4B17292   7.931   0.556  17.582  0.0507  0.1082 -0.0969
 1442POPC   NC317293  12.808   4.466  18.309 -0.0324 -0.1910 -0.1250
 1442POPC   PO417294  12.543   4.211  18.308  0.0141  0.1006  0.0590
 1442POPC   GL117295  12.637   4.281  17.901 -0.3626  0.2537 -0.0534
 1442POPC   GL217296  12.823   4.039  17.837 -0.0591 -0.0469 -0.2918
 1442POPC   C1A17297  12.939   4.589  17.667  0.1685 -0.1256 -0.0450
 1442POPC   D2A17298  13.158   4.705  17.289  0.2151 -0.2381  0.2517
 1442POPC   C3A17299  13.315   4.650  16.877  0.1318  0.0411  0.1414
 1442POPC   C4A17300  13.483   4.832  16.445 -0.3256  0.0443 -0.1244
 1442POPC   C1B17301  13.250   3.839  17.821 -0.0112  0.0492  0.2490
 1442POPC   C2B17302  13.610   3.642  17.480  0.0653 -0.0913  0.2666
 1442POPC   C3B17303  13.557   3.524  17.034 -0.0422 -0.1181  0.1158
 1442POPC   C4B17304  13.698   3.818  16.662  0.1994  0.1525  0.1583
 1443POPC   NC317305  16.299   4.985  19.501 -0.1711 -0.0294  0.0892
 1443POPC   PO417306  16.177   4.609  19.679 -0.1576  0.0759 -0.0266
 1443POPC   GL117307  16.532   4.563  19.376 -0.5184 -0.3267 -0.3199
 1443POPC   GL217308  16.780   4.345  19.356  0.2808  0.4896  0.0165
 1443POPC   C1A17309  16.471   4.626  18.902 -0.0254  0.2998 -0.1545
 1443POPC   D2A17310  16.340   4.616  18.449 -0.3053  0.1540 -0.0027
 1443POPC   C3A17311  16.594   4.443  18.101  0.1135 -0.1487  0.0894
 1443POPC   C4A17312  16.448   4.187  17.774  0.2640  0.0303  0.2630
 1443POPC   C1B17313  16.885   4.063  18.966  0.2938 -0.5168  0.2670
 1443POPC   C2B17314  16.786   3.893  18.523 -0.1453  0.1895  0.1645
 1443POPC   C3B17315  16.783   3.931  18.021 -0.0113  0.0708  0.1596
 1443POPC   C4B17316  16.932   3.672  17.648  0.2187  0.2605 -0.1722
 1444POPC   NC317317   5.058   4.463  18.821  0.0854 -0.1393  0.0304
 1444POPC   PO417318   5.237   4.447  18.470 -0.2385 -0.0289  0.0319
 1444POPC   GL117319   4.940   4.490  18.255  0.0498 -0.5785 -0.0636
 1444POPC   GL217320   4.655   4.447  18.321 -0.0527 -0.0667  0.0468
 1444POPC   C1A17321   4.889   4.546  17.811 -0.0477  0.0109 -0.0919
 1444POPC   D2A17322   5.123   4.482  17.385 -0.2902  0.0166 -0.0544
 1444POPC   C3A17323   4.993   4.424  16.933 -0.0958 -0.1586  0.3349
 1444POPC   C4A17324   4.960   4.460  16.525  0.1783 -0.0631  0.2234
 1444POPC   C1B17325   4.417   4.350  17.917 -0.0956 -0.1615  0.4365
 1444POPC   C2B17326   4.125   4.304  17.542  0.1125  0.1460 -0.0140
 1444POPC   C3B17327   3.722   4.210  17.350  0.0451 -0.1148  0.0819
 1444POPC   C4B17328   3.279   4.165  17.460 -0.0632  0.1132 -0.0510
 1445POPC   NC317329   8.523   5.292  14.683 -0.0472 -0.0253  0.3445
 1445POPC   PO417330   8.195   5.327  14.876  0.2702  0.1525 -0.2117
 1445POPC   GL117331   7.922   5.433  14.713  0.2517  0.1085  0.0913
 1445POPC   GL217332   7.656   5.330  14.896  0.0122  0.0920  0.3053
 1445POPC   C1A17333   7.794   5.851  14.551  0.0999 -0.2133 -0.2584
 1445POPC   D2A17334   7.618   6.000  14.128  0.2509  0.2812  0.0194
 1445POPC   C3A17335   7.251   6.256  14.012 -0.1003 -0.1457  0.1497
 1445POPC   C4A17336   6.879   6.474  13.899  0.2372  0.2306  0.1135
 1445POPC   C1B17337   7.389   5.165  14.500 -0.1468 -0.0248 -0.2725
 1445POPC   C2B17338   7.329   5.212  14.025 -0.1690 -0.3478  0.0288
 1445POPC   C3B17339   7.213   5.344  13.635 -0.0173 -0.0364  0.0221
 1445POPC   C4B17340   7.159   5.397  13.183 -0.1398  0.1898 -0.2531
 1446POPC   NC317341  10.512  12.945  20.637  0.2914  0.1323 -0.5046
 1446POPC   PO417342  10.542  12.520  20.667 -0.1081  0.0717  0.0987
 1446POPC   GL117343  10.641  12.484  20.349 -0.0994 -0.1084  0.1799
 1446POPC   GL217344  10.389  12.695  20.215  0.1466  0.1120  0.0037
 1446POPC   C1A17345  10.633  12.211  19.984  0.1820  0.2002 -0.2337
 1446POPC   D2A17346  10.655  12.126  19.511 -0.1946  0.1383  0.0322
 1446POPC   C3A17347  10.341  12.455  19.299  0.0010  0.0289  0.0793
 1446POPC   C4A17348  10.041  12.597  18.969 -0.1658 -0.1112  0.2130
 1446POPC   C1B17349  10.460  12.647  19.710  0.0462 -0.4093 -0.3520
 1446POPC   C2B17350  10.650  12.842  19.333 -0.0946 -0.4543  0.1376
 1446POPC   C3B17351  10.686  13.276  19.138  0.0409  0.2216 -0.0715
 1446POPC   C4B17352  11.177  13.452  19.097 -0.0531  0.2085  0.1424
 1447POPC   NC317353  10.137  31.370  20.410 -0.5738  0.0612 -0.0629
 1447POPC   PO417354  10.192  31.712  20.179  0.1193 -0.0595  0.0206
 1447POPC   GL117355  10.020  31.301  19.916  0.0338  0.1038 -0.0347
 1447POPC   GL217356  10.023  31.063  19.832  0.3032  0.0427 -0.0368
 1447POPC   C1A17357   9.569  31.196  19.728  0.2304  0.3574 -0.0163
 1447POPC   D2A17358   9.190  31.366  19.472  0.0320 -0.0978 -0.1154
 1447POPC   C3A17359   9.255  31.392  18.976  0.1800 -0.0155  0.0222
 1447POPC   C4A17360   9.240  31.456  18.516 -0.2945 -0.1180 -0.3655
 1447POPC   C1B17361  10.032  31.090  19.366 -0.2179 -0.0348  0.3618
 1447POPC   C2B17362  10.057  31.110  18.947  0.1159  0.2142 -0.2853
 1447POPC   C3B17363  10.105  31.275  18.508  0.0388 -0.0951  0.0603
 1447POPC   C4B17364   9.780  31.321  18.183  0.0546 -0.0650  0.1127
 1448POPC   NC317365  13.221   7.355  19.531 -0.2034  0.0113  0.1534
 1448POPC   PO417366  12.869   7.496  19.504  0.3195  0.3080 -0.0607
 1448POPC   GL117367  13.082   7.681  19.232 -0.0246 -0.1563 -0.0620
 1448POPC   GL217368  13.324   7.654  19.120 -0.0643  0.3211  0.0929
 1448POPC   C1A17369  13.003   7.928  18.811  0.1086  0.1112  0.1201
 1448POPC   D2A17370  13.057   8.162  18.386  0.2043 -0.1220  0.0849
 1448POPC   C3A17371  13.392   8.254  18.080 -0.1432 -0.0137 -0.2493
 1448POPC   C4A17372  13.778   8.170  17.696  0.1778 -0.1249 -0.0339
 1448POPC   C1B17373  13.550   7.859  18.753  0.0160 -0.1333 -0.0693
 1448POPC   C2B17374  13.652   7.922  18.339 -0.1674 -0.0852  0.0770
 1448POPC   C3B17375  13.881   7.773  17.943 -0.3256  0.0095 -0.0504
 1448POPC   C4B17376  13.720   7.689  17.532 -0.0870 -0.1611 -0.0566
 1449POPC   NC317377   0.049  15.209  20.463  0.1134 -0.2657 -0.3274
 1449POPC   PO417378   0.063  14.909  20.724  0.1068 -0.0904  0.3703
 1449POPC   GL117379  -0.145  14.799  20.388  0.0397 -0.2148 -0.1909
 1449POPC   GL217380  -0.341  14.669  20.222 -0.1520 -0.2295  0.2077
 1449POPC   C1A17381  -0.195  15.095  19.989 -0.1361  0.2559 -0.0452
 1449POPC   D2A17382  -0.389  15.395  19.639  0.0692  0.0419  0.0655
 1449POPC   C3A17383  -0.420  15.505  19.221 -0.0010  0.3427  0.0717
 1449POPC   C4A17384  -0.428  15.948  19.155  0.0514 -0.1484 -0.1642
 1449POPC   C1B17385  -0.128  14.537  19.849 -0.1694  0.3594  0.1703
 1449POPC   C2B17386   0.120  14.451  19.415  0.3413 -0.0315  0.2437
 1449POPC   C3B17387   0.270  14.764  19.059  0.2584 -0.0428  0.5209
 1449POPC   C4B17388   0.625  14.887  18.888  0.0343 -0.1744 -0.1162
 1450POPC   NC317389  14.041   6.483  19.646 -0.1256  0.2397  0.0632
 1450POPC   PO417390  13.991   6.830  19.477 -0.0109 -0.0120  0.0113
 1450POPC   GL117391  14.077   6.773  19.106  0.0857  0.2878 -0.0477
 1450POPC   GL217392  14.193   7.103  19.097  0.0261  0.2078  0.3485
 1450POPC   C1A17393  14.169   6.432  18.770 -0.0169  0.2215 -0.2720
 1450POPC   D2A17394  14.426   6.119  18.542  0.0299  0.2044 -0.1273
 1450POPC   C3A17395  14.476   6.246  18.109  0.1720  0.1625 -0.2237
 1450POPC   C4A17396  14.720   6.470  17.736 -0.0809 -0.0288 -0.1990
 1450POPC   C1B17397  14.347   7.297  18.668  0.1976  0.0038  0.0548
 1450POPC   C2B17398  14.224   7.681  18.356  0.1504 -0.1497  0.2394
 1450POPC   C3B17399  14.395   7.854  17.975  0.1818 -0.1760  0.0535
 1450POPC   C4B17400  14.708   7.803  17.602  0.0738  0.2774  0.0851
 1451POPC   NC317401   6.250  15.748  20.374  0.3164  0.0328 -0.0271
 1451POPC   PO417402   6.184  16.120  20.265  0.3706 -0.2172  0.0789
 1451POPC   GL117403   5.907  16.057  19.965 -0.1483  0.0331 -0.0372
 1451POPC   GL217404   5.941  15.776  19.971  0.4409  0.1043  0.1239
 1451POPC   C1A17405   5.530  16.169  19.809  0.1884  0.1725  0.2484
 1451POPC   D2A17406   5.224  16.464  19.641  0.0196  0.4497  0.2939
 1451POPC   C3A17407   5.140  16.429  19.199 -0.0037  0.1962  0.0694
 1451POPC   C4A17408   5.165  16.376  18.706 -0.0973  0.2761 -0.2135
 1451POPC   C1B17409   5.577  15.621  19.713  0.0396 -0.2455 -0.0043
 1451POPC   C2B17410   5.244  15.912  19.491 -0.2618  0.1265 -0.1221
 1451POPC   C3B17411   5.073  15.917  19.085  0.3081  0.2002 -0.1024
 1451POPC   C4B17412   5.167  15.818  18.644  0.1202 -0.3290 -0.0734
 1452POPC   NC317413   5.562   4.624  18.146  0.0638 -0.2095 -0.2637
 1452POPC   PO417414   5.912   4.777  18.098  0.0937  0.2466 -0.0237
 1452POPC   GL117415   5.739   4.831  17.805  0.3258  0.2927  0.0157
 1452POPC   GL217416   5.917   5.019  17.562  0.1425 -0.0581 -0.2116
 1452POPC   C1A17417   5.324   4.914  17.590 -0.0249 -0.0571  0.1769
 1452POPC   D2A17418   4.871   4.931  17.466  0.1710  0.1480  0.3680
 1452POPC   C3A17419   4.629   4.535  17.318 -0.0849 -0.1301 -0.2190
 1452POPC   C4A17420   4.249   4.425  17.089  0.0839 -0.0427 -0.0675
 1452POPC   C1B17421   5.721   4.731  17.269  0.0153 -0.2756 -0.1183
 1452POPC   C2B17422   5.349   4.830  17.056  0.3166 -0.0766  0.0262
 1452POPC   C3B17423   4.885   4.857  16.988 -0.1764 -0.1221  0.2016
 1452POPC   C4B17424   4.538   5.083  16.746  0.0319  0.0512  0.0906
 1453POPC   NC317425  16.027  11.013  20.970 -0.0502  0.0281  0.4449
 1453POPC   PO417426  15.688  10.825  20.821 -0.0898 -0.0691 -0.1835
 1453POPC   GL117427  15.619  10.884  20.457  0.0543  0.1431  0.0221
 1453POPC   GL217428  15.516  10.661  20.311  0.1193 -0.0658 -0.0755
 1453POPC   C1A17429  15.563  11.219  20.115  0.0156  0.3259  0.1227
 1453POPC   D2A17430  15.624  11.701  20.002  0.0638  0.1143  0.3781
 1453POPC   C3A17431  15.592  11.848  19.528  0.2885 -0.0446 -0.2866
 1453POPC   C4A17432  15.533  11.546  19.125 -0.0109  0.3105 -0.0339
 1453POPC   C1B17433  15.669  10.566  19.859  0.2648 -0.4195 -0.0298
 1453POPC   C2B17434  15.935  10.443  19.488 -0.0502 -0.3852  0.0365
 1453POPC   C3B17435  16.190  10.178  19.192 -0.0142  0.1533  0.0115
 1453POPC   C4B17436  16.329   9.900  18.826  0.1519 -0.1085 -0.2483
 1454POPC   NC317437   6.882  11.874  20.410  0.0961 -0.1308 -0.2852
 1454POPC   PO417438   6.971  12.214  20.181 -0.1406  0.0687 -0.2186
 1454POPC   GL117439   7.053  12.040  19.884  0.0906 -0.4542 -0.1614
 1454POPC   GL217440   6.800  12.012  19.759  0.0554  0.0141 -0.1270
 1454POPC   C1A17441   7.075  12.292  19.498  0.1243 -0.2905  0.1070
 1454POPC   D2A17442   6.833  12.648  19.448 -0.1859  0.0115  0.0403
 1454POPC   C3A17443   6.564  12.478  19.127 -0.0175  0.1879 -0.1212
 1454POPC   C4A17444   6.567  12.446  18.612  0.0900 -0.0726  0.1833
 1454POPC   C1B17445   6.578  11.969  19.390 -0.1210 -0.0624 -0.1418
 1454POPC   C2B17446   6.782  12.030  18.970  0.1154 -0.4368 -0.3123
 1454POPC   C3B17447   7.198  11.944  18.728  0.2503 -0.1390  0.0644
 1454POPC   C4B17448   7.600  12.029  18.654  0.1720  0.0673  0.0330
 1455POPC   NC317449   6.022  11.788  20.456 -0.2473 -0.1052 -0.0304
 1455POPC   PO417450   5.648  11.915  20.452  0.2517  0.2132 -0.4921
 1455POPC   GL117451   5.502  11.982  20.176 -0.5115 -0.2796 -0.4102
 1455POPC   GL217452   5.227  12.001  20.097  0.2923  0.0534 -0.0474
 1455POPC   C1A17453   5.699  11.926  19.752 -0.0813  0.0536  0.1002
 1455POPC   D2A17454   5.672  11.983  19.306  0.1000  0.0633 -0.3240
 1455POPC   C3A17455   5.733  12.118  18.861  0.2727  0.0817 -0.0659
 1455POPC   C4A17456   5.453  12.019  18.497  0.1555 -0.1797 -0.0334
 1455POPC   C1B17457   5.256  12.178  19.632  0.0346 -0.0279  0.2172
 1455POPC   C2B17458   5.292  12.289  19.213  0.0574  0.0186  0.1890
 1455POPC   C3B17459   5.374  12.435  18.814  0.3587  0.1238  0.0338
 1455POPC   C4B17460   5.095  12.354  18.466 -0.0206  0.1523 -0.1397
 1456POPC   NC317461  14.311   9.788  20.190 -0.0371 -0.4156  0.0469
 1456POPC   PO417462  14.624   9.892  20.417  0.1533  0.1572  0.0004
 1456POPC   GL117463  14.605  10.175  20.174 -0.3555  0.2806 -0.2777
 1456POPC   GL217464  14.393  10.332  20.273 -0.1622  0.2092 -0.2507
 1456POPC   C1A17465  14.860  10.075  19.802  0.1264 -0.0095 -0.1755
 1456POPC   D2A17466  15.056   9.977  19.376  0.2083 -0.0978 -0.1361
 1456POPC   C3A17467  14.981   9.830  18.936  0.0030 -0.2468  0.2599
 1456POPC   C4A17468  14.778  10.035  18.552  0.1245 -0.1082  0.3306
 1456POPC   C1B17469  14.378  10.272  19.849  0.0466  0.0573 -0.1646
 1456POPC   C2B17470  14.528  10.292  19.406 -0.1661  0.1566  0.3329
 1456POPC   C3B17471  14.819  10.285  19.054 -0.2256 -0.2921 -0.0219
 1456POPC   C4B17472  14.878  10.514  18.647  0.2163  0.1294 -0.0240
 1457POPC   NC317473   8.689  12.279  20.185 -0.1498 -0.0783 -0.1999
 1457POPC   PO417474   8.339  12.222  20.085  0.1807 -0.3064  0.2192
 1457POPC   GL117475   8.545  12.396  19.786  0.2699 -0.0646  0.1138
 1457POPC   GL217476   8.678  12.108  19.720  0.5269 -0.2620  0.1869
 1457POPC   C1A17477   8.842  12.737  19.742  0.1316 -0.0704 -0.0948
 1457POPC   D2A17478   9.259  12.801  19.447 -0.0442  0.0747  0.1784
 1457POPC   C3A17479   9.211  12.765  19.013 -0.0665  0.2348 -0.0836
 1457POPC   C4A17480   9.024  12.653  18.636 -0.0387 -0.4328  0.0977
 1457POPC   C1B17481   8.485  12.223  19.301 -0.4993 -0.0977 -0.3745
 1457POPC   C2B17482   8.283  12.382  18.914  0.1015  0.3724  0.0049
 1457POPC   C3B17483   8.369  12.529  18.493 -0.2346  0.2412 -0.2357
 1457POPC   C4B17484   8.608  12.749  18.210 -0.1265 -0.1776 -0.1010
 1458POPC   NC317485  11.105   5.685  12.359  0.2359  0.4418 -0.1218
 1458POPC   PO417486  10.819   5.499  12.625  0.2002  0.0106  0.0904
 1458POPC   GL117487  11.009   5.537  12.978 -0.0362 -0.2345 -0.2875
 1458POPC   GL217488  11.277   5.401  12.905 -0.2012  0.1076 -0.1139
 1458POPC   C1A17489  11.128   5.439  13.416  0.0393 -0.1842  0.1189
 1458POPC   D2A17490  11.283   5.199  13.811 -0.0883  0.1556  0.1209
 1458POPC   C3A17491  11.542   5.471  14.067 -0.2837 -0.1827 -0.0522
 1458POPC   C4A17492  11.759   5.343  14.456 -0.0307  0.3212  0.2063
 1458POPC   C1B17493  11.499   5.392  12.507  0.2751  0.0329 -0.1595
 1458POPC   C2B17494  11.579   5.182  12.125 -0.0515  0.1145 -0.3524
 1458POPC   C3B17495  11.751   5.177  11.713  0.1780 -0.1523 -0.1394
 1458POPC   C4B17496  12.182   5.282  11.620 -0.1346 -0.0532  0.1915
 1459POPC   NC317497  15.580   2.086  20.099 -0.0117  0.0517  0.2623
 1459POPC   PO417498  15.937   2.154  20.029 -0.1111  0.2923  0.0541
 1459POPC   GL117499  15.909   2.020  19.730  0.0236 -0.0080 -0.1321
 1459POPC   GL217500  15.598   2.038  19.598 -0.0070  0.0208 -0.0303
 1459POPC   C1A17501  16.076   2.014  19.300 -0.1256  0.1839 -0.1289
 1459POPC   D2A17502  16.212   2.337  19.000  0.2297  0.0795 -0.1996
 1459POPC   C3A17503  15.976   2.348  18.608  0.1124  0.0215  0.1446
 1459POPC   C4A17504  15.651   2.581  18.382  0.3647  0.0019  0.1169
 1459POPC   C1B17505  15.709   1.631  19.420 -0.0056  0.0341 -0.0238
 1459POPC   C2B17506  15.957   1.258  19.191  0.2238  0.2882  0.1852
 1459POPC   C3B17507  16.095   0.937  18.872  0.0010 -0.4092  0.1181
 1459POPC   C4B17508  16.489   0.745  18.794 -0.4137  0.2361 -0.1769
 1460POPC   NC317509   6.331   6.884  19.072 -0.1152 -0.0829 -0.1400
 1460POPC   PO417510   6.071   7.186  19.084  0.0897 -0.0191 -0.0534
 1460POPC   GL117511   6.013   7.443  18.823 -0.4162  0.0814 -0.0304
 1460POPC   GL217512   6.288   7.474  18.728  0.2134  0.1666 -0.0308
 1460POPC   C1A17513   6.008   7.884  18.780  0.0937  0.0041  0.1327
 1460POPC   D2A17514   5.872   8.309  18.602 -0.1013 -0.0404  0.0692
 1460POPC   C3A17515   5.497   8.579  18.428  0.1076  0.1469  0.0384
 1460POPC   C4A17516   5.129   8.891  18.287  0.1477  0.0269  0.1096
 1460POPC   C1B17517   6.169   7.361  18.277  0.0847 -0.1263 -0.0541
 1460POPC   C2B17518   5.854   7.050  18.119 -0.0967  0.1039 -0.1044
 1460POPC   C3B17519   5.598   6.647  18.285  0.0923 -0.0349  0.1476
 1460POPC   C4B17520   5.137   6.640  18.333 -0.1569  0.0984 -0.0580
 1461POPC   NC317521   1.925  15.627  20.305 -0.1295 -0.0390 -0.2385
 1461POPC   PO417522   1.668  15.941  20.328  0.1492  0.0037 -0.2483
 1461POPC   GL117523   1.495  15.845  19.974 -0.0696 -0.1304  0.1924
 1461POPC   GL217524   1.205  15.675  20.047 -0.0094  0.2457  0.3177
 1461POPC   C1A17525   1.245  16.114  19.704  0.2976 -0.0205 -0.0617
 1461POPC   D2A17526   0.790  16.274  19.603  0.1221 -0.0060  0.2164
 1461POPC   C3A17527   0.831  16.523  19.185 -0.2388  0.4999  0.2223
 1461POPC   C4A17528   1.007  16.507  18.747  0.1088  0.1021  0.1560
 1461POPC   C1B17529   1.157  15.443  19.629 -0.0073 -0.0443 -0.0807
 1461POPC   C2B17530   1.403  15.271  19.279 -0.0152  0.1087  0.1566
 1461POPC   C3B17531   1.649  15.161  18.907 -0.2714  0.1965  0.0304
 1461POPC   C4B17532   1.618  14.805  18.578  0.0124 -0.2253  0.1145
 1462POPC   NC317533   6.556   2.760  18.102  0.0171 -0.0224 -0.1090
 1462POPC   PO417534   6.299   2.890  18.395 -0.2319  0.0135  0.2102
 1462POPC   GL117535   6.015   2.914  18.037 -0.1490 -0.0950  0.1816
 1462POPC   GL217536   6.185   3.050  17.849  0.1800  0.1764 -0.1141
 1462POPC   C1A17537   5.636   2.856  17.797 -0.0482 -0.2130 -0.0979
 1462POPC   D2A17538   5.274   2.986  17.532  0.0778 -0.1964  0.2472
 1462POPC   C3A17539   5.349   2.717  17.117  0.1511 -0.1345  0.0283
 1462POPC   C4A17540   5.689   2.501  16.939 -0.4432  0.0485  0.1063
 1462POPC   C1B17541   6.009   2.994  17.423  0.0460 -0.0570  0.0635
 1462POPC   C2B17542   5.798   2.982  16.988 -0.0039  0.1225  0.0519
 1462POPC   C3B17543   5.920   2.850  16.593  0.1064  0.1678 -0.0214
 1462POPC   C4B17544   6.182   2.917  16.196  0.1657  0.1186 -0.3618
 1463POPC   NC317545  11.365   2.792  17.949  0.2428 -0.0124 -0.1293
 1463POPC   PO417546  11.427   3.151  17.778  0.0624  0.1575  0.3267
 1463POPC   GL117547  11.506   2.851  17.507  0.0695 -0.1278 -0.2350
 1463POPC   GL217548  11.342   3.012  17.254  0.1324  0.2810  0.0176
 1463POPC   C1A17549  11.854   2.732  17.234  0.1806 -0.0030 -0.1943
 1463POPC   D2A17550  12.128   2.985  16.990  0.1408  0.0529 -0.2545
 1463POPC   C3A17551  12.335   2.802  16.556 -0.0692  0.2014  0.0408
 1463POPC   C4A17552  12.627   2.907  16.185  0.1751 -0.0036  0.0227
 1463POPC   C1B17553  11.607   3.059  16.847 -0.2119 -0.0715 -0.0596
 1463POPC   C2B17554  11.862   3.077  16.464  0.4231  0.0230  0.1873
 1463POPC   C3B17555  12.137   2.923  16.130 -0.0705  0.2081  0.0697
 1463POPC   C4B17556  12.423   2.971  15.740  0.0130  0.1159  0.4445
 1464POPC   NC317557   1.546  32.587  20.293  0.0879  0.0028  0.0637
 1464POPC   PO417558   1.747  32.910  20.453 -0.0034 -0.0021 -0.4107
 1464POPC   GL117559   1.721  32.965  20.089 -0.1285 -0.4404 -0.1400
 1464POPC   GL217560   2.029  33.065  20.016 -0.1429 -0.1328  0.0374
 1464POPC   C1A17561   1.481  33.172  19.739 -0.0107 -0.0529  0.2584
 1464POPC   D2A17562   1.449  33.167  19.255 -0.2061 -0.1767 -0.0915
 1464POPC   C3A17563   0.993  33.150  19.110  0.0964 -0.2143 -0.1151
 1464POPC   C4A17564   0.617  33.379  18.994  0.0643 -0.1290  0.1200
 1464POPC   C1B17565   1.984  33.092  19.562 -0.3282  0.1887 -0.2619
 1464POPC   C2B17566   2.045  33.013  19.104  0.2027  0.0966 -0.0248
 1464POPC   C3B17567   2.098  32.843  18.679  0.2302  0.1219  0.1936
 1464POPC   C4B17568   2.149  32.611  18.271  0.0546 -0.1643  0.0711
 1465POPC   NC317569   9.083   4.768  12.801 -0.3827  0.1581 -0.0190
 1465POPC   PO417570   8.861   5.068  12.863 -0.1124 -0.2319  0.0266
 1465POPC   GL117571   8.490   4.750  12.824 -0.0211  0.2880 -0.0270
 1465POPC   GL217572   8.651   4.528  12.822 -0.0961 -0.0515  0.0507
 1465POPC   C1A17573   8.047   4.774  12.714 -0.0454 -0.3762  0.1426
 1465POPC   D2A17574   7.638   4.697  12.574  0.0232 -0.1586  0.1442
 1465POPC   C3A17575   7.395   4.604  12.201  0.0686  0.0811 -0.2599
 1465POPC   C4A17576   7.265   4.576  11.792 -0.3552  0.0577 -0.1175
 1465POPC   C1B17577   8.561   4.046  12.852 -0.1578  0.1913  0.1728
 1465POPC   C2B17578   8.616   3.572  12.860  0.2937 -0.1941 -0.3796
 1465POPC   C3B17579   8.738   3.180  12.688 -0.0075 -0.3357 -0.0248
 1465POPC   C4B17580   8.780   2.896  12.263  0.0482  0.3130  0.0574
 1466POPC   NC317581  14.783   2.221  19.569  0.1027  0.4201 -0.3311
 1466POPC   PO417582  14.456   1.952  19.575  0.0816  0.2255 -0.0235
 1466POPC   GL117583  14.535   2.032  19.209  0.3227 -0.2420  0.0686
 1466POPC   GL217584  14.719   1.727  19.203  0.0076 -0.0413  0.1213
 1466POPC   C1A17585  14.937   2.092  18.963 -0.0210  0.1295  0.2682
 1466POPC   D2A17586  15.200   1.862  18.691  0.0574  0.0868 -0.1599
 1466POPC   C3A17587  15.281   1.421  18.594 -0.4071 -0.0370 -0.2642
 1466POPC   C4A17588  15.560   1.113  18.791  0.1053  0.2053  0.3442
 1466POPC   C1B17589  14.881   1.450  18.889 -0.3281 -0.2060  0.0939
 1466POPC   C2B17590  14.886   1.105  18.576 -0.0752  0.2241 -0.2211
 1466POPC   C3B17591  14.730   1.171  18.140  0.0693 -0.1212 -0.0907
 1466POPC   C4B17592  14.550   1.391  17.753 -0.0408 -0.0179 -0.2011
 1467POPC   NC317593  11.122   4.153  16.717 -0.1118 -0.0522  0.0596
 1467POPC   PO417594  11.178   4.460  16.451  0.0722  0.0198 -0.0535
 1467POPC   GL117595  11.528   4.391  16.575 -0.2068 -0.2940  0.1588
 1467POPC   GL217596  11.479   4.517  16.861 -0.1398  0.3656  0.3011
 1467POPC   C1A17597  11.658   3.959  16.577 -0.1287 -0.0656  0.2257
 1467POPC   D2A17598  11.869   3.703  16.287 -0.0185 -0.1085  0.2827
 1467POPC   C3A17599  11.855   3.322  16.025 -0.1234 -0.2473  0.2514
 1467POPC   C4A17600  11.911   3.083  15.697 -0.2169  0.1270  0.3816
 1467POPC   C1B17601  11.925   4.431  16.762 -0.1236  0.1600 -0.3200
 1467POPC   C2B17602  12.160   4.016  16.584 -0.0724  0.0989 -0.1651
 1467POPC   C3B17603  12.371   3.775  16.217  0.0927  0.3260 -0.1684
 1467POPC   C4B17604  12.386   3.314  16.144  0.2103 -0.2780  0.1374
 1468POPC   NC317605  13.014   9.992  20.417  0.1706 -0.2036 -0.0542
 1468POPC   PO417606  12.641  10.145  20.477  0.0656 -0.1664  0.1977
 1468POPC   GL117607  12.741  10.415  20.048 -0.4188 -0.0884 -0.0135
 1468POPC   GL217608  12.765  10.720  19.988 -0.1447 -0.0518  0.0331
 1468POPC   C1A17609  13.129  10.556  19.793 -0.2244  0.0875  0.2488
 1468POPC   D2A17610  13.449  10.568  19.445  0.0825  0.0610 -0.4821
 1468POPC   C3A17611  13.638  10.487  19.074 -0.3032  0.0312  0.1546
 1468POPC   C4A17612  13.585  10.383  18.657  0.4672 -0.0367  0.0783
 1468POPC   C1B17613  12.568  10.541  19.615  0.2708 -0.1108  0.3145
 1468POPC   C2B17614  12.352  10.250  19.312 -0.0549 -0.5200  0.2642
 1468POPC   C3B17615  11.970  10.244  18.997  0.3037  0.4123  0.0372
 1468POPC   C4B17616  11.730  10.623  18.817  0.2042 -0.0586  0.1593
 1469POPC   NC317617   9.333   9.999  18.995 -0.2422 -0.1844 -0.0291
 1469POPC   PO417618   9.191   9.991  19.372  0.4150  0.1630  0.3402
 1469POPC   GL117619   8.796  10.076  19.122  0.1585  0.2421  0.1819
 1469POPC   GL217620   8.697   9.844  18.977 -0.0777 -0.0343 -0.0581
 1469POPC   C1A17621   8.964  10.195  18.726 -0.3237  0.0068 -0.0139
 1469POPC   D2A17622   9.350  10.241  18.471  0.0525  0.2896 -0.2365
 1469POPC   C3A17623   9.662  10.595  18.415  0.2340  0.3754  0.1943
 1469POPC   C4A17624   9.928  10.889  18.259  0.0653  0.1814 -0.0279
 1469POPC   C1B17625   8.669   9.729  18.573 -0.0351 -0.0384  0.2965
 1469POPC   C2B17626   8.409   9.738  18.241 -0.1223  0.5425  0.2115
 1469POPC   C3B17627   8.363   9.850  17.868  0.0666  0.0433  0.2282
 1469POPC   C4B17628   8.079   9.946  17.526  0.1819  0.1542 -0.1260
 1470POPC   NC317629  10.042  10.490  19.305 -0.2443 -0.1198  0.1266
 1470POPC   PO417630   9.787  10.520  19.572  0.1883 -0.2478  0.0876
 1470POPC   GL117631   9.568  10.306  19.291  0.1323 -0.1467 -0.0634
 1470POPC   GL217632   9.432  10.509  19.152 -0.0930 -0.1426  0.2737
 1470POPC   C1A17633   9.727  10.261  18.844 -0.2452  0.1704 -0.3365
 1470POPC   D2A17634   9.976  10.160  18.470  0.0786  0.0078 -0.0360
 1470POPC   C3A17635   9.817  10.270  18.063  0.2290 -0.1672 -0.0490
 1470POPC   C4A17636   9.371  10.296  17.935 -0.1335  0.0718 -0.0867
 1470POPC   C1B17637   9.501  10.781  18.822  0.0987  0.1699  0.0453
 1470POPC   C2B17638   9.508  11.063  18.432  0.2207 -0.3620 -0.1684
 1470POPC   C3B17639   9.636  11.198  18.009 -0.0600 -0.0998 -0.0747
 1470POPC   C4B17640   9.730  11.457  17.650 -0.2514 -0.2194  0.0173
 1471POPC   NC317641  10.477   7.347  18.223 -0.0302 -0.1004 -0.3500
 1471POPC   PO417642  10.752   7.502  18.460  0.4349  0.3183  0.3339
 1471POPC   GL117643  11.041   7.640  18.227 -0.0096 -0.0659  0.2020
 1471POPC   GL217644  11.204   7.884  18.315 -0.1190  0.1155  0.2906
 1471POPC   C1A17645  11.285   7.659  17.854  0.0856 -0.0856  0.0281
 1471POPC   D2A17646  11.451   7.652  17.445  0.0046 -0.0800 -0.1545
 1471POPC   C3A17647  11.782   7.618  17.218 -0.1179  0.0423 -0.1987
 1471POPC   C4A17648  12.179   7.669  16.954  0.1129  0.0118  0.2060
 1471POPC   C1B17649  11.040   8.072  17.922 -0.1019  0.0246  0.1327
 1471POPC   C2B17650  11.108   8.523  17.690 -0.0133 -0.0906  0.1132
 1471POPC   C3B17651  11.046   8.645  17.248  0.2087  0.2535 -0.0933
 1471POPC   C4B17652  10.858   8.652  16.862 -0.2611 -0.4044  0.2420
 1472POPC   NC317653  13.115   8.738  20.007  0.2569 -0.2354 -0.1431
 1472POPC   PO417654  13.294   9.081  20.106  0.2599  0.5237  0.0160
 1472POPC   GL117655  13.073   9.236  19.812 -0.1470  0.2269  0.2192
 1472POPC   GL217656  13.245   9.518  19.774  0.2316  0.1347  0.3913
 1472POPC   C1A17657  13.144   9.218  19.341 -0.2508 -0.0426  0.0955
 1472POPC   D2A17658  13.124   9.478  18.963  0.1475 -0.1182  0.0512
 1472POPC   C3A17659  13.157   9.566  18.493  0.0861  0.1313 -0.0353
 1472POPC   C4A17660  13.084   9.243  18.137 -0.3593  0.1243  0.0265
 1472POPC   C1B17661  13.204   9.769  19.391  0.0339  0.4401 -0.0271
 1472POPC   C2B17662  13.124  10.250  19.236 -0.0231  0.3745  0.0909
 1472POPC   C3B17663  13.140  10.535  18.883 -0.1462 -0.0310  0.2957
 1472POPC   C4B17664  13.207  10.940  18.623 -0.2676 -0.4466 -0.0043
 1473POPC   NC317665   7.726  16.101  20.205  0.1154 -0.1355 -0.0565
 1473POPC   PO417666   8.043  16.163  19.987  0.4021 -0.0015 -0.1391
 1473POPC   GL117667   8.181  15.998  19.615  0.4866  0.0805  0.4437
 1473POPC   GL217668   8.134  15.754  19.691 -0.0506  0.2782 -0.1497
 1473POPC   C1A17669   7.969  16.141  19.216 -0.3423 -0.1781  0.1024
 1473POPC   D2A17670   8.037  16.213  18.777  0.3480  0.0367  0.0013
 1473POPC   C3A17671   7.740  16.589  18.658  0.1175 -0.0196 -0.1821
 1473POPC   C4A17672   7.669  17.068  18.695  0.1132  0.1400 -0.0341
 1473POPC   C1B17673   8.204  15.671  19.226  0.1222  0.0057 -0.2889
 1473POPC   C2B17674   8.092  15.689  18.800  0.0097 -0.0607 -0.2087
 1473POPC   C3B17675   7.909  15.807  18.397  0.1901  0.1417  0.0063
 1473POPC   C4B17676   7.684  15.562  18.133  0.2467  0.2940  0.0499
 1474POPC   NC317677   8.631   9.365  19.203 -0.0553 -0.1356  0.0890
 1474POPC   PO417678   8.418   9.097  19.087  0.0438  0.0864 -0.0232
 1474POPC   GL117679   8.139   9.359  18.914 -0.4719  0.1611 -0.2509
 1474POPC   GL217680   8.302   9.598  18.919 -0.1430 -0.2935 -0.2748
 1474POPC   C1A17681   8.247   9.333  18.465 -0.0664  0.1463 -0.1601
 1474POPC   D2A17682   8.094   9.453  18.025  0.3840 -0.1045 -0.1148
 1474POPC   C3A17683   7.729   9.639  17.960  0.0834 -0.1598  0.2572
 1474POPC   C4A17684   7.471   9.983  17.800 -0.1365 -0.0381 -0.0574
 1474POPC   C1B17685   8.112   9.880  18.602  0.0702  0.2389 -0.1122
 1474POPC   C2B17686   7.967  10.020  18.169 -0.0051 -0.1582  0.0100
 1474POPC   C3B17687   8.165  10.358  17.823  0.0425 -0.1581 -0.0435
 1474POPC   C4B17688   8.300  10.701  17.514 -0.1523  0.0118 -0.0789
 1475POPC   NC317689  15.641  10.169  20.272  0.0715  0.0146  0.0091
 1475POPC   PO417690  15.985  10.019  20.352  0.0774  0.1389 -0.2226
 1475POPC   GL117691  16.260  10.363  20.194 -0.1301 -0.1157 -0.3317
 1475POPC   GL217692  16.082  10.251  19.936 -0.1235 -0.3679 -0.0280
 1475POPC   C1A17693  16.311  10.652  19.828 -0.1454  0.0264  0.3012
 1475POPC   D2A17694  16.471  10.711  19.337  0.3334  0.1472 -0.2003
 1475POPC   C3A17695  16.237  10.616  18.986  0.1497  0.1582  0.1871
 1475POPC   C4A17696  16.153  10.309  18.601  0.2195 -0.0196  0.1344
 1475POPC   C1B17697  15.888   9.968  19.566 -0.0206 -0.1079  0.0896
 1475POPC   C2B17698  15.648  10.114  19.165 -0.2008  0.0372  0.2046
 1475POPC   C3B17699  15.791  10.508  18.943 -0.1429 -0.0266  0.2075
 1475POPC   C4B17700  15.763  10.650  18.462 -0.0644  0.0424  0.1747
 1476POPC   NC317701   0.574   3.904  19.451 -0.1255  0.1396 -0.1920
 1476POPC   PO417702   0.407   3.515  19.584 -0.0052  0.0070 -0.3180
 1476POPC   GL117703   0.456   3.314  19.203  0.1539  0.0368 -0.1458
 1476POPC   GL217704   0.534   3.556  19.013  0.1936  0.2164  0.3043
 1476POPC   C1A17705   0.454   2.996  18.878 -0.0356 -0.2437 -0.3221
 1476POPC   D2A17706   0.503   2.857  18.435 -0.0856 -0.3355 -0.0561
 1476POPC   C3A17707   0.924   2.692  18.262 -0.1518  0.0266  0.1179
 1476POPC   C4A17708   0.894   2.378  17.927  0.0844  0.2024  0.0546
 1476POPC   C1B17709   0.505   3.389  18.588 -0.0524 -0.2247  0.2540
 1476POPC   C2B17710   0.328   3.408  18.180  0.0185 -0.0701  0.3237
 1476POPC   C3B17711   0.025   3.558  17.826 -0.1263  0.3238 -0.1637
 1476POPC   C4B17712  -0.293   3.787  17.612 -0.3619 -0.4923  0.1201
 1477POPC   NC317713  10.817   2.407  18.439  0.1094  0.2515 -0.2112
 1477POPC   PO417714  11.150   2.477  18.252 -0.0086  0.0572  0.0375
 1477POPC   GL117715  10.995   2.138  18.063  0.1327 -0.1275 -0.3218
 1477POPC   GL217716  10.721   2.065  18.007  0.0355  0.3257  0.0120
 1477POPC   C1A17717  11.167   1.918  17.696  0.0243  0.0196 -0.2724
 1477POPC   D2A17718  11.376   1.540  17.520  0.3284 -0.0779 -0.0369
 1477POPC   C3A17719  11.202   1.178  17.370  0.0298  0.2312 -0.0056
 1477POPC   C4A17720  11.403   0.785  17.135  0.0860  0.0880 -0.3918
 1477POPC   C1B17721  10.454   1.690  17.803  0.2941 -0.1139  0.0776
 1477POPC   C2B17722  10.514   1.382  17.496 -0.2349  0.1096 -0.3172
 1477POPC   C3B17723  10.713   1.259  17.096  0.0022  0.2525 -0.1903
 1477POPC   C4B17724  10.621   0.989  16.720  0.1619  0.1176  0.0573
 1478POPC   NC317725   2.411   7.216  20.126  0.1276  0.0717  0.1367
 1478POPC   PO417726   2.192   6.903  20.039 -0.2208 -0.0466 -0.1591
 1478POPC   GL117727   2.323   7.132  19.666  0.1941  0.3700 -0.2129
 1478POPC   GL217728   2.504   6.890  19.609  0.0815 -0.0871  0.1759
 1478POPC   C1A17729   2.456   7.156  19.217 -0.0993  0.1245  0.2730
 1478POPC   D2A17730   2.640   6.987  18.800 -0.0493 -0.1116  0.2133
 1478POPC   C3A17731   2.547   7.022  18.371 -0.1379 -0.2656  0.2099
 1478POPC   C4A17732   2.603   7.027  17.914 -0.0995  0.3493 -0.0747
 1478POPC   C1B17733   2.424   6.594  19.268  0.1102 -0.2042  0.1378
 1478POPC   C2B17734   2.526   6.478  18.853  0.1590 -0.0006  0.1771
 1478POPC   C3B17735   2.313   6.527  18.452 -0.0112  0.1388 -0.0868
 1478POPC   C4B17736   2.295   6.672  18.014 -0.1007  0.2634  0.1300
 1479POPC   NC317737   0.194  14.567  20.225 -0.0732 -0.0932 -0.3429
 1479POPC   PO417738   0.432  14.835  20.330  0.0178 -0.0926 -0.1321
 1479POPC   GL117739   0.423  14.939  19.984  0.6176  0.1807  0.1071
 1479POPC   GL217740   0.657  15.164  19.877  0.1454 -0.3256  0.0923
 1479POPC   C1A17741   0.223  14.961  19.562  0.4153  0.1350 -0.0420
 1479POPC   D2A17742   0.037  15.183  19.206  0.2008  0.0889 -0.2391
 1479POPC   C3A17743  -0.072  15.131  18.721 -0.1275 -0.1699  0.2057
 1479POPC   C4A17744  -0.039  14.897  18.335  0.1267  0.0253 -0.1716
 1479POPC   C1B17745   0.880  14.936  19.546  0.1917  0.2447  0.0457
 1479POPC   C2B17746   1.126  14.907  19.167  0.2649  0.0180 -0.2100
 1479POPC   C3B17747   1.058  15.133  18.745 -0.1615 -0.1121  0.2646
 1479POPC   C4B17748   1.281  15.133  18.271  0.2248  0.0657 -0.0865
 1480POPC   NC317749   7.576   0.824  19.414  0.0162 -0.1590 -0.0388
 1480POPC   PO417750   7.685   1.167  19.311 -0.1925 -0.0660 -0.1214
 1480POPC   GL117751   7.608   1.282  18.903 -0.1067 -0.2029 -0.0584
 1480POPC   GL217752   7.750   1.017  18.820 -0.3811 -0.0855 -0.1270
 1480POPC   C1A17753   7.801   1.381  18.453  0.1159  0.2764  0.4037
 1480POPC   D2A17754   7.899   1.229  18.038  0.0723 -0.3697 -0.1389
 1480POPC   C3A17755   7.572   1.162  17.687 -0.1122 -0.1041 -0.2298
 1480POPC   C4A17756   7.423   1.204  17.279 -0.1795  0.1378  0.0518
 1480POPC   C1B17757   7.540   0.713  18.668 -0.3713  0.1087  0.2984
 1480POPC   C2B17758   7.184   0.660  18.439  0.1004 -0.0581 -0.0766
 1480POPC   C3B17759   7.168   0.595  17.960 -0.0903  0.0637 -0.1010
 1480POPC   C4B17760   7.413   0.693  17.608 -0.2587 -0.1028  0.1417
 1481POPC   NC317761   8.166  12.637  20.352  0.5401  0.0703  0.0945
 1481POPC   PO417762   7.868  12.385  20.259  0.2743 -0.3260  0.1323
 1481POPC   GL117763   7.709  12.110  19.860  0.0443 -0.2283  0.1519
 1481POPC   GL217764   7.931  12.124  19.689  0.1497 -0.0847  0.2198
 1481POPC   C1A17765   7.410  11.801  19.704 -0.0411  0.0719 -0.0324
 1481POPC   D2A17766   7.440  11.453  19.471 -0.2626  0.1749 -0.0917
 1481POPC   C3A17767   7.298  11.089  19.220  0.0549 -0.0650 -0.2313
 1481POPC   C4A17768   7.239  10.991  18.778  0.0057  0.0082 -0.1545
 1481POPC   C1B17769   8.030  12.463  19.319 -0.0506 -0.2202  0.2433
 1481POPC   C2B17770   8.088  12.802  18.996  0.0511 -0.0700 -0.0384
 1481POPC   C3B17771   8.139  13.195  18.685 -0.3006  0.2242  0.0371
 1481POPC   C4B17772   8.018  13.657  18.720 -0.1260 -0.0487 -0.0082
 1482POPC   NC317773   9.841   4.534  12.906  0.1287  0.1431 -0.0812
 1482POPC   PO417774   9.466   4.512  13.022  0.1909  0.1629  0.1158
 1482POPC   GL117775   9.411   4.089  12.887 -0.2466  0.0793  0.1306
 1482POPC   GL217776   9.116   4.193  12.872  0.2803 -0.2291  0.1994
 1482POPC   C1A17777   9.620   3.744  13.154 -0.1306 -0.1285 -0.2164
 1482POPC   D2A17778   9.945   3.415  13.240 -0.2464 -0.3299 -0.0722
 1482POPC   C3A17779   9.685   3.172  13.500  0.1174 -0.1493  0.1349
 1482POPC   C4A17780   9.378   2.897  13.628  0.1582  0.2921 -0.1636
 1482POPC   C1B17781   8.976   3.970  12.464  0.1793 -0.0648 -0.0971
 1482POPC   C2B17782   8.664   3.618  12.383  0.1216 -0.5592  0.2062
 1482POPC   C3B17783   8.301   3.378  12.505  0.4548 -0.3112  0.1899
 1482POPC   C4B17784   7.847   3.397  12.372  0.2285  0.0661  0.1581
 1483POPC   NC317785   8.322   4.473  14.255 -0.2583 -0.0807  0.1015
 1483POPC   PO417786   8.258   4.820  14.114 -0.5104 -0.2139  0.1972
 1483POPC   GL117787   7.945   4.737  14.285  0.1189  0.1691  0.1371
 1483POPC   GL217788   7.850   4.874  14.540  0.1852 -0.2315  0.0938
 1483POPC   C1A17789   7.561   4.763  14.040  0.2577  0.0316  0.1384
 1483POPC   D2A17790   7.117   4.748  13.910 -0.2727  0.1470 -0.0528
 1483POPC   C3A17791   7.001   4.877  13.485  0.1969 -0.1638 -0.2159
 1483POPC   C4A17792   6.905   4.989  13.043 -0.1155  0.5234 -0.0637
 1483POPC   C1B17793   7.549   4.810  14.872 -0.4419 -0.0065  0.0666
 1483POPC   C2B17794   7.087   4.639  14.928 -0.0989  0.1632  0.2328
 1483POPC   C3B17795   6.910   4.309  14.731 -0.2786 -0.2908  0.0264
 1483POPC   C4B17796   6.623   4.055  14.467 -0.0458 -0.0776 -0.1993
 1484POPC   NC317797   8.939   4.834  15.272  0.1835 -0.0702 -0.3497
 1484POPC   PO417798   8.673   4.554  15.266 -0.2684  0.2647 -0.0101
 1484POPC   GL117799   8.290   4.617  15.174 -0.1541  0.0830  0.2356
 1484POPC   GL217800   8.172   4.615  15.451  0.1450 -0.2751 -0.1105
 1484POPC   C1A17801   7.985   4.367  14.942  0.0346 -0.0268  0.0762
 1484POPC   D2A17802   7.546   4.177  14.936  0.3882 -0.2897 -0.1508
 1484POPC   C3A17803   7.179   4.044  15.096  0.1802  0.0485  0.2279
 1484POPC   C4A17804   6.878   3.731  15.258  0.3546 -0.1101  0.0354
 1484POPC   C1B17805   7.724   4.537  15.401 -0.0962 -0.2727 -0.3578
 1484POPC   C2B17806   7.262   4.446  15.331 -0.0050  0.0918 -0.0203
 1484POPC   C3B17807   6.837   4.303  15.250  0.0851  0.1380  0.1559
 1484POPC   C4B17808   6.487   4.071  15.480 -0.2166  0.3881  0.4570
 1485POPC   NC317809   1.072   9.898  20.599 -0.2977 -0.2936 -0.3035
 1485POPC   PO417810   1.419  10.172  20.571 -0.0068  0.0476  0.1348
 1485POPC   GL117811   1.546  10.389  20.223  0.4452  0.4352  0.2520
 1485POPC   GL217812   1.492  10.672  20.275 -0.0264  0.2718  0.1218
 1485POPC   C1A17813   1.210  10.442  19.951  0.0239 -0.0416  0.1070
 1485POPC   D2A17814   0.999  10.703  19.609  0.0748 -0.2524 -0.0965
 1485POPC   C3A17815   1.116  10.700  19.180 -0.0586  0.2454  0.1828
 1485POPC   C4A17816   0.988  10.796  18.777  0.0411 -0.0057  0.1105
 1485POPC   C1B17817   1.588  10.709  19.808  0.2033  0.1718 -0.0782
 1485POPC   C2B17818   1.574  10.854  19.400 -0.0509  0.4289  0.2704
 1485POPC   C3B17819   1.752  11.067  19.010  0.0517  0.0080 -0.1324
 1485POPC   C4B17820   1.898  10.969  18.621  0.0242 -0.1282  0.3163
 1486POPC   NC317821   8.702   0.757  19.564  0.1620  0.0182 -0.3011
 1486POPC   PO417822   8.859   0.382  19.590  0.0250 -0.0235  0.2687
 1486POPC   GL117823   8.870   0.522  19.192 -0.1250  0.3111  0.1146
 1486POPC   GL217824   9.034   0.206  19.113 -0.1402 -0.1831 -0.1515
 1486POPC   C1A17825   8.657   0.471  18.750  0.0236  0.0416 -0.0877
 1486POPC   D2A17826   8.437   0.290  18.391  0.1186  0.0654 -0.1122
 1486POPC   C3A17827   8.627   0.361  17.940 -0.2203  0.2962  0.2307
 1486POPC   C4A17828   8.404   0.368  17.505 -0.1409  0.0608  0.0103
 1486POPC   C1B17829   9.263   0.065  18.724 -0.1671  0.3053 -0.2537
 1486POPC   C2B17830   9.268  -0.299  18.462 -0.2351  0.2704 -0.3147
 1486POPC   C3B17831   9.552  -0.471  18.059  0.1048  0.1277 -0.0523
 1486POPC   C4B17832   9.839  -0.409  17.708 -0.5982 -0.3183 -0.1739
 1487POPC   NC317833  12.664   4.295  18.792 -0.1051 -0.0100 -0.3301
 1487POPC   PO417834  13.035   4.149  18.808 -0.4653  0.4363 -0.1104
 1487POPC   GL117835  13.255   4.263  18.475  0.0774 -0.2658 -0.1309
 1487POPC   GL217836  13.492   4.104  18.451  0.2163 -0.1259 -0.4190
 1487POPC   C1A17837  13.202   4.347  18.027 -0.3086 -0.3213  0.1411
 1487POPC   D2A17838  13.492   4.268  17.673  0.2729 -0.1685 -0.1549
 1487POPC   C3A17839  13.609   4.496  17.244 -0.1393 -0.0883  0.0533
 1487POPC   C4A17840  13.717   4.342  16.916 -0.0125  0.0011  0.0671
 1487POPC   C1B17841  13.648   3.944  18.071  0.0395  0.0445 -0.3562
 1487POPC   C2B17842  13.988   3.768  17.741  0.1858  0.2019 -0.2756
 1487POPC   C3B17843  14.186   3.546  17.392 -0.1040  0.1117 -0.1668
 1487POPC   C4B17844  14.412   3.113  17.334 -0.0458  0.0340 -0.1961
 1488POPC   NC317845   8.828   3.740  16.310 -0.1263 -0.3467  0.2704
 1488POPC   PO417846   9.101   3.490  16.364  0.0992 -0.0443 -0.0785
 1488POPC   GL117847   9.199   3.194  16.132  0.1472  0.2606 -0.2966
 1488POPC   GL217848   9.513   3.105  16.224 -0.2344  0.2324  0.1128
 1488POPC   C1A17849   9.377   3.134  15.711 -0.1698 -0.0586  0.0604
 1488POPC   D2A17850   9.728   3.020  15.434 -0.0607 -0.0440  0.1965
 1488POPC   C3A17851   9.877   2.628  15.195  0.0712 -0.1553  0.1037
 1488POPC   C4A17852   9.735   2.246  14.926 -0.0940  0.2177 -0.0687
 1488POPC   C1B17853   9.608   2.710  15.931 -0.0624  0.0297 -0.0685
 1488POPC   C2B17854   9.388   2.631  15.490  0.0447 -0.2033 -0.0641
 1488POPC   C3B17855   9.235   2.311  15.281 -0.0904 -0.0435  0.2947
 1488POPC   C4B17856   8.878   2.008  15.231 -0.1938  0.0785  0.2585
 1489POPC   NC317857   8.702   5.042  14.228  0.2837  0.1194  0.1037
 1489POPC   PO417858   8.536   5.395  14.119 -0.0040  0.2083 -0.0109
 1489POPC   GL117859   8.117   5.297  13.996  0.1276  0.0822 -0.4357
 1489POPC   GL217860   8.070   5.277  14.313 -0.0290 -0.1009  0.1408
 1489POPC   C1A17861   7.822   5.108  13.731  0.1760  0.1055 -0.2048
 1489POPC   D2A17862   7.484   4.987  13.450  0.0996  0.2157 -0.0621
 1489POPC   C3A17863   7.401   4.966  13.031 -0.0682  0.1033  0.1636
 1489POPC   C4A17864   7.153   4.717  12.709 -0.1141 -0.1510 -0.0861
 1489POPC   C1B17865   7.730   5.529  14.091 -0.0794 -0.1250 -0.1406
 1489POPC   C2B17866   7.619   5.612  13.657  0.1779 -0.1076 -0.2218
 1489POPC   C3B17867   7.728   5.400  13.251 -0.2686 -0.1778  0.1868
 1489POPC   C4B17868   7.760   5.232  12.830  0.1017  0.0518 -0.2593
 1490POPC   NC317869   5.772  15.441  20.380  0.0550  0.0521 -0.1797
 1490POPC   PO417870   5.436  15.475  20.588 -0.3533  0.2240 -0.1351
 1490POPC   GL117871   5.365  15.396  20.154 -0.3561  0.1606  0.1279
 1490POPC   GL217872   5.233  15.266  19.989  0.0182 -0.3639  0.1527
 1490POPC   C1A17873   5.707  15.170  19.907 -0.1126 -0.2230  0.1563
 1490POPC   D2A17874   5.982  14.918  19.667 -0.0083 -0.1485  0.0925
 1490POPC   C3A17875   6.132  15.075  19.210  0.0924  0.1434 -0.1687
 1490POPC   C4A17876   6.175  15.294  18.811  0.2010 -0.2473 -0.0262
 1490POPC   C1B17877   5.387  15.158  19.531 -0.2138  0.1974  0.1825
 1490POPC   C2B17878   5.224  14.842  19.314  0.0203 -0.0338  0.4176
 1490POPC   C3B17879   5.439  14.608  18.935  0.1870  0.1297  0.0431
 1490POPC   C4B17880   5.638  14.290  18.641  0.2037 -0.0274  0.2704
 1491POPC   NC317881   9.378   7.070  16.158  0.3012 -0.1199 -0.1115
 1491POPC   PO417882   9.250   7.116  15.809  0.0624 -0.1005  0.0909
 1491POPC   GL117883   9.222   7.523  15.775  0.2212 -0.0667 -0.1352
 1491POPC   GL217884   9.403   7.528  15.529 -0.1352 -0.0705 -0.3849
 1491POPC   C1A17885   9.248   7.976  15.591  0.1424  0.2007 -0.2069
 1491POPC   D2A17886   9.207   8.409  15.438 -0.0567  0.0059  0.0705
 1491POPC   C3A17887   9.408   8.817  15.539  0.3843 -0.1748 -0.0313
 1491POPC   C4A17888   9.456   9.056  15.906 -0.1144  0.0825 -0.0649
 1491POPC   C1B17889   9.633   7.784  15.282  0.1610 -0.0446  0.1368
 1491POPC   C2B17890   9.790   7.982  14.929  0.2743 -0.1013  0.0015
 1491POPC   C3B17891   9.763   8.102  14.469  0.0191  0.1313  0.2438
 1491POPC   C4B17892   9.710   8.352  14.115  0.1213 -0.0438 -0.1045
 1492POPC   NC317893  13.062   2.064  19.945  0.0531  0.0604 -0.1255
 1492POPC   PO417894  13.326   1.877  19.734 -0.0505 -0.0349  0.1896
 1492POPC   GL117895  13.413   1.737  19.325 -0.3082 -0.3574  0.0903
 1492POPC   GL217896  13.261   1.822  19.158  0.0094 -0.1136 -0.0188
 1492POPC   C1A17897  13.679   1.598  18.930  0.0690  0.1012 -0.2779
 1492POPC   D2A17898  13.711   1.529  18.508 -0.0243  0.0358  0.4216
 1492POPC   C3A17899  13.744   1.754  18.093  0.0174  0.0235 -0.0271
 1492POPC   C4A17900  13.798   1.869  17.687  0.0758  0.2607 -0.2112
 1492POPC   C1B17901  13.214   1.769  18.726  0.0905 -0.0483 -0.2242
 1492POPC   C2B17902  13.295   1.620  18.283 -0.0818 -0.1894  0.0300
 1492POPC   C3B17903  13.499   1.307  17.982 -0.0055  0.3224  0.0057
 1492POPC   C4B17904  13.520   1.184  17.540 -0.0625 -0.0342 -0.1809
 1493POPC   NC317905   7.556   4.473  17.270  0.0927 -0.3005  0.1703
 1493POPC   PO417906   7.381   4.311  17.543 -0.1545 -0.0798 -0.0110
 1493POPC   GL117907   7.094   4.144  17.129  0.0422  0.0201  0.1549
 1493POPC   GL217908   7.206   4.255  16.840 -0.0705  0.2011 -0.6649
 1493POPC   C1A17909   6.686   4.049  16.922  0.2601  0.1897  0.1006
 1493POPC   D2A17910   6.210   4.042  16.894 -0.0255 -0.2902 -0.1011
 1493POPC   C3A17911   5.811   4.079  16.609  0.1314  0.1821  0.1917
 1493POPC   C4A17912   5.371   4.050  16.471  0.1997  0.0492 -0.0886
 1493POPC   C1B17913   6.867   4.523  16.746  0.2111  0.1124  0.4023
 1493POPC   C2B17914   6.435   4.489  16.821 -0.2089 -0.1961  0.1353
 1493POPC   C3B17915   5.984   4.506  16.922 -0.1827 -0.2903 -0.2586
 1493POPC   C4B17916   5.608   4.299  16.996  0.0555 -0.1854 -0.3794
 1494POPC   NC317917  10.534   4.774  15.381 -0.0393  0.0387 -0.1869
 1494POPC   PO417918  10.493   4.857  14.975 -0.0585  0.1654 -0.4753
 1494POPC   GL117919  10.686   4.598  14.901 -0.4273  0.1052 -0.0752
 1494POPC   GL217920  10.816   4.452  15.153 -0.0094  0.1024 -0.3476
 1494POPC   C1A17921  10.898   4.210  14.658  0.1625 -0.2614 -0.0836
 1494POPC   D2A17922  11.343   4.065  14.626  0.1898 -0.2989  0.1335
 1494POPC   C3A17923  11.758   4.203  14.766 -0.0129  0.1531  0.1500
 1494POPC   C4A17924  12.030   4.528  14.770  0.3037 -0.0569  0.1835
 1494POPC   C1B17925  10.812   4.006  15.132 -0.0982 -0.0495  0.2136
 1494POPC   C2B17926  10.870   3.607  14.968 -0.1032 -0.0632 -0.1631
 1494POPC   C3B17927  11.010   3.195  14.692  0.3043  0.1891  0.1200
 1494POPC   C4B17928  11.212   2.999  14.337 -0.3984  0.0950  0.2829
 1495POPC   NC317929  14.449   5.495  19.115 -0.2621  0.1198 -0.1903
 1495POPC   PO417930  14.782   5.246  19.162  0.1264 -0.0586  0.0205
 1495POPC   GL117931  14.988   5.411  18.874 -0.0860 -0.1063 -0.2197
 1495POPC   GL217932  15.058   5.671  18.896  0.0792 -0.1792 -0.2791
 1495POPC   C1A17933  15.116   5.407  18.413  0.0139 -0.0480 -0.0716
 1495POPC   D2A17934  15.151   5.520  17.943 -0.3492  0.1857  0.1983
 1495POPC   C3A17935  15.284   5.649  17.586  0.1273  0.1557  0.1202
 1495POPC   C4A17936  15.461   5.812  17.225 -0.1893 -0.0838 -0.0009
 1495POPC   C1B17937  14.959   5.914  18.556 -0.2513 -0.3237 -0.0418
 1495POPC   C2B17938  15.060   6.005  18.114 -0.0100  0.2337 -0.0930
 1495POPC   C3B17939  15.180   6.178  17.723 -0.1665 -0.0720  0.1349
 1495POPC   C4B17940  15.295   6.380  17.316 -0.0958 -0.0151 -0.3721
 1496POPC   NC317941   7.697   5.686  15.896  0.0296  0.1873 -0.1332
 1496POPC   PO417942   7.519   5.832  16.225  0.1476  0.1820  0.2638
 1496POPC   GL117943   7.206   5.539  16.170 -0.0741  0.0271 -0.1333
 1496POPC   GL217944   7.289   5.400  15.919 -0.1448  0.1265  0.1497
 1496POPC   C1A17945   6.769   5.329  16.011  0.0826 -0.0040  0.4148
 1496POPC   D2A17946   6.315   5.157  15.987  0.2061  0.0003 -0.1607
 1496POPC   C3A17947   5.973   5.436  15.790  0.0377  0.2564  0.0910
 1496POPC   C4A17948   5.526   5.413  15.939 -0.0915  0.1603  0.0056
 1496POPC   C1B17949   7.036   5.411  15.596 -0.2455 -0.2693 -0.1568
 1496POPC   C2B17950   6.737   5.441  15.229  0.1460  0.2521  0.0163
 1496POPC   C3B17951   6.408   5.288  14.947  0.2329  0.1166  0.1048
 1496POPC   C4B17952   6.285   5.243  14.521  0.2706 -0.1086  0.0243
 1497POPC   NC317953  12.935   1.534  19.895  0.0473  0.3435  0.2245
 1497POPC   PO417954  13.151   1.236  19.954 -0.1455 -0.1371 -0.0248
 1497POPC   GL117955  13.388   1.406  19.610  0.2017 -0.2151  0.1492
 1497POPC   GL217956  13.291   1.250  19.353  0.0708  0.0649  0.0442
 1497POPC   C1A17957  13.784   1.358  19.391  0.0427 -0.2327 -0.0204
 1497POPC   D2A17958  13.920   1.164  18.999  0.0350  0.2954 -0.1278
 1497POPC   C3A17959  14.070   0.748  18.989 -0.3967  0.1916 -0.1173
 1497POPC   C4A17960  13.762   0.415  18.811  0.1063 -0.2628 -0.0349
 1497POPC   C1B17961  13.247   1.300  18.922  0.0470 -0.1555 -0.1101
 1497POPC   C2B17962  13.316   1.191  18.511  0.1127  0.0362 -0.1846
 1497POPC   C3B17963  13.138   0.990  18.113 -0.1453 -0.1817 -0.1518
 1497POPC   C4B17964  13.324   0.723  17.817  0.0385 -0.1306 -0.0177
 1498POPC   NC317965  15.878  13.666  20.531 -0.0117 -0.0278 -0.0478
 1498POPC   PO417966  15.545  13.855  20.558  0.0070  0.1702 -0.0611
 1498POPC   GL117967  15.490  13.661  20.148  0.1972 -0.1512 -0.0418
 1498POPC   GL217968  15.227  13.662  19.919 -0.2318  0.3496 -0.3078
 1498POPC   C1A17969  15.693  13.758  19.776  0.1270 -0.1399 -0.1748
 1498POPC   D2A17970  15.877  13.802  19.357  0.1075 -0.1141 -0.0238
 1498POPC   C3A17971  16.210  13.954  19.108 -0.2103  0.0185 -0.3755
 1498POPC   C4A17972  16.316  14.396  18.903  0.5635 -0.0760 -0.2522
 1498POPC   C1B17973  15.338  13.493  19.495  0.2325  0.2042  0.0322
 1498POPC   C2B17974  15.671  13.319  19.241 -0.1011  0.0332 -0.1514
 1498POPC   C3B17975  16.057  13.316  18.991  0.0042  0.1722 -0.0954
 1498POPC   C4B17976  16.511  13.303  19.019 -0.1521 -0.2790  0.1500
 1499POPC   NC317977  11.938  12.112  21.112  0.3303 -0.1826 -0.0308
 1499POPC   PO417978  11.974  12.238  20.763  0.1685 -0.1039  0.0669
 1499POPC   GL117979  12.049  12.454  20.460  0.0814  0.0789 -0.0607
 1499POPC   GL217980  12.200  12.638  20.561  0.0657  0.0816 -0.0838
 1499POPC   C1A17981  11.789  12.452  20.037 -0.0075 -0.0359  0.0106
 1499POPC   D2A17982  11.579  12.480  19.610  0.0005 -0.0990 -0.0828
 1499POPC   C3A17983  11.319  12.402  19.248  0.2141  0.1401  0.1431
 1499POPC   C4A17984  11.284  12.348  18.826 -0.1698 -0.0635  0.1097
 1499POPC   C1B17985  12.111  12.966  20.192  0.1369 -0.2406 -0.0399
 1499POPC   C2B17986  12.148  13.152  19.759  0.0732  0.3425 -0.0447
 1499POPC   C3B17987  12.064  13.392  19.381  0.0427  0.1572  0.1852
 1499POPC   C4B17988  12.134  13.417  18.883 -0.1581  0.0152 -0.0664
 1500POPC   NC317989  11.973   2.048  19.099 -0.1879 -0.0710  0.4696
 1500POPC   PO417990  11.649   2.190  18.887 -0.0317  0.1874  0.0580
 1500POPC   GL117991  11.726   1.976  18.533  0.1536  0.0918  0.1088
 1500POPC   GL217992  11.996   1.951  18.546 -0.4864  0.2115 -0.3102
 1500POPC   C1A17993  11.595   1.791  18.100  0.1039  0.1898  0.2665
 1500POPC   D2A17994  11.601   1.429  17.902 -0.4515  0.1240  0.1241
 1500POPC   C3A17995  11.333   1.038  17.879 -0.0032 -0.0214  0.2291
 1500POPC   C4A17996  11.139   0.755  17.641  0.2582 -0.1825 -0.0406
 1500POPC   C1B17997  11.915   1.507  18.407  0.0671 -0.1989 -0.0335
 1500POPC   C2B17998  12.243   1.329  18.096 -0.1145 -0.4783 -0.0020
 1500POPC   C3B17999  12.520   1.023  17.852 -0.0776  0.2684 -0.2086
 1500POPC   C4B18000  12.770   0.644  17.801  0.3309 -0.0424 -0.0951
 1501POPC   NC318001   2.693   4.529  18.991 -0.0149  0.2526  0.0795
 1501POPC   PO418002   2.919   4.771  19.254 -0.0544 -0.3061 -0.2566
 1501POPC   GL118003   2.849   4.982  18.854  0.0625 -0.2037 -0.4061
 1501POPC   GL218004   2.533   4.906  18.727  0.0843  0.1400 -0.0419
 1501POPC   C1A18005   2.876   5.294  18.543 -0.1675  0.0613  0.3676
 1501POPC   D2A18006   2.723   5.423  18.208  0.5019 -0.1718  0.3897
 1501POPC   C3A18007   2.319   5.244  17.947 -0.1974 -0.3136  0.0382
 1501POPC   C4A18008   2.179   5.134  17.506  0.2148 -0.0375  0.3857
 1501POPC   C1B18009   2.563   4.927  18.254  0.0491  0.1738 -0.0818
 1501POPC   C2B18010   2.801   4.992  17.829  0.0909 -0.0115  0.1783
 1501POPC   C3B18011   3.042   5.197  17.453  0.1791  0.1691  0.0757
 1501POPC   C4B18012   3.231   5.181  17.068  0.2027 -0.0304  0.0263
 1502POPC   NC318013   3.229  14.347  20.926 -0.3579 -0.0643  0.1773
 1502POPC   PO418014   3.119  14.027  20.723 -0.0932  0.1383  0.1621
 1502POPC   GL118015   3.080  14.192  20.374 -0.2102  0.3213  0.2475
 1502POPC   GL218016   3.129  14.040  20.183  0.2445  0.0197  0.1278
 1502POPC   C1A18017   3.260  14.518  20.139 -0.3411  0.1121  0.0868
 1502POPC   D2A18018   3.288  14.846  19.819  0.0503 -0.0944 -0.0351
 1502POPC   C3A18019   3.365  14.815  19.371 -0.2409  0.1169 -0.1261
 1502POPC   C4A18020   3.721  14.842  19.068  0.2416  0.2211 -0.1562
 1502POPC   C1B18021   3.460  13.993  19.835  0.1467 -0.0760  0.3509
 1502POPC   C2B18022   3.546  14.001  19.353  0.0003 -0.0311 -0.3015
 1502POPC   C3B18023   3.747  14.046  19.016 -0.1441  0.1093  0.0814
 1502POPC   C4B18024   3.822  14.050  18.596 -0.1464 -0.2223 -0.2356
 1503POPC   NC318025   2.436  13.367  20.777 -0.1014 -0.0579 -0.0690
 1503POPC   PO418026   2.311  13.666  20.578 -0.0788 -0.1768  0.1472
 1503POPC   GL118027   2.207  13.519  20.256  0.4145 -0.0672 -0.2148
 1503POPC   GL218028   2.177  13.730  20.074  0.0014  0.1000 -0.3444
 1503POPC   C1A18029   2.286  13.180  19.935 -0.0213  0.1154 -0.3132
 1503POPC   D2A18030   2.372  13.033  19.521 -0.0178 -0.1254 -0.0923
 1503POPC   C3A18031   2.812  13.100  19.410 -0.1202 -0.1847  0.0136
 1503POPC   C4A18032   3.281  13.063  19.240 -0.2592 -0.1649  0.0422
 1503POPC   C1B18033   2.387  13.626  19.682  0.0856 -0.3885 -0.0825
 1503POPC   C2B18034   2.574  13.553  19.309 -0.2568  0.0764  0.0974
 1503POPC   C3B18035   2.516  13.272  18.925 -0.0442 -0.2269 -0.0029
 1503POPC   C4B18036   2.241  12.924  18.862  0.1065 -0.1198 -0.1237
 1504POPC   NC318037  12.150   5.951  18.168  0.4621  0.1355  0.3177
 1504POPC   PO418038  11.942   6.294  18.099  0.0589 -0.3990  0.0050
 1504POPC   GL118039  11.926   6.329  17.680  0.1509 -0.1198 -0.0400
 1504POPC   GL218040  11.947   5.976  17.626  0.0941  0.2910  0.1186
 1504POPC   C1A18041  12.097   6.760  17.539 -0.1475  0.1524 -0.3783
 1504POPC   D2A18042  12.453   7.042  17.712  0.2231  0.2071  0.2738
 1504POPC   C3A18043  12.807   7.078  17.442 -0.5506 -0.0584  0.0069
 1504POPC   C4A18044  13.071   7.208  17.077  0.2992 -0.1799 -0.1506
 1504POPC   C1B18045  12.297   6.221  17.411  0.0697 -0.1482  0.0281
 1504POPC   C2B18046  12.537   6.427  17.101  0.1652  0.0560  0.0097
 1504POPC   C3B18047  12.868   6.529  16.856 -0.0515  0.0441  0.3379
 1504POPC   C4B18048  13.302   6.778  16.892 -0.0616 -0.0123  0.0612
 1505POPC   NC318049   9.339   4.020  15.277  0.0968  0.1253  0.2530
 1505POPC   PO418050   9.466   4.052  14.902 -0.2387  0.3483 -0.0739
 1505POPC   GL118051   9.460   3.602  14.878 -0.0126 -0.1638 -0.0587
 1505POPC   GL218052   9.282   3.637  14.659  0.0616  0.2170  0.2096
 1505POPC   C1A18053   9.563   3.300  14.507  0.2258 -0.3342  0.0886
 1505POPC   D2A18054   9.660   3.256  14.056 -0.2116 -0.0486  0.0331
 1505POPC   C3A18055  10.064   3.358  13.793  0.1165 -0.1053 -0.0376
 1505POPC   C4A18056  10.437   3.476  13.516  0.2321  0.4889  0.0375
 1505POPC   C1B18057   8.854   3.677  14.600  0.2389  0.0040  0.1348
 1505POPC   C2B18058   8.513   3.338  14.481  0.1427  0.3125  0.4950
 1505POPC   C3B18059   8.072   3.266  14.658 -0.0382  0.4415 -0.0555
 1505POPC   C4B18060   7.865   3.116  15.020  0.2618 -0.2897 -0.1422
 1506POPC   NC318061  12.679   8.415  19.660  0.0522  0.0483 -0.3443
 1506POPC   PO418062  12.530   8.665  19.894 -0.0444 -0.0525  0.1526
 1506POPC   GL118063  12.517   8.802  19.510  0.2645  0.1758 -0.1505
 1506POPC   GL218064  12.525   9.087  19.453  0.1076 -0.0716 -0.2405
 1506POPC   C1A18065  12.652   8.834  19.023  0.0194 -0.2561  0.0969
 1506POPC   D2A18066  13.127   8.911  18.879  0.1733  0.2352  0.0853
 1506POPC   C3A18067  13.384   9.179  18.640  0.3302  0.0839 -0.1637
 1506POPC   C4A18068  13.559   9.286  18.264  0.2419 -0.1350 -0.0964
 1506POPC   C1B18069  12.632   9.325  19.052  0.1203  0.0788  0.0544
 1506POPC   C2B18070  12.674   9.632  18.657  0.0992 -0.1120  0.1394
 1506POPC   C3B18071  12.788   9.703  18.223  0.4717 -0.0654 -0.1913
 1506POPC   C4B18072  12.865   9.943  17.791  0.0125  0.3256 -0.0884
 1507POPC   NC318073  12.299  10.947  20.047 -0.0861 -0.1541 -0.0193
 1507POPC   PO418074  11.984  11.225  20.088 -0.3480 -0.0174 -0.1178
 1507POPC   GL118075  11.957  11.347  19.665  0.2003 -0.3316 -0.0314
 1507POPC   GL218076  11.915  11.634  19.766 -0.0686 -0.0361  0.1553
 1507POPC   C1A18077  12.241  11.568  19.367  0.0165  0.1166  0.0461
 1507POPC   D2A18078  12.304  11.992  19.233 -0.2999  0.4766 -0.0964
 1507POPC   C3A18079  12.628  12.029  18.901  0.2162 -0.1034  0.3695
 1507POPC   C4A18080  12.955  11.731  18.749 -0.0414  0.0349 -0.0689
 1507POPC   C1B18081  11.826  11.941  19.513  0.1331 -0.2104  0.1438
 1507POPC   C2B18082  11.999  12.313  19.370 -0.2631 -0.0555  0.3658
 1507POPC   C3B18083  11.934  12.603  19.050 -0.0011 -0.2054 -0.1336
 1507POPC   C4B18084  12.173  12.898  18.824 -0.0535  0.0515  0.0080
 1508POPC   NC318085  12.721   6.105  18.589 -0.4593 -0.0841 -0.1011
 1508POPC   PO418086  12.379   6.274  18.460 -0.0008 -0.0261  0.2779
 1508POPC   GL118087  12.641   6.273  18.076 -0.0458  0.0199 -0.5066
 1508POPC   GL218088  12.427   6.303  17.943 -0.0241  0.0826  0.4544
 1508POPC   C1A18089  13.055   6.327  17.853 -0.1112 -0.2543  0.0946
 1508POPC   D2A18090  13.502   6.324  17.738  0.1076 -0.1055  0.2474
 1508POPC   C3A18091  13.726   6.649  17.538 -0.3286  0.1430  0.1832
 1508POPC   C4A18092  14.161   6.810  17.342  0.1756 -0.1153 -0.2515
 1508POPC   C1B18093  12.652   6.555  17.594 -0.0822 -0.1935  0.1406
 1508POPC   C2B18094  12.994   6.612  17.308 -0.1547 -0.2131 -0.0807
 1508POPC   C3B18095  13.373   6.371  17.213  0.1942 -0.0996  0.2632
 1508POPC   C4B18096  13.712   6.056  17.360 -0.0830 -0.0457 -0.0476
 1509POPC   NC318097  13.716   7.257  19.292 -0.0749 -0.0299 -0.0169
 1509POPC   PO418098  13.700   7.588  19.493 -0.1652  0.1938 -0.0277
 1509POPC   GL118099  13.845   7.715  19.144 -0.0834 -0.1434  0.0748
 1509POPC   GL218100  14.145   7.650  19.112  0.1313 -0.1879 -0.1284
 1509POPC   C1A18101  13.768   7.359  18.831 -0.1139  0.0123 -0.0827
 1509POPC   D2A18102  13.913   7.051  18.537 -0.0053 -0.2023  0.0163
 1509POPC   C3A18103  14.198   7.203  18.178 -0.1177 -0.0405  0.0240
 1509POPC   C4A18104  14.321   7.457  17.746  0.1091  0.3342 -0.2922
 1509POPC   C1B18105  14.072   7.939  18.731  0.0772 -0.2674 -0.1195
 1509POPC   C2B18106  14.118   8.166  18.301 -0.1996 -0.0639  0.0912
 1509POPC   C3B18107  14.003   8.508  17.963 -0.2792 -0.0782  0.1283
 1509POPC   C4B18108  14.168   8.913  17.690  0.0653 -0.1014  0.3265
 1510POPC   NC318109  10.798   3.172  17.179 -0.2616  0.1448 -0.2745
 1510POPC   PO418110  10.695   3.556  17.184 -0.2065 -0.0057 -0.1187
 1510POPC   GL118111  10.819   3.475  16.833  0.3039  0.1061 -0.6832
 1510POPC   GL218112  10.885   3.655  16.701 -0.1787 -0.1525 -0.2030
 1510POPC   C1A18113  11.119   3.123  16.797 -0.1599 -0.0784  0.3757
 1510POPC   D2A18114  11.293   2.854  16.537  0.0061 -0.1237  0.4442
 1510POPC   C3A18115  11.194   2.439  16.455  0.2905  0.0903  0.0392
 1510POPC   C4A18116  11.197   2.221  16.100  0.1025  0.2607  0.0991
 1510POPC   C1B18117  10.934   3.284  16.378  0.1344  0.0107 -0.1543
 1510POPC   C2B18118  10.781   3.188  15.977 -0.0993 -0.2551 -0.0646
 1510POPC   C3B18119  10.981   3.097  15.595 -0.0610  0.0628  0.2176
 1510POPC   C4B18120  11.052   2.888  15.138  0.1107 -0.0818  0.0386
 1511POPC   NC318121   0.789  12.058  20.458 -0.0494 -0.0620  0.1615
 1511POPC   PO418122   0.915  11.677  20.412  0.0187  0.1948 -0.0387
 1511POPC   GL118123   1.184  11.570  20.116 -0.2513  0.1259 -0.2475
 1511POPC   GL218124   1.459  11.693  20.117  0.1560  0.0782  0.0312
 1511POPC   C1A18125   1.221  11.624  19.690  0.1338  0.1067 -0.1396
 1511POPC   D2A18126   1.323  11.829  19.257  0.1078 -0.2831 -0.0064
 1511POPC   C3A18127   0.970  11.934  19.018 -0.3403  0.0242 -0.1840
 1511POPC   C4A18128   0.853  12.317  18.729 -0.3763 -0.0786  0.0796
 1511POPC   C1B18129   1.581  11.948  19.697  0.3217 -0.1571  0.0308
 1511POPC   C2B18130   1.809  11.916  19.315  0.0709  0.0527 -0.0986
 1511POPC   C3B18131   2.075  11.966  18.916  0.0200  0.1791 -0.0078
 1511POPC   C4B18132   2.514  11.947  18.603 -0.1831  0.1551  0.2710
 1512POPC   NC318133   5.890   1.715  19.059 -0.0564 -0.2717  0.2634
 1512POPC   PO418134   5.924   1.335  19.056  0.1300  0.0413 -0.2458
 1512POPC   GL118135   5.555   1.364  18.797 -0.3215 -0.4434 -0.1248
 1512POPC   GL218136   5.566   1.088  18.698 -0.1514  0.0653  0.0292
 1512POPC   C1A18137   5.497   1.372  18.318 -0.3851  0.0378 -0.1759
 1512POPC   D2A18138   5.647   1.520  17.870 -0.1136  0.0916 -0.1228
 1512POPC   C3A18139   5.515   1.719  17.496  0.0891 -0.0733  0.1074
 1512POPC   C4A18140   5.088   1.813  17.429  0.1176  0.0373  0.2694
 1512POPC   C1B18141   5.456   0.894  18.266  0.2061  0.2133  0.2116
 1512POPC   C2B18142   5.250   0.770  17.894 -0.0053 -0.1000 -0.0501
 1512POPC   C3B18143   5.252   0.309  17.748 -0.0911 -0.2870  0.1036
 1512POPC   C4B18144   5.192  -0.123  17.604  0.0585  0.0189  0.1245
 1513POPC   NC318145  13.867   3.700  19.264 -0.1083 -0.0013  0.0124
 1513POPC   PO418146  13.567   3.488  19.146  0.1340 -0.0585 -0.4463
 1513POPC   GL118147  13.671   3.471  18.757 -0.3476 -0.1026 -0.0961
 1513POPC   GL218148  13.924   3.647  18.780 -0.3074  0.2859 -0.0845
 1513POPC   C1A18149  13.689   3.146  18.414 -0.2956  0.0194 -0.4002
 1513POPC   D2A18150  13.667   2.922  18.008  0.1007 -0.0238  0.0861
 1513POPC   C3A18151  13.682   2.748  17.574  0.1769 -0.1831 -0.1582
 1513POPC   C4A18152  13.499   2.747  17.174  0.0733 -0.2760 -0.1175
 1513POPC   C1B18153  14.035   3.665  18.306  0.3344 -0.3514  0.1889
 1513POPC   C2B18154  14.198   3.396  17.992 -0.3206 -0.2158 -0.2526
 1513POPC   C3B18155  14.576   3.426  17.702 -0.0352 -0.1558  0.1646
 1513POPC   C4B18156  14.995   3.498  17.835 -0.1673 -0.1316  0.0081
 1514POPC   NC318157  10.523   6.390  14.813  0.0004 -0.1031  0.3192
 1514POPC   PO418158  10.653   6.286  14.465  0.3358  0.1183 -0.0481
 1514POPC   GL118159  11.003   6.206  14.322  0.2864 -0.1798 -0.1885
 1514POPC   GL218160  11.146   6.346  14.072 -0.1433  0.0027  0.1075
 1514POPC   C1A18161  11.398   6.285  14.486  0.0287 -0.0629 -0.0720
 1514POPC   D2A18162  11.706   6.604  14.483  0.2944 -0.0039  0.3325
 1514POPC   C3A18163  11.665   7.075  14.607  0.2806  0.3134 -0.3395
 1514POPC   C4A18164  11.549   7.492  14.546 -0.0004 -0.1371 -0.1105
 1514POPC   C1B18165  11.487   6.662  14.047  0.1365 -0.3856 -0.1055
 1514POPC   C2B18166  11.842   7.019  14.114 -0.2577 -0.2059  0.2411
 1514POPC   C3B18167  12.059   7.338  14.398 -0.1171  0.0676  0.1520
 1514POPC   C4B18168  12.042   7.273  14.848 -0.1399 -0.0139  0.0072
 1515POPC   NC318169   7.311   5.537  17.530  0.1991 -0.0654  0.0184
 1515POPC   PO418170   7.218   5.893  17.608  0.1538 -0.4955 -0.0115
 1515POPC   GL118171   6.883   5.930  17.413  0.1450 -0.0658  0.2189
 1515POPC   GL218172   6.828   6.240  17.396 -0.3405 -0.0808  0.2151
 1515POPC   C1A18173   6.719   5.786  17.012  0.1650  0.3294 -0.0056
 1515POPC   D2A18174   6.459   5.852  16.670  0.0370  0.0000  0.1054
 1515POPC   C3A18175   6.433   6.300  16.549  0.3266  0.2081 -0.1647
 1515POPC   C4A18176   6.101   6.599  16.515 -0.3804  0.1446 -0.0068
 1515POPC   C1B18177   6.455   6.272  17.151  0.2161 -0.1295 -0.0485
 1515POPC   C2B18178   6.107   6.575  17.044  0.1131 -0.0497 -0.1051
 1515POPC   C3B18179   5.722   6.735  17.203 -0.3976 -0.0178  0.1159
 1515POPC   C4B18180   5.248   6.756  17.229  0.0748 -0.2798  0.1553
 1516POPC   NC318181  14.346   0.384  20.233  0.1036  0.1092  0.0737
 1516POPC   PO418182  14.633   0.621  20.337  0.1160  0.1298 -0.2301
 1516POPC   GL118183  14.665   0.655  19.893 -0.0702  0.1410 -0.0945
 1516POPC   GL218184  14.910   0.816  19.876  0.1659 -0.0089  0.1531
 1516POPC   C1A18185  14.829   0.471  19.546  0.1967  0.1702 -0.3012
 1516POPC   D2A18186  14.652   0.245  19.222 -0.2003  0.0608  0.2665
 1516POPC   C3A18187  14.648  -0.191  19.400  0.4944  0.0487  0.0211
 1516POPC   C4A18188  14.679  -0.349  19.817  0.0230 -0.0618 -0.2200
 1516POPC   C1B18189  15.170   0.814  19.469 -0.2902  0.2379  0.0478
 1516POPC   C2B18190  15.216   0.860  19.007 -0.1014  0.0610 -0.2546
 1516POPC   C3B18191  15.191   0.689  18.558 -0.1103  0.2374 -0.2706
 1516POPC   C4B18192  15.093   0.883  18.144 -0.3047  0.2402 -0.1201
 1517POPC   NC318193  14.862   9.418  20.145  0.2347  0.1715 -0.0213
 1517POPC   PO418194  14.740   9.050  20.218  0.0325  0.0547 -0.1808
 1517POPC   GL118195  14.471   9.099  19.994 -0.1164  0.1658 -0.0428
 1517POPC   GL218196  14.245   9.292  20.127 -0.3027 -0.1642 -0.0377
 1517POPC   C1A18197  14.343   9.138  19.599 -0.0419 -0.0940  0.1093
 1517POPC   D2A18198  14.436   9.248  19.143 -0.2153  0.0533 -0.1871
 1517POPC   C3A18199  14.783   9.355  18.957 -0.0511 -0.2542 -0.2316
 1517POPC   C4A18200  15.009   9.515  18.584 -0.1492 -0.2132  0.1666
 1517POPC   C1B18201  14.070   9.510  19.768  0.3875 -0.0601  0.4027
 1517POPC   C2B18202  13.659   9.541  19.479 -0.2869  0.2947 -0.0272
 1517POPC   C3B18203  13.615   9.369  19.061 -0.3421 -0.2289 -0.0305
 1517POPC   C4B18204  13.648   8.892  18.978 -0.0805 -0.0445 -0.0698
 1518POPC   NC318205  10.089   3.468  16.592  0.0642 -0.2182 -0.1622
 1518POPC   PO418206  10.370   3.412  16.830  0.1299 -0.2193 -0.1403
 1518POPC   GL118207  10.375   3.103  16.683  0.2003 -0.0519  0.1404
 1518POPC   GL218208  10.559   2.940  16.824 -0.0890 -0.1574 -0.0779
 1518POPC   C1A18209  10.408   3.093  16.244 -0.1791  0.0334 -0.1629
 1518POPC   D2A18210  10.570   2.744  15.945  0.2752 -0.1817 -0.2909
 1518POPC   C3A18211  10.648   2.738  15.485  0.2989  0.0973 -0.3957
 1518POPC   C4A18212  10.599   2.679  15.043  0.2954 -0.1813 -0.1405
 1518POPC   C1B18213  10.791   2.837  16.428 -0.1853  0.2144  0.2726
 1518POPC   C2B18214  11.082   2.790  16.087 -0.1894 -0.0813 -0.2135
 1518POPC   C3B18215  11.200   2.564  15.703  0.4014 -0.0810  0.2757
 1518POPC   C4B18216  11.493   2.204  15.620 -0.0063  0.0583  0.4406
 1519POPC   NC318217   7.431   7.306  18.881 -0.1637 -0.0385 -0.0524
 1519POPC   PO418218   7.102   7.519  18.905 -0.1750  0.0386  0.1232
 1519POPC   GL118219   6.746   7.650  18.750  0.1692  0.0174 -0.4410
 1519POPC   GL218220   6.757   7.458  18.446  0.0346 -0.0907 -0.0928
 1519POPC   C1A18221   6.404   7.895  18.513 -0.2294 -0.0537 -0.0333
 1519POPC   D2A18222   6.063   7.867  18.287  0.1897  0.3064  0.0742
 1519POPC   C3A18223   5.752   7.585  18.063 -0.0267 -0.3801 -0.2958
 1519POPC   C4A18224   5.344   7.526  17.800 -0.2905  0.1910  0.1162
 1519POPC   C1B18225   6.523   7.589  17.994 -0.1041  0.3104 -0.1467
 1519POPC   C2B18226   6.180   7.520  17.703 -0.2824 -0.0071 -0.0865
 1519POPC   C3B18227   5.771   7.563  17.503  0.0201  0.1759  0.0876
 1519POPC   C4B18228   5.389   7.644  17.199  0.0434  0.0962 -0.1757
 1520POPC   NC318229   8.880   6.219  14.201  0.2280 -0.0634  0.1776
 1520POPC   PO418230   9.132   6.525  14.147 -0.1369 -0.0118 -0.5881
 1520POPC   GL118231   8.994   6.878  14.116  0.1245 -0.1986  0.1189
 1520POPC   GL218232   9.153   7.090  14.183  0.0737 -0.1251  0.0940
 1520POPC   C1A18233   8.801   7.098  13.745 -0.0994 -0.1772 -0.0956
 1520POPC   D2A18234   8.630   7.467  13.538 -0.1183  0.2458 -0.0522
 1520POPC   C3A18235   8.188   7.385  13.426  0.1197  0.3384 -0.1532
 1520POPC   C4A18236   7.863   7.349  13.785 -0.0234 -0.0297 -0.0967
 1520POPC   C1B18237   8.705   7.227  14.275  0.1399 -0.0606 -0.1360
 1520POPC   C2B18238   8.446   7.569  14.453  0.2185  0.1167  0.0037
 1520POPC   C3B18239   8.161   7.927  14.411  0.1520  0.0685  0.1621
 1520POPC   C4B18240   7.867   8.083  14.074 -0.1292  0.2445  0.0902
 1521POPC   NC318241  16.294   3.447  19.616 -0.1056  0.0970  0.1850
 1521POPC   PO418242  16.135   3.112  19.769 -0.0938 -0.0444 -0.1658
 1521POPC   GL118243  16.057   3.068  19.238  0.0826 -0.4662 -0.2929
 1521POPC   GL218244  16.030   3.286  19.129 -0.0782  0.1399  0.2964
 1521POPC   C1A18245  16.392   2.874  18.932  0.0061 -0.4325  0.3711
 1521POPC   D2A18246  16.464   2.601  18.564  0.1966 -0.0421  0.5281
 1521POPC   C3A18247  16.256   2.507  18.191  0.0719  0.0713  0.0886
 1521POPC   C4A18248  16.010   2.136  18.136  0.0141 -0.0856  0.2399
 1521POPC   C1B18249  16.003   3.223  18.642 -0.2516 -0.1916 -0.1468
 1521POPC   C2B18250  16.004   2.888  18.308 -0.3463  0.0933  0.0440
 1521POPC   C3B18251  15.888   2.728  17.931 -0.1223 -0.2596  0.1887
 1521POPC   C4B18252  15.536   2.516  17.915 -0.1230  0.2240 -0.0362
 1522POPC   NC318253   7.859   9.027  19.060  0.1550 -0.0701  0.1279
 1522POPC   PO418254   7.670   8.664  19.101  0.1556 -0.1028 -0.0893
 1522POPC   GL118255   7.437   9.051  18.868 -0.2553 -0.3504 -0.4942
 1522POPC   GL218256   7.416   8.843  18.695  0.1597  0.0007  0.0633
 1522POPC   C1A18257   7.370   9.306  18.477 -0.3734 -0.0314  0.0579
 1522POPC   D2A18258   7.342   9.361  18.049  0.0871  0.0779 -0.1746
 1522POPC   C3A18259   7.106   9.762  18.039 -0.2427  0.1507 -0.1003
 1522POPC   C4A18260   6.803   9.993  18.271 -0.0175  0.0540 -0.0914
 1522POPC   C1B18261   7.385   8.753  18.272 -0.0154  0.2158  0.2001
 1522POPC   C2B18262   7.307   8.848  17.848  0.1836 -0.1955  0.0808
 1522POPC   C3B18263   7.231   8.989  17.480 -0.1049  0.0596 -0.0052
 1522POPC   C4B18264   7.107   9.337  17.183 -0.0594 -0.1496  0.2543
 1523POPC   NC318265   2.967   7.608  19.714  0.0736  0.0403 -0.2292
 1523POPC   PO418266   2.647   7.702  19.881  0.0416  0.1907  0.2644
 1523POPC   GL118267   2.681   8.119  19.767 -0.6227  0.2677 -0.2080
 1523POPC   GL218268   2.399   8.126  19.778 -0.0282 -0.0955  0.1043
 1523POPC   C1A18269   2.692   8.233  19.345 -0.0678  0.1338 -0.0311
 1523POPC   D2A18270   2.475   8.248  18.988 -0.2522  0.1585 -0.1362
 1523POPC   C3A18271   2.358   8.537  18.691 -0.0835  0.0415 -0.3175
 1523POPC   C4A18272   2.458   8.898  18.471  0.1663  0.0012  0.1271
 1523POPC   C1B18273   2.245   8.435  19.509  0.2106  0.0055 -0.0016
 1523POPC   C2B18274   2.130   8.554  19.101  0.1475  0.2497  0.1551
 1523POPC   C3B18275   1.912   8.348  18.797 -0.1585 -0.1383  0.1001
 1523POPC   C4B18276   2.143   8.189  18.429 -0.0622  0.2515  0.0132
 1524POPC   NC318277  11.666  11.537  20.213  0.0571 -0.1444 -0.2269
 1524POPC   PO418278  11.386  11.290  20.314 -0.0960 -0.0549  0.0410
 1524POPC   GL118279  11.225  11.351  19.947  0.1914 -0.0308  0.1035
 1524POPC   GL218280  11.509  11.257  19.782  0.1720  0.1457 -0.0988
 1524POPC   C1A18281  11.356  11.709  19.684 -0.3066 -0.0401 -0.2701
 1524POPC   D2A18282  11.431  11.900  19.235 -0.0767  0.0876  0.0182
 1524POPC   C3A18283  11.730  12.171  19.014 -0.2465  0.2419  0.1117
 1524POPC   C4A18284  11.799  12.381  18.580 -0.1484 -0.0806 -0.1053
 1524POPC   C1B18285  11.676  11.401  19.351  0.2772 -0.1960  0.3286
 1524POPC   C2B18286  11.899  11.676  19.043  0.1943  0.2917 -0.1690
 1524POPC   C3B18287  12.033  11.936  18.652 -0.1093  0.4330  0.3504
 1524POPC   C4B18288  12.039  12.158  18.225 -0.0461 -0.2675 -0.0688
 1525POPC   NC318289   5.009  15.334  20.426 -0.0975 -0.0257  0.1132
 1525POPC   PO418290   4.729  15.556  20.539  0.0936  0.1340 -0.1463
 1525POPC   GL118291   4.720  15.605  20.101 -0.1178  0.2594  0.2940
 1525POPC   GL218292   5.045  15.718  20.069 -0.0084  0.0809  0.0844
 1525POPC   C1A18293   4.415  15.684  19.734 -0.0175  0.1184 -0.0801
 1525POPC   D2A18294   4.152  15.639  19.376  0.0305 -0.1056  0.2015
 1525POPC   C3A18295   4.539  15.577  19.118 -0.0100 -0.2337  0.0498
 1525POPC   C4A18296   4.819  15.445  18.790  0.1862  0.0238 -0.1234
 1525POPC   C1B18297   4.841  15.570  19.631 -0.0388  0.5856 -0.1058
 1525POPC   C2B18298   5.088  15.443  19.272  0.1143 -0.3278 -0.0304
 1525POPC   C3B18299   5.393  15.500  18.937  0.0265  0.0037  0.0450
 1525POPC   C4B18300   5.755  15.687  18.780  0.0604 -0.1327 -0.1044
 1526POPC   NC318301   8.636  13.620  20.611 -0.1078  0.1180 -0.1004
 1526POPC   PO418302   8.789  13.912  20.399 -0.3831  0.1080 -0.1134
 1526POPC   GL118303   9.000  14.051  20.040  0.1708  0.0010 -0.0220
 1526POPC   GL218304   9.318  14.043  20.085 -0.4728 -0.1187 -0.0636
 1526POPC   C1A18305   9.172  14.046  19.600  0.2513 -0.1496 -0.2760
 1526POPC   D2A18306   9.159  14.050  19.130  0.0443 -0.0387  0.2281
 1526POPC   C3A18307   8.785  13.845  18.933 -0.1341  0.3508  0.3717
 1526POPC   C4A18308   8.540  13.640  18.642 -0.0069  0.2639  0.0834
 1526POPC   C1B18309   9.687  14.079  19.787 -0.0210  0.2006  0.3514
 1526POPC   C2B18310   9.960  13.861  19.496  0.0079  0.2703  0.0903
 1526POPC   C3B18311   9.897  13.485  19.189 -0.1835  0.3825  0.0619
 1526POPC   C4B18312   9.742  13.488  18.773 -0.1131  0.1580  0.4605
 1527POPC   NC318313   2.014  10.937  20.807  0.0817 -0.4040 -0.1071
 1527POPC   PO418314   1.684  11.094  20.715  0.1924 -0.1579 -0.0387
 1527POPC   GL118315   1.730  11.188  20.328 -0.3372  0.2519 -0.0429
 1527POPC   GL218316   1.940  10.939  20.257  0.0846  0.1053  0.0644
 1527POPC   C1A18317   1.615  11.225  19.879 -0.1251 -0.0722 -0.0355
 1527POPC   D2A18318   1.566  11.346  19.418 -0.0715  0.1349 -0.0485
 1527POPC   C3A18319   1.360  11.370  19.045  0.0433 -0.2949 -0.3308
 1527POPC   C4A18320   1.025  11.531  18.731 -0.3322  0.0088 -0.1340
 1527POPC   C1B18321   2.127  11.319  20.116  0.1198  0.1174  0.0124
 1527POPC   C2B18322   1.979  11.512  19.700 -0.0386  0.5112 -0.0761
 1527POPC   C3B18323   2.071  11.499  19.217 -0.1159  0.1828 -0.1116
 1527POPC   C4B18324   2.029  11.500  18.741 -0.2366 -0.1088 -0.1353
 1528POPC   NC318325   8.204   9.169  19.521  0.0772  0.0672 -0.0872
 1528POPC   PO418326   7.866   9.363  19.443 -0.1027  0.2332 -0.1210
 1528POPC   GL118327   7.710   9.517  19.160 -0.1717 -0.1641  0.2920
 1528POPC   GL218328   7.866   9.745  19.032  0.2431 -0.1056 -0.3643
 1528POPC   C1A18329   7.334   9.583  18.856  0.2542  0.1155  0.2474
 1528POPC   D2A18330   7.029   9.895  18.691  0.1724 -0.3091  0.1986
 1528POPC   C3A18331   7.116  10.322  18.787 -0.0384 -0.2162 -0.0463
 1528POPC   C4A18332   7.005  10.699  19.088  0.0215 -0.0327  0.0142
 1528POPC   C1B18333   7.779   9.532  18.639 -0.0519 -0.0492 -0.0956
 1528POPC   C2B18334   7.522   9.809  18.371 -0.2164  0.0344 -0.2721
 1528POPC   C3B18335   7.254  10.169  18.262  0.0753 -0.0276 -0.0427
 1528POPC   C4B18336   7.220  10.638  18.344  0.0030 -0.2818  0.1570
 1529POPC   NC318337  10.584   5.207  15.661 -0.0958  0.0878 -0.0441
 1529POPC   PO418338  10.614   4.844  15.856 -0.0927  0.1776  0.1654
 1529POPC   GL118339  11.019   4.780  15.636  0.2468  0.0536  0.0452
 1529POPC   GL218340  11.029   4.500  15.636 -0.1028 -0.1959  0.1458
 1529POPC   C1A18341  11.113   4.874  15.224 -0.2398  0.1703 -0.1105
 1529POPC   D2A18342  11.354   5.002  14.845 -0.2061 -0.1490 -0.0936
 1529POPC   C3A18343  11.257   5.392  14.766 -0.2767  0.0255  0.1636
 1529POPC   C4A18344  11.456   5.752  15.019 -0.0048  0.1286  0.1519
 1529POPC   C1B18345  11.292   4.248  15.328  0.0473 -0.0438  0.1588
 1529POPC   C2B18346  11.517   3.977  15.106 -0.4761 -0.2254  0.1161
 1529POPC   C3B18347  11.632   3.720  14.742 -0.0789  0.4410 -0.1977
 1529POPC   C4B18348  11.376   3.502  14.420  0.0323  0.0093  0.0456
 1530POPC   NC318349   7.978   9.845  19.517  0.1128 -0.3090  0.3060
 1530POPC   PO418350   8.337   9.711  19.380 -0.0813 -0.2643  0.1351
 1530POPC   GL118351   8.321  10.008  19.186 -0.0309 -0.1485  0.2703
 1530POPC   GL218352   8.083  10.195  19.152 -0.3028  0.3489 -0.0741
 1530POPC   C1A18353   8.449  10.247  18.808  0.0675  0.3805 -0.1182
 1530POPC   D2A18354   8.551  10.210  18.316  0.1521 -0.3686 -0.0655
 1530POPC   C3A18355   8.941  10.377  18.248  0.0525  0.1787 -0.1771
 1530POPC   C4A18356   9.160  10.781  18.264  0.3556 -0.1129 -0.0487
 1530POPC   C1B18357   7.954  10.445  18.790  0.0931  0.0745  0.0417
 1530POPC   C2B18358   8.123  10.497  18.402  0.5494 -0.0843 -0.0014
 1530POPC   C3B18359   8.091  10.825  18.031 -0.5074  0.1098  0.1562
 1530POPC   C4B18360   7.802  11.139  17.839 -0.1418  0.2462  0.4286
 1531POPC   NC318361   8.048   8.013  17.958 -0.0114 -0.0018 -0.3411
 1531POPC   PO418362   8.398   7.909  17.829 -0.2425  0.0486  0.0718
 1531POPC   GL118363   8.515   8.156  17.515 -0.1999 -0.0451  0.0784
 1531POPC   GL218364   8.206   8.257  17.554 -0.1771  0.1691 -0.0227
 1531POPC   C1A18365   8.488   8.629  17.347  0.5684  0.0700  0.0652
 1531POPC   D2A18366   8.498   9.059  17.091 -0.0467  0.0257 -0.2009
 1531POPC   C3A18367   8.759   9.443  17.144  0.0894 -0.2689  0.1170
 1531POPC   C4A18368   9.181   9.464  17.160 -0.2911 -0.4670 -0.2046
 1531POPC   C1B18369   8.018   8.427  17.142 -0.1781 -0.0655 -0.1290
 1531POPC   C2B18370   7.664   8.672  16.899  0.0221  0.0410  0.0428
 1531POPC   C3B18371   7.233   8.818  16.825  0.0027 -0.2104 -0.1368
 1531POPC   C4B18372   6.980   8.638  17.194 -0.1207  0.0918  0.1019
 1532POPC   NC318373   6.958  14.547  20.705 -0.1447  0.0159  0.3534
 1532POPC   PO418374   6.808  14.924  20.645  0.2791 -0.0796  0.0620
 1532POPC   GL118375   6.764  14.828  20.262 -0.1003  0.0985  0.1785
 1532POPC   GL218376   6.938  14.978  20.121 -0.1029 -0.3636  0.4068
 1532POPC   C1A18377   6.524  14.606  19.915 -0.0900  0.0381 -0.0745
 1532POPC   D2A18378   6.493  14.497  19.475 -0.0442 -0.0145 -0.2646
 1532POPC   C3A18379   6.247  14.537  19.086 -0.1223 -0.2849 -0.1734
 1532POPC   C4A18380   5.929  14.720  18.801 -0.3860 -0.1717  0.0882
 1532POPC   C1B18381   6.954  14.777  19.715  0.3902  0.0335 -0.3777
 1532POPC   C2B18382   7.016  14.667  19.316 -0.2877 -0.0315 -0.1286
 1532POPC   C3B18383   6.739  14.457  19.021 -0.0624  0.0734  0.3872
 1532POPC   C4B18384   6.601  14.318  18.630  0.1185  0.0673 -0.0686
 1533POPC   NC318385   7.945   6.144  16.507 -0.2517 -0.0167 -0.0055
 1533POPC   PO418386   7.748   6.447  16.304 -0.3623 -0.0994  0.0392
 1533POPC   GL118387   7.506   6.538  16.045  0.0160 -0.1537  0.0476
 1533POPC   GL218388   7.324   6.324  15.930  0.0643 -0.1764  0.0438
 1533POPC   C1A18389   7.248   6.759  15.702 -0.0039 -0.0076 -0.0975
 1533POPC   D2A18390   7.364   7.201  15.522 -0.2848 -0.1941  0.1284
 1533POPC   C3A18391   7.464   7.466  15.132 -0.0194  0.0252 -0.2120
 1533POPC   C4A18392   7.410   7.671  14.745 -0.1850 -0.0105 -0.1247
 1533POPC   C1B18393   7.396   6.134  15.537  0.0195 -0.0157  0.2550
 1533POPC   C2B18394   7.111   6.056  15.159  0.0958  0.1151  0.0949
 1533POPC   C3B18395   6.721   5.895  15.035 -0.1481  0.1393 -0.0968
 1533POPC   C4B18396   6.539   5.750  14.634 -0.0085 -0.2002  0.0611
 1534POPC   NC318397  10.243   6.414  14.191  0.0482  0.2491  0.0302
 1534POPC   PO418398  10.215   6.352  13.794  0.0938 -0.2423 -0.2162
 1534POPC   GL118399  10.429   6.657  13.746  0.2107 -0.1555 -0.0494
 1534POPC   GL218400  10.625   6.722  13.562  0.1275  0.3765  0.2647
 1534POPC   C1A18401  10.470   6.893  14.100  0.2542  0.1690  0.0594
 1534POPC   D2A18402  10.777   7.317  14.197  0.2217  0.1245  0.0285
 1534POPC   C3A18403  11.117   7.228  14.470 -0.1004  0.2277  0.2224
 1534POPC   C4A18404  11.229   7.193  14.893  0.0691  0.2668  0.0426
 1534POPC   C1B18405  10.735   7.168  13.652 -0.4420 -0.0207 -0.0105
 1534POPC   C2B18406  11.087   7.429  13.677  0.1237  0.1650  0.0610
 1534POPC   C3B18407  11.497   7.555  13.459  0.2806 -0.1444 -0.4264
 1534POPC   C4B18408  11.957   7.579  13.577  0.0936 -0.1266  0.1330
 1535POPC   NC318409  10.889   5.949  15.692  0.0710  0.3379  0.0720
 1535POPC   PO418410  10.615   6.199  15.791  0.0452  0.2984  0.2410
 1535POPC   GL118411  10.941   6.422  15.575  0.1911  0.1639 -0.1642
 1535POPC   GL218412  10.926   6.518  15.249  0.1879  0.0411  0.0175
 1535POPC   C1A18413  11.373   6.608  15.531 -0.2506  0.0137 -0.2945
 1535POPC   D2A18414  11.629   6.922  15.677  0.0762 -0.0010  0.3434
 1535POPC   C3A18415  12.081   6.824  15.757  0.0175  0.1122 -0.0384
 1535POPC   C4A18416  12.516   6.909  15.883 -0.2728  0.0582  0.1146
 1535POPC   C1B18417  11.042   6.936  15.259  0.1581  0.0698  0.0427
 1535POPC   C2B18418  11.408   7.287  15.370 -0.2356  0.0242 -0.2437
 1535POPC   C3B18419  11.727   7.531  15.160  0.1425  0.0427 -0.0791
 1535POPC   C4B18420  12.194   7.616  15.165  0.1900 -0.0824  0.0458
 1536POPC   NC318421   0.386   8.110  20.421 -0.0569  0.0905 -0.4707
 1536POPC   PO418422   0.292   7.927  20.085 -0.0781  0.3780 -0.2164
 1536POPC   GL118423   0.465   7.901  19.713  0.1214  0.2615  0.1678
 1536POPC   GL218424   0.640   8.073  19.588  0.0065  0.2051 -0.1342
 1536POPC   C1A18425   0.233   8.037  19.292  0.0097 -0.1346 -0.0496
 1536POPC   D2A18426  -0.084   8.320  19.118  0.1103  0.2557 -0.1925
 1536POPC   C3A18427  -0.426   8.338  18.825  0.1834  0.0372 -0.0635
 1536POPC   C4A18428  -0.476   8.307  18.418 -0.2771 -0.5395  0.1623
 1536POPC   C1B18429   0.891   8.254  19.299  0.3679  0.2851  0.1065
 1536POPC   C2B18430   1.164   8.323  18.946  0.0814  0.0381 -0.4788
 1536POPC   C3B18431   1.200   8.432  18.499  0.0932 -0.3302 -0.0776
 1536POPC   C4B18432   1.240   8.769  18.176  0.0386  0.1192 -0.1506
 1537POPC   NC318433   1.704   2.152  19.823  0.2339  0.1709 -0.2944
 1537POPC   PO418434   2.048   2.073  19.615  0.2391 -0.2240  0.1345
 1537POPC   GL118435   2.019   2.115  19.185  0.4908  0.0926 -0.2216
 1537POPC   GL218436   1.814   1.882  19.213  0.0442 -0.0719  0.2800
 1537POPC   C1A18437   2.091   2.106  18.751 -0.0876 -0.0620 -0.1379
 1537POPC   D2A18438   2.012   2.015  18.275  0.1873  0.2035 -0.1572
 1537POPC   C3A18439   1.573   1.913  18.100  0.0607  0.2091  0.0279
 1537POPC   C4A18440   1.144   1.982  17.952 -0.0396 -0.1433 -0.3714
 1537POPC   C1B18441   1.492   2.012  18.934  0.0398  0.0079  0.0977
 1537POPC   C2B18442   1.313   1.801  18.558 -0.1219 -0.0182  0.1434
 1537POPC   C3B18443   1.007   1.567  18.254  0.0549  0.0605 -0.0063
 1537POPC   C4B18444   0.660   1.375  18.024  0.2183  0.0672  0.3181
 1538POPC   NC318445  15.576   7.069  19.360  0.1356 -0.1289 -0.0129
 1538POPC   PO418446  15.569   6.730  19.577 -0.3186 -0.1950 -0.0691
 1538POPC   GL118447  15.684   6.693  19.231 -0.0919  0.1678 -0.0314
 1538POPC   GL218448  15.791   6.447  19.207  0.0036  0.0556  0.0566
 1538POPC   C1A18449  15.804   7.047  18.913 -0.0369 -0.1151 -0.2636
 1538POPC   D2A18450  15.988   7.109  18.456 -0.0586  0.0529  0.3442
 1538POPC   C3A18451  15.608   7.312  18.228 -0.1642 -0.1268 -0.1355
 1538POPC   C4A18452  15.138   7.334  18.204 -0.2845  0.1128 -0.0097
 1538POPC   C1B18453  16.061   6.629  18.886 -0.3751  0.1494 -0.3125
 1538POPC   C2B18454  16.107   6.553  18.404  0.1889 -0.1450  0.0656
 1538POPC   C3B18455  16.353   6.813  18.094 -0.2300 -0.2509 -0.3177
 1538POPC   C4B18456  16.414   6.936  17.646  0.6470 -0.2986 -0.3913
 1539POPC   NC318457   7.310   2.763  17.740  0.0755  0.2111  0.1100
 1539POPC   PO418458   7.064   2.692  18.095 -0.2113 -0.6431  0.3900
 1539POPC   GL118459   7.052   2.324  17.895  0.1869 -0.2482 -0.2042
 1539POPC   GL218460   7.196   2.300  17.625  0.0964  0.0690  0.3508
 1539POPC   C1A18461   7.026   1.837  17.793 -0.2794 -0.0001 -0.3398
 1539POPC   D2A18462   7.030   1.445  17.503 -0.1628 -0.0441 -0.1387
 1539POPC   C3A18463   6.888   0.995  17.417 -0.2280 -0.2289  0.0536
 1539POPC   C4A18464   6.560   0.746  17.190 -0.2114 -0.0100 -0.2476
 1539POPC   C1B18465   7.014   2.037  17.243 -0.1419 -0.4829  0.1261
 1539POPC   C2B18466   6.731   1.772  16.963 -0.1568  0.0262 -0.1127
 1539POPC   C3B18467   6.570   1.472  16.597 -0.1483 -0.3039 -0.0835
 1539POPC   C4B18468   6.446   1.379  16.141  0.1174  0.0719  0.3178
 1540POPC   NC318469  11.009  10.093  19.579 -0.2172  0.3390 -0.2406
 1540POPC   PO418470  10.812  10.406  19.700 -0.2804  0.1891 -0.0583
 1540POPC   GL118471  10.602  10.511  19.390 -0.0166 -0.2585 -0.2902
 1540POPC   GL218472  10.838  10.458  19.201  0.2353  0.1489  0.1434
 1540POPC   C1A18473  10.437  10.491  18.946  0.5893 -0.2708  0.1232
 1540POPC   D2A18474  10.336  10.463  18.500 -0.1489 -0.0748  0.0003
 1540POPC   C3A18475  10.727  10.401  18.216 -0.1816 -0.1199  0.2767
 1540POPC   C4A18476  11.073  10.465  17.904  0.0455  0.1651 -0.1030
 1540POPC   C1B18477  10.828  10.901  19.134  0.0100 -0.0654 -0.2090
 1540POPC   C2B18478  10.893  11.228  18.756 -0.2316  0.0961 -0.1517
 1540POPC   C3B18479  10.753  11.700  18.666 -0.0905 -0.0144 -0.0605
 1540POPC   C4B18480  10.851  12.149  18.583  0.2610  0.2727 -0.0977
 1541POPC   NC318481  16.373   2.262  19.789 -0.0075 -0.2213  0.0602
 1541POPC   PO418482  16.764   2.331  19.897 -0.3139 -0.0433 -0.1911
 1541POPC   GL118483  16.799   2.324  19.511 -0.0159  0.0846  0.3532
 1541POPC   GL218484  16.563   2.286  19.298  0.2262 -0.1798  0.0996
 1541POPC   C1A18485  17.048   2.579  19.215 -0.0065 -0.1121 -0.2122
 1541POPC   D2A18486  17.202   3.004  19.285  0.1098 -0.1400  0.2460
 1541POPC   C3A18487  17.380   3.258  18.962 -0.0931  0.2998  0.0528
 1541POPC   C4A18488  17.450   3.715  18.867 -0.0094 -0.0155  0.0765
 1541POPC   C1B18489  16.745   2.327  18.882 -0.1469 -0.1586  0.1352
 1541POPC   C2B18490  17.031   2.327  18.563  0.0574  0.1101 -0.0812
 1541POPC   C3B18491  17.138   2.091  18.236 -0.2937  0.4002 -0.1775
 1541POPC   C4B18492  16.970   1.847  17.893  0.0699  0.1753 -0.0487
 1542POPC   NC318493   5.572  14.532  20.762 -0.2725  0.2695  0.2693
 1542POPC   PO418494   5.404  14.190  20.670 -0.0422  0.0265 -0.1710
 1542POPC   GL118495   5.198  13.988  20.411 -0.5006 -0.3169  0.2268
 1542POPC   GL218496   4.928  14.124  20.395 -0.0720  0.0265  0.1491
 1542POPC   C1A18497   5.261  14.168  19.979  0.0645 -0.0984  0.2556
 1542POPC   D2A18498   5.106  14.426  19.616  0.1525  0.0419 -0.0258
 1542POPC   C3A18499   5.039  14.375  19.151 -0.2155 -0.1421  0.2906
 1542POPC   C4A18500   4.863  14.639  18.844  0.2533 -0.3380  0.3577
 1542POPC   C1B18501   4.883  14.457  20.093  0.3597  0.1198 -0.2021
 1542POPC   C2B18502   4.694  14.612  19.698 -0.2066 -0.1285 -0.2987
 1542POPC   C3B18503   4.560  14.617  19.282  0.0586 -0.1491  0.3323
 1542POPC   C4B18504   4.346  14.737  18.844 -0.0298  0.1521  0.0918
 1543POPC   NC318505  10.841   5.130  14.784 -0.3641  0.3142 -0.1664
 1543POPC   PO418506  10.655   5.413  14.983 -0.2661  0.1423  0.0553
 1543POPC   GL118507  10.903   5.673  14.817  0.2690  0.1627  0.1160
 1543POPC   GL218508  10.953   5.922  14.922 -0.2394  0.0929 -0.0270
 1543POPC   C1A18509  11.232   5.809  14.486 -0.0166 -0.0471 -0.0356
 1543POPC   D2A18510  11.646   5.823  14.565  0.1917 -0.0634 -0.1011
 1543POPC   C3A18511  11.954   5.776  14.918  0.1140  0.0885  0.0760
 1543POPC   C4A18512  12.089   6.059  15.233  0.0965  0.2690 -0.1128
 1543POPC   C1B18513  11.206   6.283  14.906 -0.0826 -0.0938 -0.1521
 1543POPC   C2B18514  11.407   6.676  14.990  0.0173 -0.0921  0.3658
 1543POPC   C3B18515  11.721   6.964  15.099 -0.0408 -0.0609  0.0082
 1543POPC   C4B18516  12.040   7.164  15.372  0.2343  0.0654  0.0873
 1544POPC   NC318517   6.861   8.013  19.561 -0.0638 -0.0292  0.1019
 1544POPC   PO418518   6.754   7.807  19.195 -0.0381 -0.0376 -0.1368
 1544POPC   GL118519   6.809   8.153  19.018  0.0166  0.1102  0.5382
 1544POPC   GL218520   6.571   8.215  18.944 -0.0253  0.0044 -0.1323
 1544POPC   C1A18521   6.844   8.265  18.551  0.0462  0.2640  0.1036
 1544POPC   D2A18522   6.742   8.029  18.164  0.3396  0.2930  0.3778
 1544POPC   C3A18523   6.388   8.064  17.946  0.1664 -0.1112  0.1826
 1544POPC   C4A18524   6.010   8.331  18.123 -0.1961  0.1540 -0.1302
 1544POPC   C1B18525   6.358   8.377  18.538  0.0144 -0.0211 -0.2063
 1544POPC   C2B18526   6.496   8.572  18.173 -0.1298 -0.1645  0.0581
 1544POPC   C3B18527   6.311   8.593  17.749  0.0761 -0.0018  0.0766
 1544POPC   C4B18528   6.283   8.950  17.382  0.1251 -0.2689 -0.0350
 1545POPC   NC318529   9.644   6.712  13.085  0.1516  0.0372 -0.0117
 1545POPC   PO418530   9.233   6.560  13.216 -0.1714 -0.1445  0.1000
 1545POPC   GL118531   9.282   6.913  13.339 -0.1962 -0.3509 -0.0306
 1545POPC   GL218532   9.375   7.120  13.109  0.0352 -0.0130 -0.0759
 1545POPC   C1A18533   9.282   7.278  13.589  0.0265  0.0613  0.0665
 1545POPC   D2A18534   9.010   7.582  13.858  0.1904  0.0780  0.1255
 1545POPC   C3A18535   8.999   8.037  13.926  0.0245 -0.0686 -0.2239
 1545POPC   C4A18536   8.876   8.409  13.714 -0.1693 -0.2036  0.0865
 1545POPC   C1B18537   9.125   7.504  13.125  0.1267  0.1914  0.0399
 1545POPC   C2B18538   8.913   7.909  12.924  0.0070  0.2454  0.0753
 1545POPC   C3B18539   8.989   8.357  12.880  0.0664  0.0173  0.3077
 1545POPC   C4B18540   9.301   8.683  12.913  0.2450  0.0348 -0.1708
 1546POPC   NC318541   3.307  10.040  20.861 -0.3248 -0.1613 -0.3930
 1546POPC   PO418542   3.528  10.200  20.622 -0.3436 -0.1480 -0.0968
 1546POPC   GL118543   3.727  10.269  20.305  0.1546  0.0624  0.0683
 1546POPC   GL218544   3.567  10.131  20.044 -0.0322  0.0061 -0.1235
 1546POPC   C1A18545   3.944  10.482  19.998  0.0731  0.1229 -0.1024
 1546POPC   D2A18546   3.890  10.723  19.605 -0.1181  0.0470 -0.1375
 1546POPC   C3A18547   4.126  10.618  19.232  0.1600 -0.0984 -0.0421
 1546POPC   C4A18548   4.250  10.821  18.801  0.0086  0.0491  0.0025
 1546POPC   C1B18549   3.604  10.307  19.638  0.1674 -0.0954 -0.2644
 1546POPC   C2B18550   3.636  10.452  19.178  0.4110  0.0162 -0.2730
 1546POPC   C3B18551   3.745  10.739  18.815 -0.1147  0.2006 -0.0894
 1546POPC   C4B18552   3.905  11.083  18.569  0.0564 -0.3789  0.1327
 1547POPC   NC318553   2.375   1.694  19.658  0.0998 -0.3527 -0.0773
 1547POPC   PO418554   2.459   2.034  19.898  0.0869  0.1182  0.0165
 1547POPC   GL118555   2.414   2.182  19.471  0.2425 -0.0306 -0.1801
 1547POPC   GL218556   2.655   2.281  19.556  0.2739 -0.0846  0.0469
 1547POPC   C1A18557   2.462   2.322  19.044 -0.0006  0.0214 -0.2358
 1547POPC   D2A18558   2.712   2.459  18.713  0.1753 -0.0091  0.0124
 1547POPC   C3A18559   2.722   2.212  18.352 -0.1416 -0.1763 -0.1074
 1547POPC   C4A18560   2.474   2.137  17.980 -0.1616 -0.0787 -0.2305
 1547POPC   C1B18561   2.672   1.905  19.246 -0.1077 -0.3598  0.4604
 1547POPC   C2B18562   2.574   1.882  18.833  0.2288  0.0994 -0.0770
 1547POPC   C3B18563   2.398   1.724  18.432 -0.0684 -0.1432  0.1174
 1547POPC   C4B18564   2.426   1.481  18.046 -0.0768  0.0793 -0.1709
 1548POPC   NC318565   0.053   9.964  20.400 -0.1208 -0.1638  0.3687
 1548POPC   PO418566  -0.077   9.582  20.386 -0.0642 -0.0786 -0.3572
 1548POPC   GL118567   0.035   9.699  20.049 -0.0737 -0.0116 -0.0162
 1548POPC   GL218568  -0.118   9.853  19.881  0.0391 -0.0248  0.1456
 1548POPC   C1A18569   0.170   9.409  19.678 -0.0794 -0.0519  0.0190
 1548POPC   D2A18570   0.331   9.079  19.433 -0.0359  0.6870 -0.0116
 1548POPC   C3A18571   0.597   9.076  19.078  0.2052 -0.3165 -0.1431
 1548POPC   C4A18572   0.989   9.283  18.976  0.3849 -0.2630 -0.0144
 1548POPC   C1B18573   0.030   9.845  19.430 -0.4342  0.1039 -0.2165
 1548POPC   C2B18574   0.332   9.627  19.212  0.1056 -0.0318 -0.0715
 1548POPC   C3B18575   0.582   9.537  18.864 -0.2088  0.0194 -0.1128
 1548POPC   C4B18576   0.666   9.328  18.461  0.0178 -0.3060  0.3292
 1549POPC   NC318577  15.724   6.657  20.375 -0.1797 -0.2223 -0.1701
 1549POPC   PO418578  15.808   6.912  20.095  0.3583 -0.6303 -0.0751
 1549POPC   GL118579  15.870   7.084  19.698 -0.3855  0.0160 -0.0868
 1549POPC   GL218580  15.978   7.285  19.675 -0.1928 -0.3765 -0.0675
 1549POPC   C1A18581  16.114   6.914  19.316 -0.0413 -0.0640  0.2861
 1549POPC   D2A18582  16.498   6.929  19.072 -0.0381 -0.0734 -0.1858
 1549POPC   C3A18583  16.533   6.798  18.602  0.3976 -0.1765 -0.2446
 1549POPC   C4A18584  16.800   6.597  18.314 -0.1393 -0.3562 -0.1610
 1549POPC   C1B18585  16.016   7.407  19.242  0.0328 -0.0415  0.1042
 1549POPC   C2B18586  16.204   7.352  18.858 -0.0636 -0.3498  0.0030
 1549POPC   C3B18587  16.413   7.395  18.449  0.0157 -0.0639  0.0854
 1549POPC   C4B18588  16.604   7.723  18.155 -0.1301  0.2088  0.0605
 1550POPC   NC318589  11.541   9.408  19.874 -0.0937 -0.0478 -0.0507
 1550POPC   PO418590  11.775   9.093  19.812  0.0484 -0.0383  0.2647
 1550POPC   GL118591  11.992   8.907  19.497 -0.0385 -0.0780  0.1210
 1550POPC   GL218592  12.018   8.614  19.650  0.1080  0.2514  0.3012
 1550POPC   C1A18593  12.162   9.041  19.066  0.0667 -0.0240  0.0065
 1550POPC   D2A18594  12.253   9.292  18.705 -0.3696 -0.0202  0.2796
 1550POPC   C3A18595  11.889   9.499  18.458 -0.1607 -0.0191  0.0756
 1550POPC   C4A18596  11.586   9.765  18.240  0.0631 -0.2470 -0.0412
 1550POPC   C1B18597  12.153   8.464  19.232 -0.0394  0.1203  0.0442
 1550POPC   C2B18598  12.155   8.604  18.823  0.1409  0.2609  0.0032
 1550POPC   C3B18599  12.420   8.840  18.584 -0.3448 -0.2264 -0.0716
 1550POPC   C4B18600  12.818   9.161  18.653  0.0405 -0.3079 -0.2061
 1551POPC   NC318601   8.454   4.175  15.059  0.1922  0.0559  0.2645
 1551POPC   PO418602   8.667   4.336  14.782 -0.2342 -0.1462 -0.3381
 1551POPC   GL118603   8.502   3.960  14.681 -0.0884 -0.0006  0.5483
 1551POPC   GL218604   8.202   4.012  14.626  0.0985 -0.1090 -0.2031
 1551POPC   C1A18605   8.416   3.828  14.284 -0.2414 -0.0424  0.1187
 1551POPC   D2A18606   8.332   3.564  13.974 -0.1010 -0.1548  0.1944
 1551POPC   C3A18607   8.328   3.118  14.063  0.0788 -0.0445  0.1660
 1551POPC   C4A18608   8.693   2.944  14.182  0.2599  0.2824 -0.1338
 1551POPC   C1B18609   7.867   4.302  14.414 -0.2241  0.2196  0.4919
 1551POPC   C2B18610   7.364   4.542  14.480  0.1611  0.1517  0.1578
 1551POPC   C3B18611   6.891   4.689  14.425 -0.0720  0.1947  0.2374
 1551POPC   C4B18612   6.451   4.754  14.293  0.1096  0.0641  0.0105
 1552POPC   NC318613   4.407   8.217  20.013  0.0962  0.2930 -0.1367
 1552POPC   PO418614   4.235   8.519  19.802  0.1373  0.0473 -0.0037
 1552POPC   GL118615   4.143   8.803  19.465  0.4303 -0.1008 -0.1153
 1552POPC   GL218616   3.975   9.075  19.455 -0.2421 -0.1577  0.2318
 1552POPC   C1A18617   3.837   8.730  19.099  0.0930  0.0676  0.1322
 1552POPC   D2A18618   3.810   8.546  18.658 -0.2655  0.0456 -0.1659
 1552POPC   C3A18619   4.238   8.368  18.450  0.1474  0.1972 -0.5210
 1552POPC   C4A18620   4.472   8.031  18.387 -0.0560  0.1802  0.0974
 1552POPC   C1B18621   3.605   9.403  19.367  0.0370  0.1544 -0.2456
 1552POPC   C2B18622   3.254   9.554  19.125  0.1577  0.1997 -0.0726
 1552POPC   C3B18623   3.212   9.593  18.699  0.0112 -0.0127  0.1499
 1552POPC   C4B18624   3.004   9.730  18.322 -0.0139  0.0892  0.0451
 1553POPC   NC318625  12.417   7.242  19.281  0.1522  0.4601  0.2113
 1553POPC   PO418626  12.755   7.220  19.093 -0.0245 -0.3010  0.0781
 1553POPC   GL118627  12.899   7.390  18.926 -0.3840 -0.3934  0.2081
 1553POPC   GL218628  12.703   7.519  18.693  0.1199  0.1197 -0.0961
 1553POPC   C1A18629  13.257   7.445  18.681 -0.0889 -0.0148  0.1186
 1553POPC   D2A18630  13.606   7.438  18.366  0.2456 -0.2553 -0.0159
 1553POPC   C3A18631  13.526   7.373  17.898  0.3097  0.3229 -0.0147
 1553POPC   C4A18632  13.232   7.555  17.519  0.3443 -0.0649 -0.0917
 1553POPC   C1B18633  12.986   7.611  18.318  0.3493  0.1039 -0.1215
 1553POPC   C2B18634  13.262   7.774  18.031  0.0880 -0.0041  0.4496
 1553POPC   C3B18635  13.189   8.057  17.657  0.1708 -0.2287 -0.1930
 1553POPC   C4B18636  13.314   8.486  17.644 -0.1067  0.0880  0.0904
 1554POPC   NC318637  13.033  14.594  20.478 -0.2088 -0.1498 -0.0309
 1554POPC   PO418638  12.746  14.646  20.190  0.1630  0.0161  0.0538
 1554POPC   GL118639  12.806  14.553  19.796 -0.4522  0.1122 -0.1354
 1554POPC   GL218640  12.871  14.806  19.620 -0.0465 -0.2395 -0.1569
 1554POPC   C1A18641  12.510  14.572  19.449  0.1279 -0.0823 -0.1301
 1554POPC   D2A18642  12.538  14.634  18.991  0.2451 -0.0731  0.0849
 1554POPC   C3A18643  12.834  14.875  18.830  0.1420  0.1503  0.0729
 1554POPC   C4A18644  13.153  14.735  18.482 -0.0074  0.1878  0.3505
 1554POPC   C1B18645  12.622  15.119  19.399  0.1657 -0.0867 -0.2597
 1554POPC   C2B18646  12.481  15.196  18.931  0.0378 -0.3982 -0.1593
 1554POPC   C3B18647  12.523  15.262  18.477 -0.1107 -0.1459 -0.1665
 1554POPC   C4B18648  12.585  15.201  18.065 -0.2584  0.2133 -0.1151
 1555POPC   NC318649  12.950  11.367  20.418  0.1020  0.3307 -0.2649
 1555POPC   PO418650  12.704  11.103  20.326  0.0342  0.3067  0.0077
 1555POPC   GL118651  12.864  11.302  20.007 -0.0638  0.6254 -0.1792
 1555POPC   GL218652  13.174  11.158  20.056  0.1308  0.1245 -0.2125
 1555POPC   C1A18653  12.879  11.493  19.570  0.0599  0.0140 -0.0944
 1555POPC   D2A18654  12.682  11.585  19.130 -0.0648  0.3343  0.1998
 1555POPC   C3A18655  12.338  11.324  18.952 -0.1504  0.0249  0.2079
 1555POPC   C4A18656  12.423  10.879  18.796  0.0121 -0.3954 -0.2586
 1555POPC   C1B18657  13.244  11.006  19.654  0.2215 -0.1769 -0.1377
 1555POPC   C2B18658  13.045  10.739  19.340 -0.1542 -0.0988  0.0954
 1555POPC   C3B18659  12.698  10.520  19.086 -0.0167  0.3535  0.1588
 1555POPC   C4B18660  12.519  10.223  18.809  0.0145  0.0161  0.1668
 1556POPC   NC318661  12.544   0.908  19.380  0.0695 -0.1554 -0.1504
 1556POPC   PO418662  12.767   1.202  19.556 -0.0518  0.0850 -0.0126
 1556POPC   GL118663  12.784   1.374  19.081  0.2680  0.4011  0.3311
 1556POPC   GL218664  12.547   1.241  18.938 -0.1089  0.1700 -0.0036
 1556POPC   C1A18665  12.729   1.757  18.914 -0.2995 -0.0083 -0.1068
 1556POPC   D2A18666  12.838   2.203  18.935 -0.0931 -0.1525  0.1779
 1556POPC   C3A18667  13.212   2.251  18.618 -0.1439  0.3162  0.3110
 1556POPC   C4A18668  13.644   2.025  18.560 -0.3536 -0.1332 -0.0872
 1556POPC   C1B18669  12.819   1.326  18.597  0.3021  0.0033  0.2724
 1556POPC   C2B18670  12.804   1.375  18.127  0.0682 -0.0992 -0.2407
 1556POPC   C3B18671  13.085   1.535  17.782  0.0026 -0.1327 -0.1013
 1556POPC   C4B18672  13.370   1.656  17.483 -0.0409  0.2258 -0.0987
 1557POPC   NC318673  11.517   5.414  17.885 -0.0209  0.2820  0.1593
 1557POPC   PO418674  11.444   5.591  17.539 -0.0095 -0.2081  0.0548
 1557POPC   GL118675  11.795   5.524  17.321 -0.4171 -0.0432  0.1586
 1557POPC   GL218676  11.744   5.719  17.175  0.2459 -0.4547 -0.0082
 1557POPC   C1A18677  12.257   5.610  17.143  0.1352  0.0583  0.0617
 1557POPC   D2A18678  12.596   5.794  16.986  0.0468  0.3928 -0.0326
 1557POPC   C3A18679  12.817   5.683  16.637 -0.0963  0.2434 -0.0696
 1557POPC   C4A18680  12.865   5.401  16.260  0.2245 -0.0146  0.2108
 1557POPC   C1B18681  11.975   5.998  16.892 -0.0192 -0.5470  0.1775
 1557POPC   C2B18682  12.343   6.131  16.672 -0.2603  0.0829 -0.1654
 1557POPC   C3B18683  12.696   6.285  16.430  0.2160 -0.1388  0.2095
 1557POPC   C4B18684  12.985   6.384  16.022  0.2016 -0.1356  0.0501
 1558POPC   NC318685  11.283   0.515  19.489  0.1767 -0.2132 -0.0277
 1558POPC   PO418686  11.581   0.692  19.341 -0.3010  0.1766  0.0833
 1558POPC   GL118687  11.603   0.336  19.038 -0.2529 -0.0641 -0.1218
 1558POPC   GL218688  11.379   0.381  18.929  0.1302 -0.2677 -0.0788
 1558POPC   C1A18689  11.810   0.333  18.652 -0.0534 -0.1367  0.3829
 1558POPC   D2A18690  12.059   0.103  18.314  0.3607 -0.4062  0.1261
 1558POPC   C3A18691  12.000   0.355  17.857 -0.0024  0.0220  0.0154
 1558POPC   C4A18692  12.273   0.668  17.643  0.2317  0.1757 -0.0303
 1558POPC   C1B18693  11.288  -0.030  18.665 -0.0827  0.0423  0.2246
 1558POPC   C2B18694  11.182  -0.117  18.226  0.3084  0.1700  0.0287
 1558POPC   C3B18695  11.088  -0.474  17.921  0.2650 -0.1811  0.3429
 1558POPC   C4B18696  11.010  -0.737  17.607 -0.1545  0.1344  0.1216
 1559POPC   NC318697   1.215  14.072  20.890  0.0920  0.2653 -0.0277
 1559POPC   PO418698   0.854  14.075  20.744 -0.0467 -0.0800 -0.1017
 1559POPC   GL118699   0.734  14.155  20.447  0.1117 -0.1902  0.2941
 1559POPC   GL218700   0.919  14.243  20.172 -0.1072 -0.0306 -0.2184
 1559POPC   C1A18701   0.608  13.802  20.206 -0.3461  0.2715 -0.1527
 1559POPC   D2A18702   0.672  13.738  19.703 -0.1518  0.0021 -0.2097
 1559POPC   C3A18703   0.826  14.059  19.379 -0.2232  0.0477 -0.1860
 1559POPC   C4A18704   0.820  14.486  19.197 -0.0601  0.1674 -0.0378
 1559POPC   C1B18705   1.064  14.015  19.846  0.1317 -0.2687  0.0630
 1559POPC   C2B18706   1.208  13.804  19.457 -0.0284 -0.0771  0.2182
 1559POPC   C3B18707   1.035  13.637  19.018 -0.1623  0.1222 -0.1449
 1559POPC   C4B18708   0.871  13.581  18.590 -0.1247  0.0047 -0.1482
 1560POPC   NC318709   8.733  10.592  19.674  0.1107 -0.3136 -0.1043
 1560POPC   PO418710   8.913  10.884  19.822  0.0235 -0.0199  0.0571
 1560POPC   GL118711   8.702  11.037  19.500 -0.1727 -0.0240 -0.1688
 1560POPC   GL218712   8.920  11.252  19.424  0.1195 -0.1506  0.2915
 1560POPC   C1A18713   8.283  11.163  19.318 -0.0763  0.0794  0.3650
 1560POPC   D2A18714   8.110  11.537  19.108 -0.2244  0.0197  0.0540
 1560POPC   C3A18715   8.150  11.550  18.612  0.0665 -0.5271  0.0458
 1560POPC   C4A18716   8.179  11.319  18.217 -0.0924  0.4193  0.0851
 1560POPC   C1B18717   8.686  11.222  19.040 -0.1276  0.0366  0.0197
 1560POPC   C2B18718   8.475  11.134  18.649  0.0052  0.0409 -0.1412
 1560POPC   C3B18719   8.053  10.986  18.555  0.1087  0.0090  0.2126
 1560POPC   C4B18720   7.632  10.813  18.371 -0.1986  0.4405  0.0737
 1561POPC   NC318721   7.013   2.656  18.818 -0.4251 -0.0474  0.0191
 1561POPC   PO418722   7.332   2.636  18.569  0.0370 -0.1839 -0.0432
 1561POPC   GL118723   7.197   2.328  18.334 -0.0087 -0.0560 -0.1695
 1561POPC   GL218724   6.897   2.190  18.295 -0.2189  0.0955 -0.4636
 1561POPC   C1A18725   7.379   1.968  18.121  0.0420  0.1920  0.1478
 1561POPC   D2A18726   7.763   1.730  18.102  0.0353 -0.0801  0.0204
 1561POPC   C3A18727   7.805   1.622  17.607  0.2883 -0.0226 -0.0441
 1561POPC   C4A18728   7.801   1.792  17.138 -0.1570 -0.0725 -0.3381
 1561POPC   C1B18729   6.698   1.751  18.186 -0.0154  0.0046 -0.0825
 1561POPC   C2B18730   6.591   1.463  17.829  0.2815  0.1423 -0.0137
 1561POPC   C3B18731   6.355   1.094  17.599 -0.2766 -0.1181 -0.0920
 1561POPC   C4B18732   6.044   0.993  17.269 -0.1728  0.0791 -0.4448
 1562POPC   NC318733   5.380   7.092  18.990  0.2463 -0.0338 -0.0660
 1562POPC   PO418734   5.573   7.465  19.116 -0.0831  0.0097 -0.0646
 1562POPC   GL118735   5.267   7.822  19.000  0.2912 -0.0655 -0.1107
 1562POPC   GL218736   5.499   7.923  18.814  0.2771  0.3519 -0.1942
 1562POPC   C1A18737   4.948   8.031  18.664 -0.1073 -0.3633 -0.2957
 1562POPC   D2A18738   5.100   8.295  18.272  0.1302 -0.0203 -0.0898
 1562POPC   C3A18739   4.900   8.233  17.890 -0.1911  0.0616 -0.0864
 1562POPC   C4A18740   4.750   8.503  17.532  0.0735  0.0973  0.1097
 1562POPC   C1B18741   5.545   8.027  18.342  0.0147 -0.0263 -0.0860
 1562POPC   C2B18742   5.405   8.139  17.934  0.0143  0.0469 -0.0913
 1562POPC   C3B18743   5.484   7.994  17.525  0.1651 -0.0355 -0.1589
 1562POPC   C4B18744   5.663   8.206  17.110 -0.0754 -0.0895  0.1049
 1563POPC   NC318745   7.178   9.852  20.102 -0.2603 -0.0470 -0.4321
 1563POPC   PO418746   6.958   9.773  19.816  0.0774  0.1992 -0.0386
 1563POPC   GL118747   7.068   9.937  19.534 -0.7328 -0.1909  0.0497
 1563POPC   GL218748   7.250  10.171  19.595 -0.1475  0.0443  0.0524
 1563POPC   C1A18749   6.873   9.752  19.126 -0.1367  0.3519  0.1530
 1563POPC   D2A18750   6.454   9.655  18.893  0.1078  0.2241  0.0500
 1563POPC   C3A18751   6.333   9.881  18.503 -0.0403 -0.1076  0.0094
 1563POPC   C4A18752   6.544  10.354  18.438 -0.1807  0.2282 -0.1556
 1563POPC   C1B18753   7.480   9.965  19.206 -0.3825  0.0936  0.1562
 1563POPC   C2B18754   7.610  10.067  18.754  0.2649 -0.0977 -0.0702
 1563POPC   C3B18755   7.698  10.301  18.398 -0.1005  0.1584 -0.0978
 1563POPC   C4B18756   7.606  10.436  18.005  0.0626 -0.1723  0.0702
 1564POPC   NC318757  12.459   3.138  18.975 -0.0044 -0.1599 -0.0223
 1564POPC   PO418758  12.582   3.248  18.611 -0.0008  0.2073  0.0826
 1564POPC   GL118759  12.754   2.896  18.600  0.0014  0.3943 -0.1620
 1564POPC   GL218760  12.942   2.771  18.792 -0.1421 -0.2075 -0.2516
 1564POPC   C1A18761  12.724   2.420  18.464  0.0742 -0.2965 -0.0185
 1564POPC   D2A18762  12.454   2.233  18.110 -0.1116  0.0469 -0.0888
 1564POPC   C3A18763  12.643   1.834  17.965 -0.4522  0.1517 -0.3922
 1564POPC   C4A18764  12.591   1.535  17.617  0.1112 -0.1776 -0.0075
 1564POPC   C1B18765  13.094   2.662  18.318  0.0803 -0.0491 -0.0675
 1564POPC   C2B18766  13.158   2.852  17.893 -0.1902 -0.2613 -0.2367
 1564POPC   C3B18767  13.311   3.170  17.608 -0.2838 -0.1214 -0.2467
 1564POPC   C4B18768  13.097   3.540  17.408 -0.0462  0.0397  0.2723
 1565POPC   NC318769  11.609   1.142  19.117 -0.0360  0.1021  0.4174
 1565POPC   PO418770  11.305   1.397  19.172 -0.0152  0.0562  0.3273
 1565POPC   GL118771  11.018   1.276  18.871 -0.0206 -0.0089  0.2335
 1565POPC   GL218772  10.897   1.472  18.657 -0.0228 -0.2794  0.0544
 1565POPC   C1A18773  10.843   0.889  18.674  0.1249  0.3009 -0.1306
 1565POPC   D2A18774  10.526   0.783  18.321  0.1959 -0.0323  0.3129
 1565POPC   C3A18775  10.495   0.583  17.952 -0.1987 -0.3118  0.1730
 1565POPC   C4A18776  10.485   0.151  17.721  0.2870  0.0359 -0.1798
 1565POPC   C1B18777  11.105   1.207  18.356 -0.1277  0.3224 -0.0556
 1565POPC   C2B18778  11.016   0.790  18.145  0.1806 -0.0107  0.0849
 1565POPC   C3B18779  11.214   0.392  17.962  0.0553 -0.0213 -0.0715
 1565POPC   C4B18780  11.584   0.194  18.033  0.2949 -0.0095  0.0381
 1566POPC   NC318781   8.047   5.263  16.157 -0.1908  0.0280 -0.0268
 1566POPC   PO418782   7.698   5.276  16.284 -0.0170 -0.2810 -0.0002
 1566POPC   GL118783   7.440   4.959  16.001  0.1500 -0.1072 -0.2414
 1566POPC   GL218784   7.697   4.754  15.934  0.1879 -0.4092 -0.1322
 1566POPC   C1A18785   7.115   4.934  15.648  0.1388  0.1819  0.1658
 1566POPC   D2A18786   6.675   5.029  15.544 -0.1455 -0.3329  0.0274
 1566POPC   C3A18787   6.653   4.882  15.144  0.2038 -0.0112 -0.0338
 1566POPC   C4A18788   6.471   4.545  14.886 -0.1818  0.1694 -0.0816
 1566POPC   C1B18789   7.302   4.424  15.867  0.3288 -0.1824  0.0351
 1566POPC   C2B18790   6.816   4.318  15.735 -0.3028 -0.2383 -0.0868
 1566POPC   C3B18791   6.480   4.552  15.481 -0.2486 -0.0899  0.2380
 1566POPC   C4B18792   6.197   4.939  15.270 -0.0578  0.1187  0.1491
 1567POPC   NC318793  11.137   5.965  11.371 -0.0345 -0.1067  0.1737
 1567POPC   PO418794  11.072   6.335  11.364 -0.0957 -0.0473  0.2309
 1567POPC   GL118795  11.216   6.608  11.230 -0.0366 -0.2996 -0.4315
 1567POPC   GL218796  11.301   6.803  11.441 -0.1388  0.2213 -0.0754
 1567POPC   C1A18797  11.500   6.789  10.905  0.2296  0.1431  0.0247
 1567POPC   D2A18798  11.922   6.803  10.767 -0.3002  0.0151 -0.1641
 1567POPC   C3A18799  12.218   7.162  10.961 -0.0066  0.1214  0.1725
 1567POPC   C4A18800  12.659   7.198  11.034 -0.1636 -0.0076 -0.0575
 1567POPC   C1B18801  11.223   7.211  11.673  0.1914 -0.2029 -0.0295
 1567POPC   C2B18802  11.196   7.604  11.523  0.2423 -0.1212  0.0975
 1567POPC   C3B18803  11.342   7.815  11.179 -0.1515 -0.4634 -0.3144
 1567POPC   C4B18804  11.534   7.824  10.742 -0.3374  0.0252 -0.3711
 1568POPC   NC318805   7.060  14.000  20.544  0.1075 -0.0843  0.2004
 1568POPC   PO418806   6.682  14.123  20.595  0.0356 -0.2427 -0.0882
 1568POPC   GL118807   6.834  14.271  20.202  0.1252  0.1518  0.0643
 1568POPC   GL218808   6.973  14.436  20.174  0.0164 -0.1512  0.3539
 1568POPC   C1A18809   6.570  14.077  19.881 -0.0173  0.1404 -0.1794
 1568POPC   D2A18810   6.159  14.004  19.682 -0.0607 -0.0318 -0.2850
 1568POPC   C3A18811   6.265  13.933  19.227 -0.1625 -0.1633 -0.3386
 1568POPC   C4A18812   6.145  13.764  18.821 -0.0443 -0.1959  0.0451
 1568POPC   C1B18813   6.971  14.283  19.711 -0.1751  0.1832  0.3128
 1568POPC   C2B18814   6.736  14.039  19.339 -0.0630 -0.0218 -0.1223
 1568POPC   C3B18815   6.676  13.814  18.937  0.0874  0.1168 -0.1591
 1568POPC   C4B18816   6.462  13.398  18.961 -0.3470  0.1096  0.1126
 1569POPC   NC318817  10.698   5.851  14.237  0.1221  0.2354 -0.0967
 1569POPC   PO418818  10.655   5.973  13.874 -0.2387 -0.2226  0.2553
 1569POPC   GL118819  11.101   5.932  13.752  0.0130  0.1190  0.1147
 1569POPC   GL218820  11.152   5.827  14.010 -0.1443  0.1302 -0.0767
 1569POPC   C1A18821  11.435   6.262  13.658  0.0607 -0.1807  0.0136
 1569POPC   D2A18822  11.555   6.665  13.408  0.3029 -0.1418  0.1525
 1569POPC   C3A18823  11.563   7.021  13.655 -0.0098 -0.0122  0.0193
 1569POPC   C4A18824  11.349   7.155  13.987  0.1293 -0.2782 -0.2916
 1569POPC   C1B18825  11.549   6.023  14.091 -0.3483 -0.0897  0.4354
 1569POPC   C2B18826  11.970   5.804  14.062  0.0664 -0.0507 -0.0963
 1569POPC   C3B18827  12.036   5.346  14.058  0.3335  0.4752  0.0632
 1569POPC   C4B18828  11.762   5.031  13.929  0.1486  0.1843 -0.0139
 1570POPC   NC318829   4.756  17.016  19.968 -0.0064 -0.3184 -0.0489
 1570POPC   PO418830   4.909  16.635  19.974 -0.2007  0.0584 -0.0198
 1570POPC   GL118831   4.685  16.619  19.702 -0.0404  0.0511 -0.0272
 1570POPC   GL218832   4.795  16.714  19.405 -0.2515 -0.2238  0.0971
 1570POPC   C1A18833   4.292  16.402  19.570 -0.1674 -0.2721  0.0161
 1570POPC   D2A18834   4.033  16.177  19.256 -0.0336 -0.0491  0.0039
 1570POPC   C3A18835   4.204  15.978  18.918 -0.2856  0.0871 -0.0615
 1570POPC   C4A18836   4.371  15.639  18.643  0.1140 -0.3683  0.1542
 1570POPC   C1B18837   4.864  16.743  18.941 -0.1718 -0.0716  0.0876
 1570POPC   C2B18838   4.850  16.758  18.471 -0.2083 -0.1007  0.1319
 1570POPC   C3B18839   4.795  16.982  18.042 -0.0183  0.0034  0.0964
 1570POPC   C4B18840   4.789  17.290  17.713 -0.0360  0.2967 -0.0793
 1571POPC   NC318841  12.609   7.819  19.136  0.0366  0.2080  0.0976
 1571POPC   PO418842  12.530   7.981  19.470  0.2167  0.0942 -0.1189
 1571POPC   GL118843  12.739   8.316  19.170  0.1817  0.1241  0.0620
 1571POPC   GL218844  13.054   8.323  19.165  0.3069  0.0881 -0.1896
 1571POPC   C1A18845  12.749   8.503  18.700 -0.0271  0.2759  0.1005
 1571POPC   D2A18846  12.815   8.815  18.272  0.4331 -0.1903 -0.0625
 1571POPC   C3A18847  12.832   8.433  17.904 -0.3084 -0.1260 -0.2347
 1571POPC   C4A18848  12.483   8.353  17.616 -0.1108 -0.0374 -0.0609
 1571POPC   C1B18849  13.385   8.472  18.961  0.0458 -0.2807  0.1377
 1571POPC   C2B18850  13.332   8.537  18.541 -0.2221 -0.0090 -0.1648
 1571POPC   C3B18851  13.499   8.727  18.143 -0.0026 -0.1281  0.0057
 1571POPC   C4B18852  13.598   9.013  17.782 -0.1694 -0.1720  0.0469
 1572POPC   NC318853   2.816   3.155  19.463 -0.1468 -0.1520 -0.1281
 1572POPC   PO418854   3.172   3.237  19.294  0.3835 -0.4204 -0.1020
 1572POPC   GL118855   3.177   3.511  18.972  0.1233  0.0597 -0.5697
 1572POPC   GL218856   3.381   3.328  18.826 -0.2965  0.0618  0.3907
 1572POPC   C1A18857   3.152   3.647  18.520 -0.3957  0.2169 -0.0058
 1572POPC   D2A18858   3.104   4.029  18.245 -0.1557 -0.1523 -0.1231
 1572POPC   C3A18859   3.004   3.939  17.821 -0.2213  0.2837 -0.0287
 1572POPC   C4A18860   3.064   3.772  17.376 -0.1755 -0.1228 -0.2954
 1572POPC   C1B18861   3.176   3.156  18.421 -0.2313  0.1124 -0.1233
 1572POPC   C2B18862   2.911   3.049  18.031 -0.0884  0.1969 -0.1076
 1572POPC   C3B18863   2.719   2.941  17.658  0.1000  0.0545  0.0088
 1572POPC   C4B18864   2.477   2.529  17.614  0.0895 -0.0780  0.0426
 1573POPC   NC318865   1.622  12.169  20.191  0.3457  0.2988  0.0684
 1573POPC   PO418866   1.266  12.162  20.382  0.1398  0.3279 -0.0679
 1573POPC   GL118867   1.191  12.195  20.018 -0.0631 -0.2742  0.1622
 1573POPC   GL218868   1.005  11.976  19.983 -0.2156  0.0349 -0.4598
 1573POPC   C1A18869   1.520  12.433  19.748 -0.2038  0.0439  0.0025
 1573POPC   D2A18870   1.686  12.438  19.328 -0.0264 -0.0019 -0.0721
 1573POPC   C3A18871   1.479  12.205  18.982  0.0019 -0.2799  0.0737
 1573POPC   C4A18872   1.606  11.826  18.745  0.2794  0.0109  0.3391
 1573POPC   C1B18873   1.030  12.090  19.564  0.0230  0.1098  0.0138
 1573POPC   C2B18874   0.702  12.267  19.219 -0.0653 -0.0902  0.0752
 1573POPC   C3B18875   0.322  12.468  18.977 -0.2352 -0.3176  0.0426
 1573POPC   C4B18876  -0.055  12.780  18.985 -0.0199 -0.2214  0.1725
 1574POPC   NC318877   8.850  11.775  20.006 -0.5004 -0.1120  0.0140
 1574POPC   PO418878   8.645  11.377  19.940 -0.3690 -0.2465  0.2547
 1574POPC   GL118879   8.566  11.635  19.653  0.1395 -0.2861 -0.2681
 1574POPC   GL218880   8.320  11.797  19.836  0.1478  0.2749  0.1408
 1574POPC   C1A18881   8.615  11.632  19.259  0.0778  0.2163  0.2441
 1574POPC   D2A18882   8.594  11.675  18.775 -0.2835 -0.0139  0.2199
 1574POPC   C3A18883   8.602  12.109  18.640 -0.1394 -0.0832  0.0573
 1574POPC   C4A18884   8.663  12.278  18.226 -0.1842 -0.2479  0.0144
 1574POPC   C1B18885   8.209  11.860  19.412  0.0730  0.0525  0.2834
 1574POPC   C2B18886   7.946  12.012  19.016  0.0067  0.1163 -0.0752
 1574POPC   C3B18887   7.737  12.438  18.907 -0.0553  0.0659  0.1061
 1574POPC   C4B18888   7.416  12.682  18.642  0.0309  0.0342  0.1507
 1575POPC   NC318889  13.890  14.336  20.211 -0.3555 -0.0312 -0.0900
 1575POPC   PO418890  13.527  14.430  20.418 -0.0351  0.3950  0.1647
 1575POPC   GL118891  13.311  14.192  20.245  0.2110  0.4061  0.0151
 1575POPC   GL218892  13.487  13.929  20.202 -0.2444 -0.2349 -0.1483
 1575POPC   C1A18893  13.297  14.305  19.787 -0.1394  0.1647 -0.2377
 1575POPC   D2A18894  13.369  14.025  19.399 -0.0934 -0.1428  0.2523
 1575POPC   C3A18895  12.983  13.940  19.242  0.1596  0.3271  0.1143
 1575POPC   C4A18896  12.539  14.114  19.229 -0.2530  0.2284  0.3039
 1575POPC   C1B18897  13.627  13.787  19.805 -0.1647 -0.1526  0.3599
 1575POPC   C2B18898  13.601  13.614  19.355 -0.1464  0.1539 -0.1835
 1575POPC   C3B18899  13.386  13.348  19.038  0.0457  0.1128  0.1380
 1575POPC   C4B18900  13.117  12.990  18.814  0.2121  0.0420 -0.0736
 1576POPC   NC318901   6.209  14.041  20.322 -0.1283  0.1430 -0.1500
 1576POPC   PO418902   5.946  14.336  20.476  0.0968  0.1812  0.2471
 1576POPC   GL118903   5.782  14.273  20.152 -0.0073 -0.1439  0.2026
 1576POPC   GL218904   6.057  14.370  19.959 -0.0384 -0.1273 -0.1153
 1576POPC   C1A18905   5.677  14.057  19.729 -0.0267  0.0207 -0.1279
 1576POPC   D2A18906   5.720  13.866  19.296 -0.2281  0.1001 -0.0417
 1576POPC   C3A18907   5.906  14.203  19.056 -0.2305 -0.1095 -0.1621
 1576POPC   C4A18908   6.131  14.261  18.666  0.0309  0.0174  0.0248
 1576POPC   C1B18909   6.014  14.445  19.500 -0.0619  0.1426  0.1151
 1576POPC   C2B18910   5.801  14.731  19.257  0.4339  0.0070 -0.2571
 1576POPC   C3B18911   5.603  15.077  19.056  0.0451  0.0418 -0.0365
 1576POPC   C4B18912   5.175  15.062  18.900 -0.0971 -0.3613  0.2289
 1577POPC   NC318913  10.228  13.712  20.485 -0.0150  0.3588 -0.3160
 1577POPC   PO418914  10.252  13.310  20.346 -0.1981  0.1147 -0.1492
 1577POPC   GL118915  10.330  13.462  20.049 -0.1567 -0.1782  0.0404
 1577POPC   GL218916  10.427  13.681  19.976  0.2747  0.1935  0.2674
 1577POPC   C1A18917  10.080  13.376  19.656  0.0314  0.4924 -0.0471
 1577POPC   D2A18918   9.677  13.088  19.491 -0.2246  0.1162 -0.0853
 1577POPC   C3A18919   9.688  12.984  19.030  0.0463  0.0490 -0.0361
 1577POPC   C4A18920   9.885  13.010  18.621  0.3154  0.2072  0.0059
 1577POPC   C1B18921  10.455  13.676  19.462 -0.0724  0.1859 -0.2972
 1577POPC   C2B18922  10.267  13.982  19.079 -0.1627  0.1623  0.0076
 1577POPC   C3B18923  10.248  14.276  18.695  0.0190  0.5039 -0.3875
 1577POPC   C4B18924  10.131  14.676  18.519 -0.1378 -0.1052 -0.0491
 1578POPC   NC318925   2.127   2.563  19.428  0.1055 -0.3868  0.0177
 1578POPC   PO418926   1.839   2.626  19.675  0.1191  0.0655 -0.1758
 1578POPC   GL118927   1.695   2.605  19.231 -0.0705  0.0801  0.0863
 1578POPC   GL218928   1.617   2.354  19.315 -0.0495  0.0597  0.0201
 1578POPC   C1A18929   1.708   2.433  18.821 -0.1869  0.2868 -0.1550
 1578POPC   D2A18930   1.671   2.310  18.390  0.0555 -0.1372 -0.2572
 1578POPC   C3A18931   1.320   2.522  18.162 -0.1570  0.1881 -0.0722
 1578POPC   C4A18932   1.330   2.987  18.114  0.1994  0.2331  0.1673
 1578POPC   C1B18933   1.219   2.525  19.065 -0.0963 -0.1627  0.1358
 1578POPC   C2B18934   0.857   2.746  18.804 -0.3432  0.1046  0.0276
 1578POPC   C3B18935   0.970   3.104  18.477  0.4147 -0.2240 -0.1348
 1578POPC   C4B18936   1.304   3.438  18.478 -0.1333 -0.0145  0.0311
 1579POPC   NC318937  15.142  15.144  20.433  0.2484  0.1251  0.1158
 1579POPC   PO418938  14.847  15.384  20.407  0.0012 -0.1155  0.0088
 1579POPC   GL118939  14.993  15.203  19.994  0.0244  0.0343 -0.1167
 1579POPC   GL218940  14.780  14.925  20.018 -0.1482  0.0651 -0.0622
 1579POPC   C1A18941  15.302  14.963  19.737  0.1117  0.2445  0.2890
 1579POPC   D2A18942  15.613  14.985  19.413 -0.2609 -0.1954 -0.0236
 1579POPC   C3A18943  15.303  14.880  19.079  0.1167  0.0018  0.1210
 1579POPC   C4A18944  14.816  14.905  19.134 -0.1829  0.0443  0.3269
 1579POPC   C1B18945  14.696  15.194  19.632 -0.0218  0.1108  0.0758
 1579POPC   C2B18946  14.749  15.391  19.173  0.0624  0.1295  0.2658
 1579POPC   C3B18947  14.825  15.280  18.753 -0.1276 -0.2204  0.1543
 1579POPC   C4B18948  15.047  15.235  18.332  0.3276  0.1304 -0.3166
 1580POPC   NC318949   4.504   0.282  20.044 -0.3938  0.2235  0.0541
 1580POPC   PO418950   4.307   0.590  20.023 -0.0273 -0.1753 -0.2393
 1580POPC   GL118951   4.473   0.525  19.620 -0.0027  0.1272  0.0024
 1580POPC   GL218952   4.815   0.376  19.694  0.1790  0.2641  0.0005
 1580POPC   C1A18953   4.259   0.483  19.163 -0.1034  0.2029 -0.1240
 1580POPC   D2A18954   4.086   0.681  18.751 -0.1321 -0.2070 -0.4285
 1580POPC   C3A18955   3.865   0.585  18.384  0.0894  0.0114  0.0590
 1580POPC   C4A18956   3.817   0.660  17.929 -0.3661 -0.2082  0.0233
 1580POPC   C1B18957   4.658   0.168  19.359  0.0862 -0.0278  0.1520
 1580POPC   C2B18958   4.407   0.002  18.995  0.2216 -0.0215 -0.0864
 1580POPC   C3B18959   4.466  -0.221  18.607  0.1327  0.0604  0.0104
 1580POPC   C4B18960   4.634  -0.627  18.459 -0.2855 -0.3892 -0.0135
 1581POPC   NC318961  13.977  12.195  20.657 -0.1395  0.3051 -0.0364
 1581POPC   PO418962  13.566  12.226  20.581 -0.1909  0.3617  0.1397
 1581POPC   GL118963  13.239  12.252  20.303 -0.1848  0.1448  0.1971
 1581POPC   GL218964  13.296  12.143  20.087 -0.2138 -0.3538  0.1012
 1581POPC   C1A18965  13.153  12.624  19.977  0.3282  0.1237  0.0849
 1581POPC   D2A18966  13.010  13.034  19.723 -0.1111 -0.1108  0.3038
 1581POPC   C3A18967  12.656  13.369  19.822 -0.0858  0.0111  0.0864
 1581POPC   C4A18968  12.265  13.577  20.026 -0.0986 -0.3287  0.3729
 1581POPC   C1B18969  13.064  12.127  19.687 -0.1205 -0.3024  0.1175
 1581POPC   C2B18970  13.097  11.974  19.241 -0.1761  0.0840 -0.0740
 1581POPC   C3B18971  13.335  12.038  18.805 -0.0202 -0.1470 -0.0360
 1581POPC   C4B18972  13.742  11.877  18.632 -0.0689 -0.1095 -0.1489
 1582POPC   NC318973  11.982   1.433  19.634 -0.3352 -0.0604 -0.3478
 1582POPC   PO418974  12.057   1.173  19.353  0.2659 -0.4701 -0.0887
 1582POPC   GL118975  12.130   1.280  19.076  0.0933 -0.3861 -0.0528
 1582POPC   GL218976  12.084   1.173  18.841  0.3756  0.1394  0.0081
 1582POPC   C1A18977  12.256   1.627  18.794 -0.1132 -0.2472 -0.2814
 1582POPC   D2A18978  12.524   1.759  18.443 -0.1375 -0.0826  0.3210
 1582POPC   C3A18979  12.945   1.931  18.315  0.0611 -0.1326  0.2974
 1582POPC   C4A18980  13.115   2.045  17.883  0.1314 -0.0616 -0.0834
 1582POPC   C1B18981  12.381   1.063  18.488  0.2022 -0.0989 -0.3846
 1582POPC   C2B18982  12.684   0.863  18.361 -0.2661  0.0018  0.3545
 1582POPC   C3B18983  13.017   0.527  18.259  0.1901 -0.0805  0.3712
 1582POPC   C4B18984  13.322   0.139  18.359  0.1891  0.0942 -0.2288
 1583POPC   NC318985   5.507   0.332  19.805  0.2998  0.3806 -0.1518
 1583POPC   PO418986   5.760   0.066  19.910 -0.1511  0.0288  0.0802
 1583POPC   GL118987   5.695  -0.256  19.660  0.3348 -0.1531 -0.0169
 1583POPC   GL218988   5.605  -0.097  19.445  0.0597  0.0758  0.4652
 1583POPC   C1A18989   5.860  -0.516  19.328 -0.0559 -0.1366 -0.0739
 1583POPC   D2A18990   5.865  -0.576  18.844  0.0456  0.2714  0.1137
 1583POPC   C3A18991   5.862  -1.035  18.847 -0.0879  0.0230  0.1697
 1583POPC   C4A18992   6.118  -1.404  18.716 -0.0345  0.0207 -0.4019
 1583POPC   C1B18993   5.503  -0.243  18.986 -0.5114  0.0607  0.1927
 1583POPC   C2B18994   5.366  -0.372  18.541  0.1367  0.0437  0.1518
 1583POPC   C3B18995   5.130  -0.696  18.296 -0.4739 -0.2488  0.0073
 1583POPC   C4B18996   4.816  -0.830  17.985 -0.1268 -0.0665 -0.0705
 1584POPC   NC318997  13.527   3.929  18.909  0.3463 -0.0485  0.0346
 1584POPC   PO418998  13.839   4.140  18.859  0.0548  0.0905 -0.0754
 1584POPC   GL118999  14.155   4.253  18.641  0.0328 -0.3029 -0.3428
 1584POPC   GL219000  14.013   4.174  18.336 -0.1821 -0.0547 -0.0748
 1584POPC   C1A19001  14.585   4.321  18.534  0.0544  0.2717  0.1866
 1584POPC   D2A19002  14.799   3.958  18.344 -0.0294 -0.1994 -0.0685
 1584POPC   C3A19003  15.006   3.972  17.959 -0.4378 -0.1576  0.0331
 1584POPC   C4A19004  14.840   3.911  17.583  0.0572  0.0409  0.0547
 1584POPC   C1B19005  14.307   4.366  18.037 -0.1530 -0.0706 -0.0093
 1584POPC   C2B19006  14.519   4.508  17.681  0.3479 -0.1854 -0.1786
 1584POPC   C3B19007  14.642   4.883  17.458 -0.3464 -0.0376  0.3011
 1584POPC   C4B19008  14.407   5.315  17.407  0.0228 -0.1468  0.0843
 1585POPC   NC319009   5.843   2.627  18.289 -0.1436 -0.1205 -0.4448
 1585POPC   PO419010   5.715   2.880  18.562 -0.4221  0.1196 -0.0572
 1585POPC   GL119011   5.352   2.803  18.596 -0.0685 -0.1731  0.6345
 1585POPC   GL219012   5.313   2.522  18.477 -0.2525  0.2025  0.0219
 1585POPC   C1A19013   5.117   2.911  18.203 -0.2983  0.1739  0.0687
 1585POPC   D2A19014   4.991   3.218  17.864  0.0353 -0.2611 -0.1993
 1585POPC   C3A19015   4.760   3.012  17.474 -0.0208 -0.2263 -0.1278
 1585POPC   C4A19016   4.795   2.958  16.996  0.4702 -0.3505  0.1275
 1585POPC   C1B19017   5.268   2.469  18.028 -0.0228 -0.2731  0.0467
 1585POPC   C2B19018   4.962   2.626  17.733 -0.3397 -0.3047  0.2577
 1585POPC   C3B19019   4.878   2.553  17.314 -0.0500 -0.1997  0.2556
 1585POPC   C4B19020   5.047   2.210  17.081 -0.1319 -0.0502  0.4078
 1586POPC   NC319021   2.998   6.015  19.542 -0.3940  0.0605  0.0062
 1586POPC   PO419022   3.360   6.074  19.522 -0.1546  0.1710  0.0720
 1586POPC   GL119023   3.248   5.796  19.216 -0.0588  0.0402  0.1058
 1586POPC   GL219024   3.464   5.644  19.126 -0.0690 -0.3063  0.1368
 1586POPC   C1A19025   3.122   5.725  18.739  0.0976 -0.0064 -0.0419
 1586POPC   D2A19026   3.178   5.702  18.287  0.0628 -0.2071  0.1652
 1586POPC   C3A19027   3.521   5.818  18.026  0.0279  0.0224 -0.1967
 1586POPC   C4A19028   3.822   5.791  17.683 -0.2217 -0.2129  0.3899
 1586POPC   C1B19029   3.631   5.672  18.723 -0.1537  0.1353 -0.0465
 1586POPC   C2B19030   3.774   5.514  18.385  0.1107  0.1188 -0.1071
 1586POPC   C3B19031   3.999   5.448  17.984 -0.4007  0.0664 -0.4958
 1586POPC   C4B19032   4.419   5.329  17.834  0.0014  0.0476 -0.2182
 1587POPC   NC319033   2.161   0.713  20.997 -0.0976  0.1403  0.1708
 1587POPC   PO419034   2.068   0.817  20.601 -0.1284 -0.2555 -0.0464
 1587POPC   GL119035   2.081   0.689  20.241  0.3238 -0.4093  0.0724
 1587POPC   GL219036   2.344   0.824  20.132  0.0120  0.2302 -0.0242
 1587POPC   C1A19037   1.929   0.756  19.794  0.2593  0.4373  0.0872
 1587POPC   D2A19038   1.763   0.728  19.338 -0.0351  0.4346  0.0494
 1587POPC   C3A19039   1.542   1.112  19.248  0.0379 -0.0203  0.2543
 1587POPC   C4A19040   1.564   1.487  19.014  0.0486 -0.2253  0.0752
 1587POPC   C1B19041   2.441   0.562  19.746  0.3116  0.0525 -0.0295
 1587POPC   C2B19042   2.274   0.552  19.300  0.0406 -0.2032  0.0875
 1587POPC   C3B19043   2.035   0.649  18.919  0.0698 -0.0900 -0.1965
 1587POPC   C4B19044   1.754   0.431  18.621  0.0945 -0.3372 -0.0241
 1588POPC   NC319045   8.591   6.161  11.938  0.1150  0.3806  0.0538
 1588POPC   PO419046   8.852   6.437  11.941 -0.1573  0.1100 -0.0541
 1588POPC   GL119047   8.622   6.618  12.145 -0.0988 -0.1550  0.1876
 1588POPC   GL219048   8.377   6.615  11.937  0.1043  0.1085  0.0902
 1588POPC   C1A19049   8.464   7.098  12.108  0.1758  0.3871 -0.1612
 1588POPC   D2A19050   8.139   7.410  12.222 -0.0730  0.0067 -0.0622
 1588POPC   C3A19051   8.241   7.817  12.435  0.0444 -0.2554  0.0304
 1588POPC   C4A19052   8.556   8.116  12.693 -0.1148  0.0906  0.4007
 1588POPC   C1B19053   7.953   6.659  11.647 -0.1571 -0.0929  0.1184
 1588POPC   C2B19054   7.579   6.783  11.756  0.0115 -0.4373 -0.2404
 1588POPC   C3B19055   7.144   6.803  11.989 -0.4195  0.0448 -0.0071
 1588POPC   C4B19056   6.828   6.677  12.293  0.1251  0.1925  0.1344
 1589POPC   NC319057  14.208   2.890  19.405  0.1828 -0.1264  0.2340
 1589POPC   PO419058  14.315   3.283  19.341  0.1426 -0.0835 -0.0623
 1589POPC   GL119059  14.619   3.189  19.156  0.2642 -0.2692  0.2860
 1589POPC   GL219060  14.497   2.948  19.014 -0.2816 -0.3595  0.2061
 1589POPC   C1A19061  14.928   3.141  18.788 -0.0786  0.0718  0.2690
 1589POPC   D2A19062  15.102   3.257  18.379 -0.2154  0.0234 -0.2250
 1589POPC   C3A19063  14.976   2.896  18.132 -0.0314 -0.0098 -0.0516
 1589POPC   C4A19064  15.056   2.568  17.836 -0.1462 -0.2302  0.1653
 1589POPC   C1B19065  14.523   2.897  18.567  0.2138 -0.0672 -0.1311
 1589POPC   C2B19066  14.502   3.040  18.147  0.1280  0.0227  0.1101
 1589POPC   C3B19067  14.149   2.921  17.781  0.0843  0.0041  0.3212
 1589POPC   C4B19068  14.144   2.748  17.367  0.0418  0.0639  0.2049
 1590POPC   NC319069   2.494   3.875  19.482 -0.1953  0.1318  0.3258
 1590POPC   PO419070   2.586   3.580  19.724 -0.5944  0.0113  0.1260
 1590POPC   GL119071   2.379   3.373  19.394 -0.1234 -0.1511  0.0100
 1590POPC   GL219072   2.063   3.495  19.241 -0.5050 -0.1306  0.3264
 1590POPC   C1A19073   2.227   3.027  19.164 -0.2235 -0.1294 -0.2582
 1590POPC   D2A19074   2.185   2.670  18.922 -0.1008  0.0980 -0.2093
 1590POPC   C3A19075   2.269   2.588  18.468 -0.1714  0.1868  0.1813
 1590POPC   C4A19076   2.529   2.664  18.060  0.2838  0.0074  0.0902
 1590POPC   C1B19077   2.202   3.485  18.778 -0.3964  0.0888 -0.1955
 1590POPC   C2B19078   2.288   3.552  18.323  0.3227 -0.2966  0.0293
 1590POPC   C3B19079   2.288   3.613  17.866 -0.3900 -0.1257  0.1049
 1590POPC   C4B19080   2.317   3.779  17.424  0.1783  0.1794 -0.0526
 1591POPC   NC319081  14.961   7.126  19.486 -0.0798 -0.1683 -0.3358
 1591POPC   PO419082  14.944   6.779  19.662 -0.0231  0.2239 -0.0281
 1591POPC   GL119083  15.168   6.736  19.357  0.0891  0.0632 -0.2335
 1591POPC   GL219084  15.212   6.453  19.232  0.0540  0.1692  0.0175
 1591POPC   C1A19085  15.004   6.864  18.944  0.5115 -0.2005  0.2465
 1591POPC   D2A19086  15.338   7.088  18.667  0.0913 -0.3341  0.0126
 1591POPC   C3A19087  15.304   6.861  18.274 -0.0451 -0.2281 -0.0824
 1591POPC   C4A19088  15.102   6.768  17.920  0.2130  0.1216 -0.0902
 1591POPC   C1B19089  15.434   6.613  18.871  0.0541  0.0560  0.0518
 1591POPC   C2B19090  15.687   6.729  18.505  0.3533 -0.1280  0.0557
 1591POPC   C3B19091  15.837   6.896  18.059  0.0334  0.2517 -0.2226
 1591POPC   C4B19092  16.153   7.250  17.939 -0.2222  0.1146  0.0050
 1592POPC   NC319093   6.757  10.515  20.274 -0.4566  0.0558  0.2187
 1592POPC   PO419094   6.791  10.175  20.079 -0.1507  0.1246 -0.3258
 1592POPC   GL119095   6.870  10.349  19.718 -0.1548 -0.2146  0.1467
 1592POPC   GL219096   6.665  10.486  19.635  0.0975  0.0026  0.2262
 1592POPC   C1A19097   6.810  10.285  19.240 -0.0793 -0.1751 -0.1831
 1592POPC   D2A19098   6.631  10.163  18.877  0.0977  0.0395  0.1332
 1592POPC   C3A19099   6.218  10.342  18.810  0.0099 -0.2011  0.0011
 1592POPC   C4A19100   6.005  10.651  18.920  0.0982 -0.3061 -0.1925
 1592POPC   C1B19101   6.496  10.636  19.225 -0.0148  0.0177  0.1364
 1592POPC   C2B19102   6.622  10.711  18.809  0.2889  0.0885  0.1028
 1592POPC   C3B19103   6.749  10.837  18.367  0.3655 -0.2858 -0.3030
 1592POPC   C4B19104   6.807  10.967  17.916 -0.0290  0.1189  0.1915
 1593POPC   NC319105  13.709   9.313  20.095  0.0652 -0.0554 -0.3042
 1593POPC   PO419106  13.794   8.922  20.109 -0.0447 -0.2570  0.0163
 1593POPC   GL119107  13.977   8.913  19.754  0.0733  0.1521  0.0355
 1593POPC   GL219108  14.131   8.690  19.745 -0.0398  0.1260  0.2174
 1593POPC   C1A19109  13.991   9.052  19.292  0.0049  0.0402 -0.0784
 1593POPC   D2A19110  14.165   8.950  18.889  0.1164 -0.0656  0.2682
 1593POPC   C3A19111  13.929   9.045  18.518  0.0371 -0.2716 -0.0242
 1593POPC   C4A19112  13.945   9.008  18.093 -0.0577  0.1709  0.0265
 1593POPC   C1B19113  14.210   8.605  19.305 -0.3652 -0.2943 -0.1111
 1593POPC   C2B19114  14.372   8.402  18.907  0.0944 -0.1886 -0.0425
 1593POPC   C3B19115  14.677   8.446  18.542 -0.0905 -0.1668  0.2113
 1593POPC   C4B19116  14.955   8.497  18.131 -0.3278  0.1220 -0.0416
 1594POPC   NC319117  15.930  14.716  20.750 -0.2501  0.0864  0.3506
 1594POPC   PO419118  15.622  14.651  20.562  0.0363 -0.3152  0.1566
 1594POPC   GL119119  15.651  14.803  20.200 -0.3183  0.0180 -0.1377
 1594POPC   GL219120  15.549  15.071  20.178 -0.1366 -0.2672  0.1528
 1594POPC   C1A19121  15.808  14.707  19.760 -0.0278 -0.1600 -0.0880
 1594POPC   D2A19122  16.116  14.913  19.455 -0.0628  0.3552 -0.1347
 1594POPC   C3A19123  15.997  14.885  19.032 -0.2084  0.3593  0.1564
 1594POPC   C4A19124  15.945  14.643  18.645 -0.0857 -0.2155  0.2446
 1594POPC   C1B19125  15.529  15.395  19.838 -0.0651  0.1122 -0.0101
 1594POPC   C2B19126  15.591  15.753  19.527 -0.1024  0.0566  0.2614
 1594POPC   C3B19127  15.526  15.836  19.056 -0.4595  0.1558  0.2168
 1594POPC   C4B19128  15.817  15.955  18.697  0.1475  0.2376 -0.0803
 1595POPC   NC319129  10.496   7.187  17.697 -0.2391 -0.1647  0.0991
 1595POPC   PO419130  10.728   7.092  17.424  0.1480 -0.2678  0.3867
 1595POPC   GL119131  10.994   7.221  17.174 -0.1358  0.1316 -0.0953
 1595POPC   GL219132  11.339   7.149  17.180 -0.0766  0.1072 -0.0476
 1595POPC   C1A19133  11.145   7.144  16.704  0.3149 -0.2901 -0.1495
 1595POPC   D2A19134  11.311   7.071  16.272  0.0099 -0.0088  0.0510
 1595POPC   C3A19135  11.436   7.409  15.987 -0.2646 -0.1959  0.0515
 1595POPC   C4A19136  11.525   7.689  15.637 -0.0113  0.0124  0.1573
 1595POPC   C1B19137  11.506   7.412  16.854  0.1534  0.0117 -0.5334
 1595POPC   C2B19138  11.799   7.753  16.692  0.1976  0.2559  0.3581
 1595POPC   C3B19139  12.068   8.156  16.899  0.0502 -0.1227 -0.0385
 1595POPC   C4B19140  12.376   8.464  17.094 -0.3911  0.1617 -0.0961
 1596POPC   NC319141   3.483   5.001  19.294 -0.0404  0.0119 -0.1376
 1596POPC   PO419142   3.890   4.925  19.225  0.0180 -0.3243  0.2363
 1596POPC   GL119143   3.773   4.735  18.906  0.1068  0.1186 -0.1094
 1596POPC   GL219144   3.885   4.885  18.701  0.0657 -0.0673 -0.0035
 1596POPC   C1A19145   3.349   4.841  18.711 -0.2144 -0.1962 -0.0328
 1596POPC   D2A19146   2.952   4.790  18.464 -0.4594  0.0935  0.1487
 1596POPC   C3A19147   2.899   4.528  18.086 -0.0821 -0.1007 -0.0133
 1596POPC   C4A19148   3.007   4.524  17.624  0.1457  0.0279  0.3500
 1596POPC   C1B19149   3.625   5.042  18.364 -0.0733 -0.0055  0.1261
 1596POPC   C2B19150   3.226   5.185  18.192 -0.2729  0.1109 -0.0224
 1596POPC   C3B19151   3.077   5.440  17.867 -0.2616 -0.0456  0.1623
 1596POPC   C4B19152   2.634   5.406  17.562  0.0664 -0.1304  0.1782
 1597POPC   NC319153   6.438   1.320  19.081 -0.0331  0.2043 -0.2433
 1597POPC   PO419154   6.411   1.640  18.893 -0.1132 -0.2223 -0.1272
 1597POPC   GL119155   6.240   1.467  18.607  0.2983 -0.0957 -0.0026
 1597POPC   GL219156   6.047   1.203  18.548 -0.1226 -0.0505 -0.1317
 1597POPC   C1A19157   6.055   1.536  18.211 -0.2204 -0.0694 -0.2115
 1597POPC   D2A19158   6.127   1.657  17.783  0.0133  0.1658  0.3481
 1597POPC   C3A19159   5.969   1.425  17.450 -0.0242 -0.0354  0.1955
 1597POPC   C4A19160   5.653   1.474  17.084 -0.0652 -0.0301  0.0964
 1597POPC   C1B19161   5.957   0.841  18.330  0.0729  0.0865  0.1298
 1597POPC   C2B19162   5.924   0.606  17.965 -0.2440  0.1138  0.1207
 1597POPC   C3B19163   5.616   0.605  17.633 -0.5008  0.1044 -0.1980
 1597POPC   C4B19164   5.296   0.523  17.345  0.0234  0.0456  0.0323
 1598POPC   NC319165  16.355  16.260  20.665  0.0906  0.0783 -0.0563
 1598POPC   PO419166  16.347  16.300  20.273  0.3562  0.1713 -0.5616
 1598POPC   GL119167  16.303  16.220  19.930  0.3390 -0.0558 -0.0863
 1598POPC   GL219168  16.145  16.465  19.775  0.0415 -0.0994  0.1793
 1598POPC   C1A19169  16.285  15.907  19.586  0.0607 -0.1949 -0.3850
 1598POPC   D2A19170  16.493  15.755  19.247 -0.0936 -0.0443 -0.1758
 1598POPC   C3A19171  16.326  15.676  18.825 -0.1404 -0.0547  0.3244
 1598POPC   C4A19172  15.947  15.459  18.694 -0.0847  0.0185 -0.4407
 1598POPC   C1B19173  15.930  16.420  19.400 -0.1039  0.1047  0.1114
 1598POPC   C2B19174  15.970  16.456  18.954  0.1913  0.0347  0.3859
 1598POPC   C3B19175  15.945  16.362  18.471  0.2109 -0.2209  0.0159
 1598POPC   C4B19176  15.642  16.475  18.185  0.0300 -0.3408  0.5694
 1599POPC   NC319177   4.381  15.885  20.514 -0.1078 -0.0040  0.2349
 1599POPC   PO419178   4.680  16.029  20.294  0.0033 -0.1907  0.0789
 1599POPC   GL119179   4.538  16.155  19.981  0.1411 -0.4069  0.4032
 1599POPC   GL219180   4.208  16.171  19.966  0.2332 -0.1549  0.0349
 1599POPC   C1A19181   4.784  16.050  19.560  0.0137 -0.0976  0.0662
 1599POPC   D2A19182   4.579  16.331  19.167 -0.1779  0.0170 -0.1863
 1599POPC   C3A19183   4.655  16.201  18.705 -0.1329 -0.3500  0.0647
 1599POPC   C4A19184   4.763  15.988  18.268 -0.1440 -0.2852  0.0274
 1599POPC   C1B19185   3.956  15.780  19.916 -0.0303  0.0517  0.1318
 1599POPC   C2B19186   3.651  15.490  19.756  0.1624 -0.1078 -0.0792
 1599POPC   C3B19187   3.665  15.325  19.333  0.1230 -0.2397  0.1575
 1599POPC   C4B19188   3.368  15.207  19.008 -0.1943 -0.0889 -0.1592
 1600POPC   NC319189   5.482   1.508  19.783  0.1173 -0.1294  0.1046
 1600POPC   PO419190   5.334   1.175  19.648  0.1024 -0.0722 -0.1568
 1600POPC   GL119191   5.170   0.871  19.619 -0.0502  0.1304 -0.3831
 1600POPC   GL219192   4.865   0.955  19.514 -0.5395  0.1204 -0.0661
 1600POPC   C1A19193   5.149   0.484  19.370 -0.1564  0.1234 -0.3648
 1600POPC   D2A19194   5.137   0.151  19.075 -0.1689 -0.2798  0.1172
 1600POPC   C3A19195   5.334   0.107  18.618 -0.1546 -0.3604 -0.0930
 1600POPC   C4A19196   5.300  -0.037  18.197 -0.1757  0.0569  0.0150
 1600POPC   C1B19197   4.725   0.649  19.221 -0.0712  0.1471  0.1346
 1600POPC   C2B19198   4.726   0.345  18.828  0.0067  0.0832  0.0587
 1600POPC   C3B19199   4.865  -0.013  18.520 -0.2559  0.1465  0.1158
 1600POPC   C4B19200   4.890  -0.283  18.137  0.0217 -0.4979 -0.1848
 1601POPC   NC319201   1.411  10.697  20.776 -0.0879 -0.0676 -0.0367
 1601POPC   PO419202   1.056  10.751  20.637 -0.0065 -0.1553  0.2060
 1601POPC   GL119203   0.981  10.771  20.269  0.0197 -0.0192 -0.0577
 1601POPC   GL219204   0.731  10.681  20.235  0.1220  0.0255 -0.0659
 1601POPC   C1A19205   1.163  11.044  19.948  0.3162 -0.0235 -0.0640
 1601POPC   D2A19206   1.084  11.203  19.484  0.0678 -0.0770  0.0594
 1601POPC   C3A19207   0.869  11.197  19.045  0.1932  0.1988 -0.0788
 1601POPC   C4A19208   0.562  11.254  18.732  0.0407  0.3067  0.0070
 1601POPC   C1B19209   0.676  10.392  19.885 -0.0814  0.0855 -0.1107
 1601POPC   C2B19210   0.612  10.536  19.433  0.0803  0.2332  0.0821
 1601POPC   C3B19211   0.544  10.768  19.027  0.0861  0.1584 -0.0423
 1601POPC   C4B19212   0.141  10.969  18.882  0.1685 -0.2892  0.2772
 1602POPC   NC319213   3.830  12.552  20.768  0.1845  0.0569 -0.4140
 1602POPC   PO419214   3.884  12.845  20.946 -0.3538  0.1235 -0.0039
 1602POPC   GL119215   4.107  12.946  20.574  0.2361  0.2958  0.1814
 1602POPC   GL219216   4.304  12.764  20.482 -0.1770 -0.4374 -0.2553
 1602POPC   C1A19217   3.802  12.858  20.226 -0.1677  0.1341 -0.1847
 1602POPC   D2A19218   3.684  13.060  19.897 -0.1517 -0.0720  0.2246
 1602POPC   C3A19219   3.229  13.067  19.795  0.1040 -0.1131 -0.1173
 1602POPC   C4A19220   2.770  13.162  19.929 -0.0357 -0.0938  0.0953
 1602POPC   C1B19221   4.178  12.890  20.023 -0.0536  0.3006  0.1220
 1602POPC   C2B19222   3.999  12.854  19.600 -0.1432  0.2298 -0.3226
 1602POPC   C3B19223   4.094  12.824  19.141  0.2742 -0.0751 -0.0865
 1602POPC   C4B19224   3.941  12.904  18.727 -0.0156  0.1556  0.0909
 1603POPC   NC319225   1.586   3.449  19.843 -0.0092  0.1320  0.1132
 1603POPC   PO419226   1.232   3.389  19.730  0.0172 -0.0055  0.3869
 1603POPC   GL119227   1.440   3.335  19.405 -0.0302 -0.1805  0.0031
 1603POPC   GL219228   1.348   3.483  19.233  0.1212 -0.1433  0.0531
 1603POPC   C1A19229   1.561   2.992  19.058  0.0749  0.4005 -0.2593
 1603POPC   D2A19230   1.415   2.851  18.634  0.2896  0.0483  0.0295
 1603POPC   C3A19231   1.792   2.787  18.360 -0.0995  0.1396  0.0647
 1603POPC   C4A19232   2.016   2.488  18.039  0.1557  0.0463  0.2332
 1603POPC   C1B19233   1.643   3.504  18.912 -0.4126 -0.0166  0.0147
 1603POPC   C2B19234   1.808   3.189  18.660  0.0892 -0.3177 -0.1149
 1603POPC   C3B19235   2.177   3.074  18.452 -0.1806  0.0296 -0.2194
 1603POPC   C4B19236   2.372   3.138  18.032 -0.2123  0.2641  0.0395
 1604POPC   NC319237   8.682   5.642  13.712 -0.0852  0.0880 -0.1348
 1604POPC   PO419238   8.997   5.893  13.856  0.1587  0.0391  0.0476
 1604POPC   GL119239   8.839   6.263  13.748  0.2550  0.0970  0.0627
 1604POPC   GL219240   8.534   6.126  13.611  0.1980 -0.1433 -0.1069
 1604POPC   C1A19241   8.610   6.651  13.870 -0.1600  0.1327 -0.2281
 1604POPC   D2A19242   8.303   6.963  13.763  0.0208 -0.0034 -0.0153
 1604POPC   C3A19243   8.374   7.392  13.974  0.3777  0.1307 -0.1104
 1604POPC   C4A19244   8.585   7.767  14.019 -0.1681  0.0494  0.0935
 1604POPC   C1B19245   8.163   6.388  13.395  0.0429  0.1332 -0.1448
 1604POPC   C2B19246   7.860   6.734  13.375 -0.1894 -0.2148  0.0159
 1604POPC   C3B19247   7.654   7.115  13.366  0.0038  0.2168 -0.1784
 1604POPC   C4B19248   7.777   7.560  13.307 -0.1431  0.1464  0.1481
 1605POPC   NC319249   8.233   6.311  16.081 -0.2606 -0.2047 -0.2996
 1605POPC   PO419250   8.076   6.633  15.969 -0.1506 -0.2571  0.1435
 1605POPC   GL119251   7.964   6.970  16.025  0.0555  0.0605  0.0162
 1605POPC   GL219252   7.660   6.943  16.036 -0.1257  0.0085  0.1176
 1605POPC   C1A19253   7.774   7.347  15.761  0.1816 -0.1677 -0.1432
 1605POPC   D2A19254   7.779   7.735  15.459  0.3757 -0.2246 -0.0761
 1605POPC   C3A19255   8.085   7.970  15.726 -0.5880  0.0258  0.3251
 1605POPC   C4A19256   8.442   8.108  15.963  0.2549 -0.2917 -0.0937
 1605POPC   C1B19257   7.247   6.938  16.183 -0.1319 -0.2243 -0.0989
 1605POPC   C2B19258   6.823   7.055  16.235  0.1183  0.1409  0.0392
 1605POPC   C3B19259   6.408   6.982  16.026 -0.0367  0.1323 -0.1441
 1605POPC   C4B19260   6.130   7.186  16.294  0.0367 -0.0210  0.3556
 1606POPC   NC319261  15.459   7.165  19.863  0.0966  0.0580 -0.1424
 1606POPC   PO419262  15.527   7.575  19.820  0.0750  0.1871 -0.2383
 1606POPC   GL119263  15.351   7.520  19.474 -0.1901  0.5318 -0.2725
 1606POPC   GL219264  15.506   7.665  19.304  0.2677  0.2403 -0.0625
 1606POPC   C1A19265  15.190   7.289  19.073 -0.1726  0.1118  0.0510
 1606POPC   D2A19266  14.763   7.292  18.996  0.3493 -0.0512  0.0450
 1606POPC   C3A19267  14.774   7.194  18.515  0.1900 -0.0082  0.3908
 1606POPC   C4A19268  14.696   7.433  18.120 -0.1089 -0.1515 -0.1217
 1606POPC   C1B19269  15.621   7.546  18.898 -0.0761 -0.1325  0.0331
 1606POPC   C2B19270  15.916   7.631  18.574 -0.3242  0.1117 -0.1981
 1606POPC   C3B19271  16.046   7.673  18.145 -0.2332  0.1438  0.0173
 1606POPC   C4B19272  16.298   7.725  17.745 -0.2644  0.1692  0.1381
 1607POPC   NC319273   6.175  10.388  19.567  0.4013 -0.3530  0.1413
 1607POPC   PO419274   6.269  10.622  19.877 -0.0738  0.0897 -0.3021
 1607POPC   GL119275   6.303  10.933  19.561  0.0244  0.0571  0.1309
 1607POPC   GL219276   6.034  10.870  19.476 -0.2105  0.0696  0.3089
 1607POPC   C1A19277   6.334  11.053  19.100  0.0520  0.1917  0.2679
 1607POPC   D2A19278   6.082  11.189  18.738 -0.1135 -0.2195 -0.1167
 1607POPC   C3A19279   5.746  10.862  18.567 -0.1040  0.2316 -0.1572
 1607POPC   C4A19280   5.265  10.906  18.568  0.1791 -0.0795 -0.0592
 1607POPC   C1B19281   5.807  11.034  19.146 -0.0033  0.0484  0.0136
 1607POPC   C2B19282   5.571  11.263  18.815 -0.2738 -0.2224  0.1700
 1607POPC   C3B19283   5.238  11.490  18.536 -0.2940  0.1143 -0.0507
 1607POPC   C4B19284   4.775  11.386  18.545  0.2982  0.1349 -0.1053
 1608POPC   NC319285   9.940   7.061  16.813  0.1943 -0.0530 -0.1843
 1608POPC   PO419286   9.620   7.168  16.658  0.0140  0.0103 -0.0368
 1608POPC   GL119287   9.703   7.613  16.738 -0.1262 -0.1881 -0.0719
 1608POPC   GL219288   9.478   7.653  16.575  0.1435  0.1871 -0.0666
 1608POPC   C1A19289   9.873   7.970  16.547 -0.0914  0.1595 -0.1741
 1608POPC   D2A19290  10.317   8.088  16.627 -0.0797 -0.0353 -0.1227
 1608POPC   C3A19291  10.422   8.410  16.331  0.0893  0.0948 -0.0400
 1608POPC   C4A19292  10.642   8.799  16.261  0.0433  0.1090  0.0290
 1608POPC   C1B19293   9.596   7.729  16.162 -0.0097  0.0452  0.1380
 1608POPC   C2B19294   9.719   7.859  15.759 -0.2235  0.1842  0.1895
 1608POPC   C3B19295   9.702   8.303  15.518  0.1686 -0.3396  0.0635
 1608POPC   C4B19296   9.638   8.608  15.130  0.0175 -0.2588 -0.2432
 1609POPC   NC319297   3.606  15.636  20.997 -0.4081 -0.2692  0.2009
 1609POPC   PO419298   3.805  15.284  20.915 -0.0961 -0.1609 -0.1713
 1609POPC   GL119299   3.632  15.372  20.588 -0.2475 -0.2278  0.0153
 1609POPC   GL219300   3.808  15.518  20.355 -0.0703 -0.1283  0.0515
 1609POPC   C1A19301   3.319  15.425  20.225 -0.1674 -0.0862  0.1521
 1609POPC   D2A19302   3.084  15.301  19.849  0.1332 -0.1809 -0.1839
 1609POPC   C3A19303   3.183  15.525  19.456 -0.1105 -0.0159 -0.2739
 1609POPC   C4A19304   3.158  15.701  19.025 -0.0354  0.0025  0.1122
 1609POPC   C1B19305   4.121  15.220  20.137 -0.0742  0.1396 -0.3407
 1609POPC   C2B19306   4.206  15.031  19.706 -0.0282 -0.1318  0.0196
 1609POPC   C3B19307   4.270  15.079  19.262  0.0287  0.0793  0.0389
 1609POPC   C4B19308   4.145  15.238  18.845  0.3256 -0.0108 -0.0398
 1610POPC   NC319309  16.215   6.432  19.508 -0.1342 -0.3015  0.0872
 1610POPC   PO419310  16.571   6.430  19.297 -0.0026  0.1301  0.0618
 1610POPC   GL119311  16.716   6.250  18.891  0.4745  0.1016 -0.1206
 1610POPC   GL219312  16.772   6.040  18.672  0.1279 -0.2910  0.0824
 1610POPC   C1A19313  17.077   6.398  18.644 -0.2000  0.0697  0.0161
 1610POPC   D2A19314  17.121   6.142  18.276 -0.0214  0.4594  0.2408
 1610POPC   C3A19315  16.849   5.801  18.197 -0.2012  0.0043 -0.0984
 1610POPC   C4A19316  16.453   5.749  18.081  0.0564 -0.3386 -0.1673
 1610POPC   C1B19317  16.443   6.170  18.507  0.0599 -0.0380 -0.1775
 1610POPC   C2B19318  16.400   6.296  18.067 -0.1085  0.0763 -0.0641
 1610POPC   C3B19319  16.834   6.292  17.931 -0.0221 -0.1872  0.0380
 1610POPC   C4B19320  17.226   6.532  17.889 -0.0936  0.1661  0.2694
 1611POPC   NC319321   8.670   8.686  19.032  0.2845 -0.1129 -0.0872
 1611POPC   PO419322   9.007   8.730  18.902  0.0237 -0.0289 -0.0508
 1611POPC   GL119323   8.859   9.112  18.882  0.0373 -0.1192  0.1963
 1611POPC   GL219324   8.651   9.191  18.638 -0.0642  0.0026 -0.1905
 1611POPC   C1A19325   9.091   9.496  18.836  0.0651  0.2306  0.0181
 1611POPC   D2A19326   9.162   9.799  18.484 -0.1463  0.1027  0.2146
 1611POPC   C3A19327   8.885   9.884  18.091  0.2728  0.0231 -0.1093
 1611POPC   C4A19328   8.779  10.224  17.773  0.1807  0.1734  0.2853
 1611POPC   C1B19329   9.037   9.238  18.385  0.0635  0.0376  0.1710
 1611POPC   C2B19330   9.300   9.385  18.044  0.4114  0.0289 -0.2491
 1611POPC   C3B19331   9.130   9.258  17.641  0.2310  0.1524  0.0177
 1611POPC   C4B19332   8.803   9.021  17.447 -0.0865  0.0712 -0.0461
 1612POPC   NC319333   2.690  13.982  20.473 -0.2121  0.1449 -0.0176
 1612POPC   PO419334   2.358  14.087  20.297 -0.2473 -0.2801 -0.0283
 1612POPC   GL119335   2.459  14.156  19.925  0.0945 -0.1239 -0.6398
 1612POPC   GL219336   2.702  13.939  19.904 -0.0114 -0.1511 -0.1243
 1612POPC   C1A19337   2.456  14.522  19.658  0.1252  0.2639  0.4086
 1612POPC   D2A19338   2.124  14.595  19.355  0.3819 -0.1835 -0.0292
 1612POPC   C3A19339   2.051  14.441  18.923  0.0688  0.1754 -0.2726
 1612POPC   C4A19340   1.864  14.336  18.478  0.0882 -0.0317  0.0151
 1612POPC   C1B19341   2.811  14.055  19.495  0.0790 -0.2834  0.1007
 1612POPC   C2B19342   2.774  14.428  19.212 -0.0109 -0.1724 -0.1556
 1612POPC   C3B19343   3.045  14.734  19.022 -0.1806  0.1225  0.0645
 1612POPC   C4B19344   3.214  14.942  18.621 -0.0062 -0.0480  0.0787
 1613POPC   NC319345   6.557   9.445  19.793  0.2753  0.0913  0.1897
 1613POPC   PO419346   6.408   9.189  19.568 -0.1391 -0.4187 -0.0548
 1613POPC   GL119347   6.388   9.280  19.184  0.1833 -0.1613  0.2611
 1613POPC   GL219348   6.628   9.204  19.081 -0.2992 -0.0436 -0.0434
 1613POPC   C1A19349   6.038   9.353  18.888 -0.0073 -0.0740  0.1996
 1613POPC   D2A19350   6.041   9.345  18.405  0.2625 -0.1859  0.0512
 1613POPC   C3A19351   5.877   9.792  18.379  0.5813 -0.1482  0.1737
 1613POPC   C4A19352   5.902  10.286  18.415 -0.0618 -0.0247  0.0869
 1613POPC   C1B19353   6.493   9.119  18.608 -0.0404 -0.1524  0.0207
 1613POPC   C2B19354   6.491   9.107  18.167  0.3810 -0.0965 -0.1830
 1613POPC   C3B19355   6.157   9.167  17.832  0.1068  0.1749  0.0191
 1613POPC   C4B19356   5.838   9.276  17.489 -0.2818 -0.1459 -0.0638
 1614POPC   NC319357  14.819  11.795  21.035  0.0256  0.1847  0.0850
 1614POPC   PO419358  14.966  11.521  20.752  0.2333  0.0303 -0.3089
 1614POPC   GL119359  15.062  11.356  20.371 -0.0420  0.1067 -0.1053
 1614POPC   GL219360  15.091  10.997  20.364  0.0622 -0.4525 -0.1052
 1614POPC   C1A19361  15.143  11.455  19.930  0.2120  0.2505  0.0996
 1614POPC   D2A19362  15.112  11.816  19.716 -0.2861  0.1172  0.1433
 1614POPC   C3A19363  15.148  11.857  19.272 -0.0520  0.1811  0.0942
 1614POPC   C4A19364  15.094  11.838  18.819  0.2386  0.1852 -0.1499
 1614POPC   C1B19365  15.230  10.875  19.942 -0.0074  0.3034 -0.3358
 1614POPC   C2B19366  15.482  10.848  19.486  0.0008 -0.0254  0.1171
 1614POPC   C3B19367  15.497  11.031  19.074  0.4894 -0.1014  0.0582
 1614POPC   C4B19368  15.357  10.840  18.719  0.1213  0.1803  0.1467
 1615POPC   NC319369   4.086  10.322  20.669 -0.1394 -0.0855 -0.2078
 1615POPC   PO419370   4.311  10.651  20.537  0.0546  0.0583 -0.2121
 1615POPC   GL119371   4.032  10.911  20.431 -0.2026  0.0499  0.0054
 1615POPC   GL219372   4.201  11.054  20.207  0.0595  0.0635 -0.1512
 1615POPC   C1A19373   3.713  10.958  20.097  0.1791  0.1562 -0.1657
 1615POPC   D2A19374   3.411  10.792  19.767 -0.1197 -0.1369  0.2005
 1615POPC   C3A19375   3.540  10.902  19.326  0.2612 -0.0906  0.1112
 1615POPC   C4A19376   3.905  11.148  19.218  0.1511  0.0722 -0.2801
 1615POPC   C1B19377   4.310  10.875  19.823 -0.0697  0.1353 -0.0741
 1615POPC   C2B19378   4.460  10.988  19.408  0.0689 -0.1334 -0.0209
 1615POPC   C3B19379   4.611  11.200  19.046  0.1347  0.0272  0.0214
 1615POPC   C4B19380   4.740  11.628  18.980  0.0404 -0.2049  0.1380
 1616POPC   NC319381  10.792   5.784  13.436  0.1815  0.1523  0.1510
 1616POPC   PO419382  10.481   5.563  13.586  0.0659  0.1121 -0.0406
 1616POPC   GL119383  10.705   5.279  13.691  0.3508  0.1609 -0.3499
 1616POPC   GL219384  10.867   5.401  13.923  0.1655  0.0339 -0.0466
 1616POPC   C1A19385  10.708   4.831  13.491  0.0434  0.2681 -0.0684
 1616POPC   D2A19386  10.691   4.676  13.046  0.0550  0.1441 -0.2025
 1616POPC   C3A19387  10.998   4.527  12.748 -0.2574  0.1797  0.0021
 1616POPC   C4A19388  11.299   4.233  12.589  0.1585 -0.1221  0.0792
 1616POPC   C1B19389  11.089   5.361  14.291 -0.1147  0.1449 -0.3405
 1616POPC   C2B19390  11.379   5.037  14.314 -0.1752 -0.1761  0.2642
 1616POPC   C3B19391  11.447   4.590  14.192 -0.1714 -0.0946 -0.0522
 1616POPC   C4B19392  11.377   4.295  13.904  0.0046 -0.1401 -0.3009
 1617POPC   NC319393  14.543  11.150  20.312 -0.4848 -0.0294  0.2364
 1617POPC   PO419394  14.215  11.339  20.228 -0.1460  0.0064 -0.3147
 1617POPC   GL119395  14.057  11.411  19.885  0.3180  0.1498  0.2273
 1617POPC   GL219396  14.054  11.693  19.779 -0.1575 -0.2998 -0.0341
 1617POPC   C1A19397  14.235  11.270  19.497 -0.1698 -0.3167  0.3366
 1617POPC   D2A19398  14.661  11.223  19.349 -0.0170 -0.1719  0.0901
 1617POPC   C3A19399  15.166  11.188  19.443  0.2362 -0.2434 -0.0525
 1617POPC   C4A19400  15.594  11.302  19.594 -0.4357  0.0222  0.0377
 1617POPC   C1B19401  14.019  11.860  19.346 -0.1114  0.2070 -0.0934
 1617POPC   C2B19402  13.831  12.185  18.994 -0.1090  0.0110 -0.1644
 1617POPC   C3B19403  13.993  12.334  18.576  0.0806 -0.0152  0.2667
 1617POPC   C4B19404  13.956  12.199  18.151  0.2516  0.4638 -0.1287
 1618POPC   NC319405   5.617   0.792  19.525  0.1933 -0.1669 -0.2437
 1618POPC   PO419406   5.582   0.989  19.218  0.1000 -0.0156  0.2039
 1618POPC   GL119407   5.319   0.829  19.013 -0.0352  0.1019 -0.2113
 1618POPC   GL219408   5.114   1.061  18.983 -0.0495 -0.1072 -0.1476
 1618POPC   C1A19409   5.134   0.561  18.684  0.0286 -0.0328  0.0943
 1618POPC   D2A19410   5.049   0.430  18.220  0.0109 -0.0252  0.0617
 1618POPC   C3A19411   4.767   0.682  17.932 -0.1353  0.3126 -0.1873
 1618POPC   C4A19412   4.892   0.814  17.524 -0.2806 -0.2347 -0.2968
 1618POPC   C1B19413   5.020   1.115  18.492 -0.1777  0.0931  0.0958
 1618POPC   C2B19414   4.938   1.153  17.986  0.1048 -0.0134  0.1215
 1618POPC   C3B19415   5.117   1.272  17.611 -0.0364 -0.1211  0.0563
 1618POPC   C4B19416   5.282   1.067  17.232  0.2395 -0.1604  0.0307
 1619POPC   NC319417   5.658   9.644  19.705 -0.1462  0.1841  0.1637
 1619POPC   PO419418   6.006   9.810  19.725  0.1137 -0.0886 -0.0388
 1619POPC   GL119419   5.942  10.012  19.434 -0.2998 -0.0041 -0.1322
 1619POPC   GL219420   6.102   9.920  19.206 -0.1966 -0.2609  0.3499
 1619POPC   C1A19421   5.699  10.215  19.046  0.0026 -0.1943 -0.1092
 1619POPC   D2A19422   5.463  10.455  18.754  0.0424  0.0394 -0.1985
 1619POPC   C3A19423   5.320  10.231  18.395  0.2998  0.1633 -0.0388
 1619POPC   C4A19424   5.562  10.107  18.097  0.0478 -0.4324  0.0584
 1619POPC   C1B19425   5.909   9.814  18.822  0.0372 -0.2051 -0.2451
 1619POPC   C2B19426   5.465   9.694  18.731 -0.1720 -0.2422  0.1947
 1619POPC   C3B19427   5.089   9.761  18.483 -0.1029 -0.2807 -0.1121
 1619POPC   C4B19428   4.627   9.668  18.403 -0.0339 -0.1088  0.0316
 1620POPC   NC319429   1.861   7.264  19.996  0.1027 -0.1401 -0.1030
 1620POPC   PO419430   2.153   7.550  19.887 -0.2947  0.1083  0.1580
 1620POPC   GL119431   2.336   7.547  19.523 -0.3256  0.1081 -0.1632
 1620POPC   GL219432   2.475   7.776  19.404  0.1760  0.1919 -0.2944
 1620POPC   C1A19433   2.060   7.510  19.157  0.0701  0.2617 -0.2441
 1620POPC   D2A19434   1.723   7.792  18.972  0.0417 -0.0164 -0.0155
 1620POPC   C3A19435   1.545   8.162  19.234 -0.0304 -0.0252 -0.3673
 1620POPC   C4A19436   1.569   8.586  19.094  0.0283 -0.2390 -0.0042
 1620POPC   C1B19437   2.607   7.587  18.939  0.2869 -0.1805 -0.1574
 1620POPC   C2B19438   2.508   7.644  18.523  0.1170  0.1160  0.2600
 1620POPC   C3B19439   2.486   7.848  18.145  0.0381  0.0348  0.0246
 1620POPC   C4B19440   2.628   7.996  17.693  0.2398  0.0508  0.0157
 1621POPC   NC319441   9.772  32.599  20.230  0.1667  0.2171  0.0816
 1621POPC   PO419442   9.659  32.623  19.850 -0.0863 -0.1107  0.1368
 1621POPC   GL119443   9.528  32.303  19.586  0.1539  0.0482  0.1281
 1621POPC   GL219444   9.244  32.408  19.670 -0.1542  0.2779 -0.2217
 1621POPC   C1A19445   9.607  32.386  19.124 -0.2758 -0.0898  0.1257
 1621POPC   D2A19446   9.665  32.301  18.677 -0.2760  0.0404  0.1576
 1621POPC   C3A19447   9.847  32.666  18.439 -0.0895 -0.1556 -0.3324
 1621POPC   C4A19448  10.226  32.801  18.141 -0.0909  0.2312 -0.1506
 1621POPC   C1B19449   9.002  32.409  19.267 -0.1015 -0.2472  0.2072
 1621POPC   C2B19450   8.950  32.246  18.828 -0.1905 -0.1294 -0.0909
 1621POPC   C3B19451   8.979  32.123  18.417 -0.0090 -0.2449  0.0053
 1621POPC   C4B19452   9.332  31.907  18.211 -0.0596  0.1598  0.0239
 1622POPC   NC319453   9.373   1.196  19.149 -0.2605  0.2920  0.1097
 1622POPC   PO419454   9.057   1.418  19.012  0.2497  0.0511  0.0362
 1622POPC   GL119455   9.128   1.117  18.796 -0.0830  0.3119  0.2852
 1622POPC   GL219456   8.990   0.846  18.917 -0.1215 -0.0033 -0.0087
 1622POPC   C1A19457   9.149   1.051  18.347 -0.1573 -0.1596  0.0772
 1622POPC   D2A19458   9.224   1.137  17.910 -0.1052  0.2440  0.0053
 1622POPC   C3A19459   9.243   0.806  17.658  0.1138 -0.0054  0.3034
 1622POPC   C4A19460   8.947   0.488  17.556  0.0917  0.2099  0.0021
 1622POPC   C1B19461   9.164   0.562  18.592 -0.1160 -0.0666  0.1703
 1622POPC   C2B19462   8.969   0.169  18.328 -0.0802 -0.0725 -0.3623
 1622POPC   C3B19463   9.008   0.087  17.839  0.1519  0.2434 -0.1716
 1622POPC   C4B19464   8.793   0.020  17.416 -0.0258  0.3486  0.0100
 1623POPC   NC319465   7.060   3.662  17.717  0.0929  0.0412 -0.1201
 1623POPC   PO419466   7.121   3.776  17.359 -0.2255  0.2093 -0.3595
 1623POPC   GL119467   7.066   3.541  17.052  0.0567 -0.0366 -0.0078
 1623POPC   GL219468   6.816   3.324  17.060  0.0339 -0.2433  0.0948
 1623POPC   C1A19469   7.329   3.297  16.773 -0.1823  0.1388 -0.2623
 1623POPC   D2A19470   7.567   3.152  16.392  0.1082 -0.1151  0.0320
 1623POPC   C3A19471   7.570   3.124  15.930  0.2480  0.1903 -0.0706
 1623POPC   C4A19472   7.583   3.124  15.489 -0.2224  0.0094  0.2348
 1623POPC   C1B19473   6.772   3.337  16.618  0.0040 -0.2775 -0.1571
 1623POPC   C2B19474   6.526   3.443  16.251  0.0231 -0.0176  0.0234
 1623POPC   C3B19475   6.220   3.331  15.865  0.1514 -0.2060  0.0391
 1623POPC   C4B19476   6.153   3.644  15.507  0.4189 -0.2286 -0.0483
 1624POPC   NC319477  13.812  13.420  20.178 -0.1813  0.0931 -0.1780
 1624POPC   PO419478  13.971  13.744  20.282  0.2124  0.0270 -0.0229
 1624POPC   GL119479  14.079  14.000  19.987  0.0204  0.4949 -0.1163
 1624POPC   GL219480  14.283  13.773  19.918 -0.0242 -0.0265 -0.1076
 1624POPC   C1A19481  14.004  13.993  19.537  0.0494 -0.1669  0.3937
 1624POPC   D2A19482  13.993  13.929  19.112 -0.0731  0.0290  0.0686
 1624POPC   C3A19483  13.723  13.732  18.852  0.0995  0.1722  0.1649
 1624POPC   C4A19484  13.253  13.761  18.859  0.2735 -0.0445  0.1794
 1624POPC   C1B19485  14.177  13.500  19.551 -0.1061  0.1994 -0.1666
 1624POPC   C2B19486  14.124  13.461  19.050  0.0819  0.0052  0.2112
 1624POPC   C3B19487  14.377  13.365  18.748  0.2896  0.2464  0.3292
 1624POPC   C4B19488  14.651  13.180  18.500 -0.2025  0.0999 -0.2671
 1625POPC   NC319489   5.183   6.075  18.541 -0.1662 -0.4121 -0.0295
 1625POPC   PO419490   5.474   5.824  18.614 -0.1760 -0.1466  0.2044
 1625POPC   GL119491   5.495   5.834  18.263 -0.0863  0.1234  0.1847
 1625POPC   GL219492   5.481   6.127  18.114 -0.3668 -0.4589 -0.0878
 1625POPC   C1A19493   5.798   5.835  17.935 -0.0497  0.1065  0.0174
 1625POPC   D2A19494   5.843   5.631  17.517 -0.2436  0.1635  0.2733
 1625POPC   C3A19495   5.498   5.346  17.372 -0.0396  0.0503  0.0151
 1625POPC   C4A19496   5.092   5.317  17.166  0.1513  0.0454  0.0286
 1625POPC   C1B19497   5.186   6.375  17.882 -0.0821  0.0105 -0.0276
 1625POPC   C2B19498   5.039   6.721  17.648 -0.1325 -0.0092 -0.2367
 1625POPC   C3B19499   4.680   6.810  17.316 -0.0028 -0.0151  0.0161
 1625POPC   C4B19500   4.615   6.801  16.848  0.0748 -0.0488 -0.0340
 1626POPC   NC319501   9.262   6.627  13.698 -0.0486  0.0920 -0.2297
 1626POPC   PO419502   9.623   6.646  13.596  0.0599 -0.1613  0.3864
 1626POPC   GL119503   9.770   7.039  13.595 -0.2036 -0.1485  0.2825
 1626POPC   GL219504   9.817   7.103  13.337 -0.1008 -0.3331  0.0635
 1626POPC   C1A19505   9.777   7.499  13.709  0.2580 -0.0630 -0.1829
 1626POPC   D2A19506  10.099   7.831  13.746  0.2928  0.1644  0.2080
 1626POPC   C3A19507  10.243   8.141  14.076  0.1120  0.1084 -0.4497
 1626POPC   C4A19508  10.164   8.576  14.089 -0.0343  0.2508  0.2432
 1626POPC   C1B19509   9.626   7.503  13.242 -0.4350  0.0591  0.1649
 1626POPC   C2B19510   9.337   7.780  13.493  0.0959 -0.2651  0.0002
 1626POPC   C3B19511   8.855   7.915  13.393  0.1585  0.3075  0.2576
 1626POPC   C4B19512   8.485   8.025  13.553 -0.0635 -0.0941 -0.0726
 1627POPC   NC319513   0.013  10.762  20.627 -0.0719  0.1697 -0.2035
 1627POPC   PO419514  -0.227  11.034  20.490 -0.1058  0.2835  0.1653
 1627POPC   GL119515  -0.186  10.973  20.098  0.0242  0.3077  0.1637
 1627POPC   GL219516  -0.451  10.810  20.147  0.0011  0.1489 -0.0305
 1627POPC   C1A19517   0.014  11.115  19.686 -0.0390  0.3200  0.1123
 1627POPC   D2A19518  -0.067  11.243  19.204 -0.1958 -0.0627 -0.2057
 1627POPC   C3A19519  -0.313  11.635  19.120 -0.1442 -0.0680  0.2478
 1627POPC   C4A19520  -0.559  11.899  18.823 -0.0448 -0.3832 -0.1024
 1627POPC   C1B19521  -0.462  10.989  19.720 -0.3081  0.0098  0.0896
 1627POPC   C2B19522  -0.494  10.957  19.216 -0.0697  0.0427 -0.3362
 1627POPC   C3B19523  -0.455  11.042  18.765  0.3216  0.0760  0.1307
 1627POPC   C4B19524  -0.189  11.301  18.532  0.0672 -0.3987 -0.1201
 1628POPC   NC319525  15.661   7.966  20.220  0.0558  0.1430  0.0799
 1628POPC   PO419526  15.396   8.067  19.979 -0.2169  0.0823 -0.1808
 1628POPC   GL119527  15.440   8.016  19.624 -0.0120  0.6673  0.3840
 1628POPC   GL219528  15.768   8.117  19.611  0.3345  0.1314 -0.1770
 1628POPC   C1A19529  15.288   8.268  19.256  0.0565  0.1043 -0.0863
 1628POPC   D2A19530  15.397   8.560  18.913  0.0786 -0.0572 -0.1618
 1628POPC   C3A19531  15.103   8.731  18.653 -0.2355 -0.0310  0.3328
 1628POPC   C4A19532  15.015   9.059  18.344 -0.1746  0.2177  0.0728
 1628POPC   C1B19533  15.753   8.095  19.181 -0.1223  0.1635  0.4111
 1628POPC   C2B19534  15.543   7.991  18.759 -0.0597  0.2138 -0.1351
 1628POPC   C3B19535  15.458   7.900  18.321  0.3927  0.3076  0.1529
 1628POPC   C4B19536  15.425   8.202  17.977  0.3089  0.0212 -0.2146
 1629POPC   NC319537  10.471   6.591  15.579  0.3357  0.0924 -0.0688
 1629POPC   PO419538  10.327   6.622  15.195 -0.0092  0.3642  0.0238
 1629POPC   GL119539  10.447   6.922  15.008  0.0453  0.2229 -0.4087
 1629POPC   GL219540  10.319   7.154  15.001  0.0864  0.2869  0.1461
 1629POPC   C1A19541  10.847   6.874  14.826  0.0264 -0.0677  0.1222
 1629POPC   D2A19542  11.129   6.692  14.527  0.0354 -0.1722  0.2505
 1629POPC   C3A19543  10.966   6.815  14.091  0.3166  0.2141 -0.0731
 1629POPC   C4A19544  11.165   6.697  13.685 -0.1220  0.1371 -0.2209
 1629POPC   C1B19545  10.210   7.593  14.980  0.3054 -0.0430  0.1147
 1629POPC   C2B19546  10.157   7.976  15.292 -0.2088 -0.1280  0.1675
 1629POPC   C3B19547  10.112   8.438  15.306 -0.0179 -0.1251 -0.1265
 1629POPC   C4B19548  10.151   8.772  15.036  0.4023 -0.0723  0.0969
 1630POPC   NC319549  14.548  12.947  20.262 -0.3735  0.0000  0.0621
 1630POPC   PO419550  14.796  13.226  20.351 -0.0990 -0.5291 -0.1612
 1630POPC   GL119551  14.870  13.153  19.950  0.2457 -0.0434 -0.1485
 1630POPC   GL219552  15.198  13.170  20.020 -0.1365 -0.0938  0.0061
 1630POPC   C1A19553  14.645  13.102  19.530 -0.1036 -0.2460 -0.0822
 1630POPC   D2A19554  14.680  13.144  19.077  0.1356 -0.2127  0.0647
 1630POPC   C3A19555  14.946  13.487  18.887 -0.0704  0.0858 -0.1810
 1630POPC   C4A19556  15.283  13.509  18.653  0.3113  0.1080 -0.1111
 1630POPC   C1B19557  15.533  13.009  19.744  0.2187 -0.0357  0.2202
 1630POPC   C2B19558  15.509  12.747  19.341  0.1187 -0.1366  0.2376
 1630POPC   C3B19559  15.727  12.910  18.974  0.2862  0.1753 -0.0656
 1630POPC   C4B19560  15.693  13.178  18.586 -0.0306 -0.0871 -0.0026
 1631POPC   NC319561   7.336   5.606  16.658  0.0692  0.1842  0.0963
 1631POPC   PO419562   7.159   5.327  16.912 -0.1780 -0.1896 -0.4558
 1631POPC   GL119563   6.875   5.458  16.580 -0.1385 -0.4246 -0.1103
 1631POPC   GL219564   6.789   5.656  16.351 -0.2583 -0.0837 -0.3258
 1631POPC   C1A19565   6.470   5.270  16.424 -0.3860  0.5714  0.1301
 1631POPC   D2A19566   6.425   4.789  16.343  0.2356  0.2825 -0.1305
 1631POPC   C3A19567   6.024   4.586  16.358  0.2804  0.4210  0.3148
 1631POPC   C4A19568   5.807   4.311  16.142 -0.1730  0.0460  0.1546
 1631POPC   C1B19569   6.683   6.062  16.123  0.0637 -0.0484  0.4574
 1631POPC   C2B19570   6.378   6.250  15.861 -0.1994  0.0922  0.0711
 1631POPC   C3B19571   6.459   6.639  15.623  0.2251 -0.0742 -0.2107
 1631POPC   C4B19572   6.493   6.708  15.184 -0.3719 -0.1092  0.2141
 1632POPC   NC319573  13.133  12.084  20.810 -0.1343 -0.1380 -0.0650
 1632POPC   PO419574  12.868  11.955  20.570  0.1532  0.0313  0.2736
 1632POPC   GL119575  12.984  11.792  20.201 -0.0730 -0.0058  0.3507
 1632POPC   GL219576  12.793  11.741  20.058 -0.1053 -0.4104  0.2266
 1632POPC   C1A19577  13.277  11.649  19.834  0.1655  0.0662  0.0614
 1632POPC   D2A19578  13.561  11.356  19.747 -0.0774 -0.1143  0.0793
 1632POPC   C3A19579  13.768  11.357  19.356  0.0268  0.1080 -0.3554
 1632POPC   C4A19580  13.901  11.545  18.987 -0.0383  0.3351  0.3864
 1632POPC   C1B19581  12.595  11.935  19.681  0.2661  0.2338  0.2591
 1632POPC   C2B19582  12.729  12.278  19.404 -0.3054  0.0747 -0.0139
 1632POPC   C3B19583  12.456  12.525  19.100 -0.0553 -0.0704  0.0615
 1632POPC   C4B19584  12.293  12.357  18.709 -0.0453  0.4052 -0.3410
 1633POPC   NC319585   8.515   6.870  15.917  0.2356 -0.2457 -0.0649
 1633POPC   PO419586   8.787   6.992  16.144 -0.1232  0.4174 -0.1417
 1633POPC   GL119587   8.694   7.298  16.125  0.0544 -0.0979 -0.0250
 1633POPC   GL219588   8.951   7.461  16.138 -0.2399 -0.0923 -0.1471
 1633POPC   C1A19589   8.465   7.690  16.237 -0.0717  0.2412  0.1740
 1633POPC   D2A19590   8.491   8.055  16.527  0.0739 -0.0504 -0.3970
 1633POPC   C3A19591   8.469   8.446  16.336  0.0636 -0.1791  0.0311
 1633POPC   C4A19592   8.517   8.736  15.903  0.2578  0.1906  0.0470
 1633POPC   C1B19593   8.897   7.889  16.005 -0.2159 -0.1112  0.1031
 1633POPC   C2B19594   8.855   8.304  15.812 -0.1316  0.0831 -0.0450
 1633POPC   C3B19595   8.820   8.704  15.549 -0.3505 -0.1931  0.0529
 1633POPC   C4B19596   8.960   9.140  15.679 -0.3537  0.0508  0.0815
 1634POPC   NC319597  10.263  12.159  20.359  0.1636 -0.1148  0.2568
 1634POPC   PO419598  10.011  11.990  20.146  0.0259  0.0812  0.1567
 1634POPC   GL119599   9.922  12.083  19.803  0.1065 -0.1240  0.0036
 1634POPC   GL219600  10.184  12.054  19.657  0.1941 -0.1271 -0.0599
 1634POPC   C1A19601   9.624  12.282  19.532  0.2606  0.1894  0.3553
 1634POPC   D2A19602   9.471  12.319  19.123 -0.0337 -0.0563 -0.0405
 1634POPC   C3A19603   9.615  12.502  18.763  0.1293 -0.1779 -0.1043
 1634POPC   C4A19604   9.843  12.517  18.362 -0.0118  0.0653 -0.0412
 1634POPC   C1B19605  10.028  12.025  19.232  0.0386 -0.0989 -0.0370
 1634POPC   C2B19606   9.951  12.131  18.784 -0.2620  0.2668 -0.2058
 1634POPC   C3B19607   9.705  11.992  18.421 -0.0020 -0.2083  0.2723
 1634POPC   C4B19608   9.520  11.582  18.485 -0.0326  0.1320  0.0905
 1635POPC   NC319609   0.080   7.645  19.757  0.3504 -0.1260 -0.1712
 1635POPC   PO419610   0.264   7.401  19.960  0.3584  0.1145  0.0015
 1635POPC   GL119611   0.345   7.235  19.700  0.1246  0.2311 -0.3997
 1635POPC   GL219612   0.091   7.224  19.515  0.2485  0.0616 -0.2705
 1635POPC   C1A19613   0.482   7.170  19.231  0.0551  0.0625  0.1693
 1635POPC   D2A19614   0.479   7.423  18.939 -0.1743  0.1282 -0.0556
 1635POPC   C3A19615   0.449   7.240  18.539  0.0786  0.1806  0.2184
 1635POPC   C4A19616   0.262   7.243  18.080  0.2845 -0.0820  0.0511
 1635POPC   C1B19617   0.102   7.515  19.209 -0.0009 -0.3962  0.0928
 1635POPC   C2B19618   0.184   7.759  18.793  0.0991 -0.0291 -0.3427
 1635POPC   C3B19619   0.508   7.865  18.533 -0.2740 -0.0602 -0.1156
 1635POPC   C4B19620   0.464   8.175  18.222 -0.2470  0.0605  0.0470
 1636POPC   NC319621  11.716  15.434  19.935 -0.0770  0.0076  0.4812
 1636POPC   PO419622  12.095  15.474  20.045  0.0362  0.2689 -0.0438
 1636POPC   GL119623  12.212  15.274  19.749  0.1349 -0.0236  0.0748
 1636POPC   GL219624  12.294  15.515  19.531  0.2013 -0.1662  0.1263
 1636POPC   C1A19625  12.087  15.168  19.294 -0.0943  0.0912  0.0064
 1636POPC   D2A19626  11.947  15.191  18.840 -0.0762  0.0022  0.0448
 1636POPC   C3A19627  12.048  14.978  18.485  0.2885  0.0041  0.0777
 1636POPC   C4A19628  12.105  14.912  18.051  0.1060 -0.0539 -0.1054
 1636POPC   C1B19629  12.260  15.610  19.100 -0.2094 -0.2507  0.2673
 1636POPC   C2B19630  12.160  15.594  18.654  0.0510  0.1426 -0.3279
 1636POPC   C3B19631  12.122  15.398  18.229  0.0734  0.0493  0.0022
 1636POPC   C4B19632  11.759  15.280  17.952 -0.1522  0.1508 -0.2013
 1637POPC   NC319633   3.508   0.824  19.616  0.2106 -0.0051 -0.0046
 1637POPC   PO419634   3.329   0.982  19.911 -0.2349  0.1318  0.0563
 1637POPC   GL119635   3.077   1.090  19.636 -0.0079 -0.1793 -0.0678
 1637POPC   GL219636   2.916   0.836  19.700  0.1960  0.0337  0.2906
 1637POPC   C1A19637   3.124   0.995  19.193  0.0099  0.0002  0.0176
 1637POPC   D2A19638   3.130   1.004  18.736  0.1967 -0.0237 -0.2100
 1637POPC   C3A19639   3.298   0.944  18.321  0.0058  0.0443  0.0419
 1637POPC   C4A19640   3.638   1.132  17.984 -0.2972  0.0288 -0.0090
 1637POPC   C1B19641   2.826   0.564  19.326  0.1170  0.1394 -0.0206
 1637POPC   C2B19642   3.033   0.464  18.930  0.0322 -0.0536  0.0525
 1637POPC   C3B19643   3.108   0.422  18.442 -0.0652 -0.0444  0.0164
 1637POPC   C4B19644   3.376   0.292  18.102 -0.2199  0.1539  0.1508
 1638POPC   NC319645   9.744   7.054  15.779 -0.1473 -0.2872 -0.1718
 1638POPC   PO419646  10.068   6.933  15.915 -0.1107 -0.2609 -0.1169
 1638POPC   GL119647  10.164   7.280  15.827 -0.1494  0.0038  0.0609
 1638POPC   GL219648  10.368   7.331  16.069  0.3083 -0.0325  0.1764
 1638POPC   C1A19649  10.151   7.693  15.728  0.1581  0.0044 -0.1713
 1638POPC   D2A19650  10.369   8.085  15.732  0.0417  0.2003 -0.3469
 1638POPC   C3A19651  10.626   8.359  15.394  0.1571  0.0213  0.0396
 1638POPC   C4A19652  10.759   8.510  14.962  0.2869  0.1565 -0.0390
 1638POPC   C1B19653  10.652   7.722  15.919  0.0441  0.2835 -0.0350
 1638POPC   C2B19654  10.765   8.137  16.011  0.3233  0.1644 -0.1614
 1638POPC   C3B19655  10.803   8.588  15.810 -0.1022  0.2314 -0.0586
 1638POPC   C4B19656  10.900   8.813  15.415 -0.0028 -0.3730  0.1956
 1639POPC   NC319657   8.565   1.832  18.346 -0.1734  0.1027  0.1238
 1639POPC   PO419658   8.775   2.170  18.352 -0.0845 -0.2814 -0.0460
 1639POPC   GL119659   8.987   2.111  17.978  0.0814 -0.1460 -0.1097
 1639POPC   GL219660   8.941   1.819  18.012 -0.0342 -0.2626 -0.0400
 1639POPC   C1A19661   9.245   2.043  17.618  0.0059  0.0078 -0.1306
 1639POPC   D2A19662   9.357   2.075  17.155 -0.4225  0.0485  0.0418
 1639POPC   C3A19663   9.246   1.708  16.961 -0.0206  0.0993  0.1062
 1639POPC   C4A19664   9.264   1.251  16.857 -0.0485  0.0454  0.0329
 1639POPC   C1B19665   8.636   1.757  17.678  0.2058 -0.0526 -0.0322
 1639POPC   C2B19666   8.333   1.496  17.441  0.3074  0.1461 -0.2200
 1639POPC   C3B19667   8.388   1.070  17.183 -0.0281  0.0312 -0.2007
 1639POPC   C4B19668   8.432   0.686  16.984 -0.0822 -0.0872  0.1071
 1640POPC   NC319669  15.154   0.564  20.473 -0.0863  0.2868 -0.2153
 1640POPC   PO419670  15.018   0.238  20.649  0.1256 -0.0890 -0.6039
 1640POPC   GL119671  14.804   0.173  20.269  0.0329  0.1192  0.0735
 1640POPC   GL219672  14.949   0.324  20.054 -0.0413  0.0307  0.3002
 1640POPC   C1A19673  14.545   0.150  19.841  0.1527 -0.0339 -0.0871
 1640POPC   D2A19674  14.184  -0.067  19.611 -0.2165  0.1367  0.0712
 1640POPC   C3A19675  14.246  -0.306  19.180  0.0120  0.0357  0.3956
 1640POPC   C4A19676  14.242  -0.421  18.726  0.0908 -0.0387 -0.1373
 1640POPC   C1B19677  15.014   0.062  19.689  0.1196 -0.0100  0.0079
 1640POPC   C2B19678  15.044  -0.052  19.237  0.2420  0.2784 -0.0199
 1640POPC   C3B19679  14.723  -0.182  18.905 -0.2660  0.0488 -0.2461
 1640POPC   C4B19680  14.788  -0.417  18.436 -0.1184 -0.1897  0.4266
 1641POPC   NC319681  11.889  10.128  20.160  0.2558 -0.1424  0.1353
 1641POPC   PO419682  11.602   9.867  20.058  0.0092  0.4198 -0.1281
 1641POPC   GL119683  11.743   9.891  19.711  0.1802 -0.3206  0.4645
 1641POPC   GL219684  11.468   9.826  19.593  0.0534 -0.0852 -0.0630
 1641POPC   C1A19685  11.981   9.888  19.318 -0.1836  0.0174  0.1470
 1641POPC   D2A19686  12.196   9.687  18.990 -0.0088 -0.0453 -0.1716
 1641POPC   C3A19687  12.182   9.857  18.549  0.2393  0.1907 -0.1015
 1641POPC   C4A19688  12.357   9.983  18.164 -0.0442 -0.1290  0.0330
 1641POPC   C1B19689  11.363   9.868  19.157  0.2243 -0.1450  0.2529
 1641POPC   C2B19690  11.662   9.901  18.779  0.1498  0.1475 -0.0815
 1641POPC   C3B19691  11.825  10.217  18.478 -0.0444 -0.1242 -0.0463
 1641POPC   C4B19692  12.234  10.448  18.396  0.0503  0.2061 -0.0307
 1642POPC   NC319693   6.352   0.380  19.347  0.0320 -0.0808 -0.0271
 1642POPC   PO419694   6.617   0.482  19.642 -0.0657 -0.1062  0.0662
 1642POPC   GL119695   6.858   0.204  19.405  0.1676 -0.0391 -0.4637
 1642POPC   GL219696   6.711  -0.124  19.377 -0.0889  0.0989 -0.1477
 1642POPC   C1A19697   7.310   0.231  19.257  0.0019  0.1721  0.0518
 1642POPC   D2A19698   7.717   0.371  19.033 -0.1555  0.1756  0.4177
 1642POPC   C3A19699   7.758   0.156  18.643  0.3094  0.0057 -0.1177
 1642POPC   C4A19700   7.750   0.457  18.315  0.1019 -0.3584 -0.0141
 1642POPC   C1B19701   6.599   0.070  18.993  0.1700  0.0567  0.0352
 1642POPC   C2B19702   6.284   0.351  18.848  0.1753  0.3087 -0.2218
 1642POPC   C3B19703   6.123   0.322  18.442  0.0011 -0.0765  0.1411
 1642POPC   C4B19704   6.259   0.172  18.027  0.1427 -0.3426 -0.2223
 1643POPC   NC319705  10.151  14.367  20.752 -0.0655  0.1607  0.1583
 1643POPC   PO419706  10.175  14.235  20.373 -0.1068  0.0512  0.2516
 1643POPC   GL119707  10.224  14.164  20.046 -0.1190  0.2983 -0.1868
 1643POPC   GL219708  10.472  14.215  19.860 -0.2515 -0.3252 -0.2040
 1643POPC   C1A19709  10.073  14.436  19.709 -0.0118 -0.0266  0.1390
 1643POPC   D2A19710  10.180  14.747  19.330 -0.3035 -0.0937 -0.2615
 1643POPC   C3A19711  10.372  14.780  18.924 -0.3230  0.2399 -0.1449
 1643POPC   C4A19712  10.635  14.694  18.585  0.0334  0.0855  0.1043
 1643POPC   C1B19713  10.444  14.309  19.397 -0.1361 -0.3758  0.1280
 1643POPC   C2B19714  10.628  14.294  18.989 -0.1399 -0.0918  0.1222
 1643POPC   C3B19715  10.851  14.150  18.608  0.0200  0.2437  0.0716
 1643POPC   C4B19716  10.977  13.795  18.378 -0.0891  0.0038  0.2244
 1644POPC   NC319717   0.779  32.528  20.792 -0.0912 -0.3388  0.0905
 1644POPC   PO419718   0.946  32.235  20.584  0.1616  0.0085  0.1434
 1644POPC   GL119719   1.017  32.380  20.232 -0.3481  0.0574 -0.1502
 1644POPC   GL219720   0.814  32.641  20.273 -0.1998 -0.1498 -0.2399
 1644POPC   C1A19721   1.213  32.149  19.896  0.0302  0.0005 -0.0599
 1644POPC   D2A19722   1.377  32.306  19.449 -0.0811 -0.0411  0.1076
 1644POPC   C3A19723   1.414  32.218  19.073 -0.3109  0.0131 -0.0606
 1644POPC   C4A19724   1.432  31.985  18.623 -0.2409  0.0933  0.3021
 1644POPC   C1B19725   1.063  32.674  19.883 -0.1658  0.1468  0.0593
 1644POPC   C2B19726   0.870  32.403  19.476 -0.0370 -0.2629  0.0478
 1644POPC   C3B19727   0.905  32.156  19.146  0.1601  0.2155  0.0755
 1644POPC   C4B19728   0.635  31.947  18.817 -0.1548  0.1088 -0.1202
 1645POPC   NC319729   0.721   8.509  19.781 -0.0743 -0.1149  0.0097
 1645POPC   PO419730   0.337   8.437  19.808 -0.1258  0.1564  0.1638
 1645POPC   GL119731   0.307   8.588  19.491  0.1494 -0.1055  0.3947
 1645POPC   GL219732   0.033   8.648  19.497 -0.0955  0.5211 -0.1981
 1645POPC   C1A19733   0.456   8.435  19.089  0.2338  0.0855  0.0553
 1645POPC   D2A19734   0.654   8.558  18.650 -0.1042  0.0468  0.0650
 1645POPC   C3A19735   0.886   8.925  18.558  0.1262  0.1827  0.1234
 1645POPC   C4A19736   1.135   9.278  18.435 -0.0747 -0.2646  0.0460
 1645POPC   C1B19737   0.069   8.811  19.068  0.0458 -0.1153 -0.1602
 1645POPC   C2B19738   0.177   8.976  18.670  0.1098 -0.0349  0.1236
 1645POPC   C3B19739   0.468   8.841  18.325  0.5576 -0.2785 -0.0031
 1645POPC   C4B19740   0.781   8.562  18.119  0.0150 -0.1013 -0.0906
 1646POPC   NC319741   0.791   9.068  20.340  0.3165 -0.2002  0.2778
 1646POPC   PO419742   0.913   8.889  20.021 -0.1965 -0.2226 -0.0841
 1646POPC   GL119743   0.780   9.162  19.749  0.0644 -0.1465  0.0680
 1646POPC   GL219744   0.879   9.045  19.447 -0.2431  0.0015 -0.0288
 1646POPC   C1A19745   0.796   9.530  19.450  0.4800  0.2849  0.2578
 1646POPC   D2A19746   1.015   9.779  19.111  0.2137 -0.1574 -0.0229
 1646POPC   C3A19747   1.275   9.722  18.735  0.1236  0.2012 -0.3810
 1646POPC   C4A19748   1.569   9.610  18.454 -0.0074 -0.0281  0.0076
 1646POPC   C1B19749   1.085   8.809  19.044  0.2919 -0.2437  0.3007
 1646POPC   C2B19750   1.417   8.862  18.687 -0.0705  0.0635  0.3968
 1646POPC   C3B19751   1.592   9.082  18.343 -0.0006  0.0591  0.1199
 1646POPC   C4B19752   1.939   9.361  18.172 -0.1366  0.1309 -0.1014
 1647POPC   NC319753   3.488  13.252  20.937  0.0399 -0.2130 -0.1245
 1647POPC   PO419754   3.132  13.171  20.891  0.2807  0.3547 -0.1087
 1647POPC   GL119755   3.233  13.137  20.539 -0.0131  0.1115 -0.1781
 1647POPC   GL219756   3.465  13.273  20.397 -0.2620 -0.0089 -0.1484
 1647POPC   C1A19757   3.138  12.818  20.198 -0.0131  0.2917  0.0117
 1647POPC   D2A19758   3.073  12.449  19.921 -0.1434 -0.1109 -0.2160
 1647POPC   C3A19759   3.051  12.654  19.539  0.2664  0.4070  0.4040
 1647POPC   C4A19760   2.791  12.739  19.097  0.4128 -0.0537  0.4453
 1647POPC   C1B19761   3.112  13.451  20.145 -0.0260  0.0439  0.0011
 1647POPC   C2B19762   3.022  13.592  19.706  0.1188 -0.0930 -0.0227
 1647POPC   C3B19763   3.221  13.669  19.308  0.2859  0.2415 -0.1271
 1647POPC   C4B19764   3.482  13.571  19.028 -0.0760  0.0617 -0.0873
 1648POPC   NC319765   5.115  13.045  20.260  0.1463 -0.2020  0.0417
 1648POPC   PO419766   4.896  12.772  20.370  0.0991 -0.2336  0.1649
 1648POPC   GL119767   4.838  12.659  19.942  0.1381  0.0737 -0.3871
 1648POPC   GL219768   4.996  12.504  19.892  0.1491  0.4704 -0.1425
 1648POPC   C1A19769   4.654  12.981  19.680 -0.1910 -0.2127  0.3448
 1648POPC   D2A19770   4.374  13.200  19.337 -0.1632  0.0358 -0.0025
 1648POPC   C3A19771   4.537  13.591  19.138  0.2097  0.0265 -0.3745
 1648POPC   C4A19772   4.860  13.879  19.036  0.0648 -0.1894  0.1036
 1648POPC   C1B19773   4.901  12.529  19.461 -0.0128 -0.1591 -0.1069
 1648POPC   C2B19774   4.719  12.854  19.126 -0.1015 -0.0361 -0.2749
 1648POPC   C3B19775   4.486  13.009  18.757  0.0968  0.2259 -0.0347
 1648POPC   C4B19776   4.223  13.204  18.477 -0.1538  0.1898  0.2125
 1649POPC   NC319777  14.129   1.486  19.776  0.1353 -0.2003  0.4731
 1649POPC   PO419778  14.155   1.314  20.140 -0.1241 -0.3562 -0.4444
 1649POPC   GL119779  14.113   1.008  19.896 -0.1735  0.4077  0.0729
 1649POPC   GL219780  14.228   0.759  19.868  0.1423 -0.2789  0.0205
 1649POPC   C1A19781  14.220   1.070  19.443  0.2015  0.1528 -0.2389
 1649POPC   D2A19782  14.421   1.234  19.068 -0.1184 -0.0323 -0.0431
 1649POPC   C3A19783  14.322   1.025  18.619  0.1694  0.2505  0.0711
 1649POPC   C4A19784  14.146   0.584  18.528 -0.1298  0.0700 -0.3056
 1649POPC   C1B19785  14.247   0.560  19.430 -0.1457  0.0040  0.2491
 1649POPC   C2B19786  14.190   0.249  19.074  0.0775  0.0900 -0.0200
 1649POPC   C3B19787  14.367   0.129  18.662  0.1352  0.3308  0.7170
 1649POPC   C4B19788  14.410  -0.142  18.283  0.1951 -0.1721 -0.1527
 1650POPC   NC319789   0.806   6.660  19.973  0.1491 -0.0724 -0.0474
 1650POPC   PO419790   1.098   6.909  19.961 -0.2054 -0.0627 -0.0137
 1650POPC   GL119791   1.056   6.832  19.602  0.0539  0.1184  0.1306
 1650POPC   GL219792   0.779   7.020  19.583 -0.0858 -0.4480 -0.0773
 1650POPC   C1A19793   1.396   6.966  19.260  0.3674  0.0047 -0.0309
 1650POPC   D2A19794   1.506   7.390  19.101  0.1906  0.1296  0.0295
 1650POPC   C3A19795   1.799   7.302  18.747 -0.1573 -0.0964 -0.1321
 1650POPC   C4A19796   2.263   7.280  18.732  0.4248  0.1236  0.0356
 1650POPC   C1B19797   1.077   7.305  19.381 -0.0920 -0.1663 -0.1708
 1650POPC   C2B19798   0.994   7.420  18.953 -0.2147  0.0845 -0.1922
 1650POPC   C3B19799   0.911   7.450  18.498 -0.1447 -0.0371 -0.3395
 1650POPC   C4B19800   0.730   7.597  18.097 -0.0187 -0.0912 -0.1025
 1651POPC   NC319801  11.199  16.737  19.595  0.0884  0.3818  0.1413
 1651POPC   PO419802  11.087  16.376  19.590  0.0652  0.2379 -0.0902
 1651POPC   GL119803  11.103  16.169  19.290 -0.1026 -0.0171  0.3096
 1651POPC   GL219804  10.992  15.929  19.194  0.0378 -0.1148 -0.1915
 1651POPC   C1A19805  11.468  15.894  19.153  0.3155 -0.2646  0.0953
 1651POPC   D2A19806  11.912  15.891  18.950 -0.2236 -0.2614  0.1265
 1651POPC   C3A19807  12.119  16.072  18.539  0.2201  0.0413  0.2175
 1651POPC   C4A19808  12.290  15.950  18.114  0.0845  0.1294  0.1350
 1651POPC   C1B19809  10.710  15.644  18.912 -0.1162  0.2428 -0.0148
 1651POPC   C2B19810  10.544  15.516  18.520 -0.0134 -0.0500  0.0221
 1651POPC   C3B19811  10.445  15.601  18.094  0.2585  0.2368  0.2241
 1651POPC   C4B19812  10.022  15.744  17.999  0.1119 -0.1644 -0.0851
 1652POPC   NC319813  14.829   3.039  19.536 -0.0153 -0.0524 -0.1258
 1652POPC   PO419814  14.614   2.717  19.621 -0.3368  0.0192 -0.0671
 1652POPC   GL119815  14.638   2.579  19.246 -0.1759  0.2179  0.4120
 1652POPC   GL219816  14.919   2.579  19.098  0.2090 -0.4534 -0.1410
 1652POPC   C1A19817  14.457   2.379  18.898 -0.1284  0.0028 -0.2156
 1652POPC   D2A19818  14.495   2.327  18.437 -0.3186 -0.0439 -0.1879
 1652POPC   C3A19819  14.848   2.035  18.342  0.2004 -0.1284  0.1363
 1652POPC   C4A19820  15.111   1.697  18.202 -0.0580 -0.0753 -0.2379
 1652POPC   C1B19821  14.940   2.579  18.626 -0.0814 -0.0842 -0.1040
 1652POPC   C2B19822  15.150   2.384  18.276 -0.0576  0.3162  0.4837
 1652POPC   C3B19823  15.297   2.071  17.929 -0.1671  0.0408 -0.1007
 1652POPC   C4B19824  15.082   1.938  17.500  0.1336 -0.0919 -0.1831
 1653POPC   NC319825   6.820  12.939  20.367 -0.0444  0.1651  0.0726
 1653POPC   PO419826   6.508  13.187  20.291 -0.2792  0.3951  0.0350
 1653POPC   GL119827   6.549  12.988  19.931 -0.0298 -0.2601  0.2521
 1653POPC   GL219828   6.615  13.112  19.662  0.0512  0.0006 -0.4464
 1653POPC   C1A19829   6.309  12.636  19.641  0.1345 -0.2174  0.4801
 1653POPC   D2A19830   6.091  12.245  19.570  0.1968 -0.0678 -0.0717
 1653POPC   C3A19831   6.194  12.149  19.120 -0.0590  0.0835 -0.2339
 1653POPC   C4A19832   6.209  11.918  18.713  0.2166 -0.4074  0.2914
 1653POPC   C1B19833   6.618  13.004  19.234 -0.0828 -0.0062 -0.3540
 1653POPC   C2B19834   6.811  12.926  18.808 -0.1124 -0.0222  0.4097
 1653POPC   C3B19835   7.185  13.164  18.611 -0.0775  0.0830  0.2086
 1653POPC   C4B19836   7.237  13.428  18.215 -0.0868 -0.1416 -0.2243
 1654POPC   NC319837  12.248   9.046  19.907 -0.1990  0.0327 -0.0329
 1654POPC   PO419838  12.320   9.244  20.244 -0.1756 -0.0289 -0.2784
 1654POPC   GL119839  12.478   9.481  19.926 -0.1431 -0.1213  0.1516
 1654POPC   GL219840  12.744   9.674  20.037  0.1297 -0.0999 -0.0516
 1654POPC   C1A19841  12.272   9.512  19.524  0.0877  0.2683 -0.3663
 1654POPC   D2A19842  11.851   9.351  19.368 -0.2262 -0.2706 -0.0195
 1654POPC   C3A19843  11.754   9.449  18.918 -0.0936  0.0482  0.1229
 1654POPC   C4A19844  11.457   9.410  18.536 -0.1178 -0.1445 -0.0487
 1654POPC   C1B19845  12.735   9.617  19.596 -0.3651  0.0784  0.3206
 1654POPC   C2B19846  12.698   9.852  19.158  0.1416 -0.1784  0.1178
 1654POPC   C3B19847  12.984   9.979  18.787 -0.0085  0.0224  0.3218
 1654POPC   C4B19848  13.087  10.227  18.423  0.0471  0.1286 -0.0963
 1655POPC   NC319849  13.120   6.379  18.812  0.1992 -0.1734 -0.0886
 1655POPC   PO419850  13.160   6.549  19.111 -0.2139  0.0928 -0.2639
 1655POPC   GL119851  13.521   6.647  18.950 -0.0826  0.4861  0.1514
 1655POPC   GL219852  13.633   6.830  18.992 -0.2688 -0.1474  0.1028
 1655POPC   C1A19853  13.744   6.554  18.528  0.2356 -0.0985 -0.0800
 1655POPC   D2A19854  14.006   6.212  18.304  0.2644  0.3049  0.1706
 1655POPC   C3A19855  13.968   6.139  17.880  0.1022  0.2731 -0.1179
 1655POPC   C4A19856  14.228   6.348  17.474 -0.1076  0.0920 -0.1357
 1655POPC   C1B19857  13.380   6.910  18.583  0.2196  0.0668  0.1411
 1655POPC   C2B19858  13.154   7.066  18.216 -0.0680 -0.3875  0.1669
 1655POPC   C3B19859  12.973   7.362  17.878 -0.0464 -0.0328  0.2032
 1655POPC   C4B19860  12.700   7.635  17.678  0.1053 -0.1102 -0.4126
 1656POPC   NC319861   7.232   1.156  19.155 -0.1615 -0.2030  0.1570
 1656POPC   PO419862   7.125   0.979  19.494 -0.0626 -0.3234 -0.0949
 1656POPC   GL119863   7.006   0.641  19.320 -0.1039  0.1826  0.2789
 1656POPC   GL219864   7.189   0.681  19.111  0.1386  0.2249 -0.0103
 1656POPC   C1A19865   6.781   0.547  18.900  0.2438  0.1635  0.1512
 1656POPC   D2A19866   6.718   0.328  18.562 -0.2326 -0.2912  0.2051
 1656POPC   C3A19867   6.919  -0.052  18.522  0.1251  0.2590 -0.0786
 1656POPC   C4A19868   7.039  -0.452  18.407  0.2161  0.2021 -0.0689
 1656POPC   C1B19869   7.230   0.291  18.758  0.3698 -0.0987 -0.3980
 1656POPC   C2B19870   7.311   0.204  18.296  0.1530  0.2324  0.0808
 1656POPC   C3B19871   7.540   0.170  17.907  0.1254 -0.0923 -0.1021
 1656POPC   C4B19872   7.809   0.079  17.485 -0.3717  0.3746  0.1194
 1657POPC   NC319873   2.544  15.785  20.939 -0.1310  0.0576 -0.3209
 1657POPC   PO419874   2.838  15.974  20.793 -0.1426 -0.0855 -0.0063
 1657POPC   GL119875   2.944  15.694  20.544 -0.5593  0.4771 -0.2162
 1657POPC   GL219876   2.924  15.839  20.259 -0.0175  0.0469 -0.1084
 1657POPC   C1A19877   2.765  15.370  20.256 -0.1587 -0.0896  0.2358
 1657POPC   D2A19878   2.333  15.119  20.118  0.0463 -0.0563 -0.0261
 1657POPC   C3A19879   2.231  14.976  19.703  0.3051  0.1470 -0.3109
 1657POPC   C4A19880   2.480  14.928  19.358  0.1172  0.1618  0.0342
 1657POPC   C1B19881   2.869  15.800  19.834 -0.0429  0.1319 -0.0298
 1657POPC   C2B19882   2.766  15.732  19.353 -0.2124 -0.2378  0.1345
 1657POPC   C3B19883   2.657  15.835  18.858  0.2572  0.0664  0.0616
 1657POPC   C4B19884   2.519  15.779  18.407 -0.1328  0.0294  0.1543
 1658POPC   NC319885   7.516  11.133  20.443  0.0741 -0.1473 -0.1787
 1658POPC   PO419886   7.224  10.901  20.286  0.0039  0.3572  0.2330
 1658POPC   GL119887   7.115  10.832  19.930  0.0450 -0.0249  0.0737
 1658POPC   GL219888   6.843  10.819  19.882  0.0224  0.0610  0.3441
 1658POPC   C1A19889   7.239  10.661  19.511  0.2592 -0.2405  0.3283
 1658POPC   D2A19890   7.563  10.534  19.204 -0.0371 -0.1392 -0.0387
 1658POPC   C3A19891   7.694  10.848  18.903 -0.0699 -0.2469  0.2363
 1658POPC   C4A19892   7.607  11.233  18.644 -0.1709  0.2559 -0.3780
 1658POPC   C1B19893   6.745  11.008  19.394 -0.0134  0.0962 -0.0334
 1658POPC   C2B19894   6.791  11.183  18.978 -0.1152  0.2550 -0.3200
 1658POPC   C3B19895   6.525  11.211  18.602  0.1060  0.0166  0.0467
 1658POPC   C4B19896   6.247  11.519  18.398 -0.1225 -0.4655 -0.1188
 1659POPC   NC319897   8.817   8.064  18.177 -0.0203 -0.0362 -0.1200
 1659POPC   PO419898   8.590   8.323  18.062 -0.1897 -0.0733  0.1397
 1659POPC   GL119899   8.880   8.493  17.981 -0.0753  0.1487  0.0335
 1659POPC   GL219900   8.736   8.655  17.760 -0.2369  0.1381  0.0067
 1659POPC   C1A19901   9.209   8.843  17.993  0.1731  0.3238  0.0431
 1659POPC   D2A19902   9.525   8.977  18.204  0.0465  0.1370  0.1136
 1659POPC   C3A19903   9.980   9.184  18.161  0.1298  0.0005  0.1573
 1659POPC   C4A19904  10.224   9.213  17.723  0.1086  0.2905  0.1228
 1659POPC   C1B19905   8.782   9.076  17.946  0.0329 -0.0083 -0.6628
 1659POPC   C2B19906   8.704   9.479  17.944  0.1725  0.0628 -0.0888
 1659POPC   C3B19907   8.724   9.711  17.541  0.2464 -0.1180 -0.0890
 1659POPC   C4B19908   8.876   9.939  17.188 -0.1723  0.3209  0.0558
 1660POPC   NC319909   6.143   6.246  18.047  0.0961 -0.2186  0.3064
 1660POPC   PO419910   6.500   6.124  17.950  0.2227  0.0552  0.1719
 1660POPC   GL119911   6.326   6.299  17.562 -0.1145  0.2848 -0.0671
 1660POPC   GL219912   6.139   6.062  17.588  0.1093 -0.1613 -0.0334
 1660POPC   C1A19913   6.215   6.752  17.485  0.1712 -0.0385  0.0343
 1660POPC   D2A19914   5.941   7.135  17.447  0.1474  0.2616  0.1405
 1660POPC   C3A19915   5.466   7.196  17.404 -0.0660  0.2220  0.2829
 1660POPC   C4A19916   5.038   7.229  17.505 -0.2908  0.1560  0.2120
 1660POPC   C1B19917   5.804   6.173  17.243  0.0802  0.1328 -0.3946
 1660POPC   C2B19918   5.563   5.935  16.902  0.1099  0.4019 -0.0279
 1660POPC   C3B19919   5.190   5.668  16.825  0.1332  0.1919 -0.2501
 1660POPC   C4B19920   4.774   5.458  16.799  0.0771 -0.1803  0.1247
 1661POPC   NC319921   8.057  13.311  20.032  0.0705 -0.1413 -0.0985
 1661POPC   PO419922   8.236  13.154  20.336 -0.1480  0.1665 -0.0190
 1661POPC   GL119923   8.215  12.849  19.919  0.0257  0.0568 -0.4699
 1661POPC   GL219924   8.018  12.655  19.800  0.1959  0.0208 -0.2314
 1661POPC   C1A19925   8.380  12.733  19.499  0.1706 -0.4670  0.0696
 1661POPC   D2A19926   8.652  12.634  19.164  0.3841  0.1363 -0.0915
 1661POPC   C3A19927   8.833  13.015  19.273 -0.0879 -0.1516 -0.5808
 1661POPC   C4A19928   9.276  13.210  19.191  0.2423 -0.0392  0.1369
 1661POPC   C1B19929   8.038  13.082  19.578 -0.2652  0.1275 -0.0718
 1661POPC   C2B19930   7.873  13.263  19.171 -0.0287  0.1994 -0.2840
 1661POPC   C3B19931   7.682  13.102  18.827  0.1508  0.2351  0.2510
 1661POPC   C4B19932   7.908  12.747  18.527 -0.1180 -0.0090 -0.2085
 1662POPC   NC319933   7.962   4.316  15.831 -0.3942  0.0814 -0.1731
 1662POPC   PO419934   8.015   4.067  16.156 -0.1368 -0.2988 -0.3727
 1662POPC   GL119935   7.880   3.756  16.059 -0.1598  0.3214 -0.3346
 1662POPC   GL219936   7.805   3.630  16.295  0.0887  0.1378  0.2348
 1662POPC   C1A19937   7.625   3.573  15.726  0.0959 -0.0102  0.6600
 1662POPC   D2A19938   7.423   3.705  15.257 -0.2932  0.0384 -0.0697
 1662POPC   C3A19939   7.280   3.271  15.041 -0.3863  0.1341 -0.0746
 1662POPC   C4A19940   7.046   3.176  14.660  0.1754  0.3409  0.1669
 1662POPC   C1B19941   8.106   3.369  16.027 -0.3385 -0.0628 -0.1313
 1662POPC   C2B19942   8.173   2.992  15.764 -0.0747 -0.1754 -0.1223
 1662POPC   C3B19943   7.974   2.779  15.433  0.0362  0.1311  0.1442
 1662POPC   C4B19944   8.091   2.629  15.008 -0.1148 -0.0879 -0.4254
 1663POPC   NC319945  12.901   6.877  18.752  0.1898  0.0527 -0.3070
 1663POPC   PO419946  12.618   6.640  18.694 -0.0612 -0.0082 -0.0861
 1663POPC   GL119947  12.699   6.589  18.396  0.0228 -0.2387  0.0126
 1663POPC   GL219948  12.959   6.478  18.344 -0.0400 -0.0718  0.1563
 1663POPC   C1A19949  12.785   6.836  18.031  0.0450  0.2095 -0.1151
 1663POPC   D2A19950  13.179   6.820  17.794 -0.1891 -0.0512  0.0973
 1663POPC   C3A19951  13.385   7.047  17.431 -0.2445 -0.1755  0.1162
 1663POPC   C4A19952  13.712   6.967  17.082  0.0238 -0.0724 -0.0412
 1663POPC   C1B19953  13.370   6.532  18.185 -0.0300  0.0778 -0.3071
 1663POPC   C2B19954  13.640   6.850  18.049  0.3318 -0.2391 -0.1268
 1663POPC   C3B19955  13.913   7.113  17.744 -0.0473 -0.1381 -0.1744
 1663POPC   C4B19956  14.049   7.352  17.370 -0.0087 -0.3069 -0.5127
 1664POPC   NC319957   9.123   7.593  16.961  0.3227 -0.3036  0.1132
 1664POPC   PO419958   8.950   7.503  17.299  0.3220  0.0177  0.2724
 1664POPC   GL119959   8.838   7.833  17.226 -0.3110 -0.0413  0.1135
 1664POPC   GL219960   9.121   7.975  17.251 -0.3727 -0.0757 -0.2990
 1664POPC   C1A19961   8.509   8.159  17.083 -0.1299  0.3581 -0.1468
 1664POPC   D2A19962   8.445   8.527  16.785  0.1016 -0.0409 -0.2665
 1664POPC   C3A19963   8.138   8.831  16.671 -0.1484 -0.0584  0.4009
 1664POPC   C4A19964   7.786   9.098  16.548 -0.2434  0.3818  0.1644
 1664POPC   C1B19965   9.034   8.189  16.898 -0.0880  0.2747 -0.0033
 1664POPC   C2B19966   8.910   8.429  16.518 -0.2643  0.2943 -0.2952
 1664POPC   C3B19967   8.962   8.762  16.168  0.1795 -0.0012 -0.1705
 1664POPC   C4B19968   8.899   9.215  16.157  0.1533 -0.1398 -0.0734
 1665POPC   NC319969  15.631   8.460  20.249 -0.1164  0.0481 -0.1258
 1665POPC   PO419970  15.946   8.290  20.120 -0.4152 -0.0505  0.1027
 1665POPC   GL119971  16.172   8.380  19.761  0.1373  0.1271 -0.1178
 1665POPC   GL219972  16.370   8.161  19.709  0.0857  0.1572 -0.0170
 1665POPC   C1A19973  15.943   8.506  19.374  0.0695  0.0463 -0.3059
 1665POPC   D2A19974  15.914   8.804  19.002 -0.2740 -0.3846 -0.2968
 1665POPC   C3A19975  16.130   8.833  18.627 -0.0619  0.0457 -0.3101
 1665POPC   C4A19976  16.423   8.557  18.415 -0.1330  0.1440 -0.2017
 1665POPC   C1B19977  16.155   7.860  19.394  0.0980 -0.2089  0.1033
 1665POPC   C2B19978  16.149   7.860  18.916  0.1078 -0.0327 -0.2569
 1665POPC   C3B19979  16.351   8.011  18.498 -0.0051  0.1624 -0.2119
 1665POPC   C4B19980  16.380   8.185  18.094 -0.2781  0.2205 -0.4495
 1666POPC   NC319981   9.369   8.344  18.175  0.2309  0.0124 -0.0528
 1666POPC   PO419982   9.312   7.999  17.979 -0.0630  0.0057  0.0064
 1666POPC   GL119983   9.232   8.305  17.759  0.1169  0.0490  0.1716
 1666POPC   GL219984   8.982   8.188  17.668  0.2359  0.2254  0.0798
 1666POPC   C1A19985   9.330   8.690  17.513 -0.0456 -0.1155 -0.2100
 1666POPC   D2A19986   9.443   9.046  17.289 -0.0465  0.3482  0.0413
 1666POPC   C3A19987   9.488   9.162  16.858 -0.0182  0.1906 -0.2638
 1666POPC   C4A19988   9.135   9.363  16.609 -0.0056  0.1552 -0.0818
 1666POPC   C1B19989   8.960   8.472  17.299 -0.1353  0.1354 -0.1049
 1666POPC   C2B19990   8.982   8.844  17.027  0.0769  0.0358 -0.0329
 1666POPC   C3B19991   8.747   8.919  16.595  0.1200  0.3775  0.1104
 1666POPC   C4B19992   8.370   9.100  16.317  0.5670 -0.1800 -0.1936
 1667POPC   NC319993  11.747  13.667  20.853  0.2041 -0.1088 -0.1025
 1667POPC   PO419994  12.140  13.797  20.815 -0.1665 -0.2665 -0.3336
 1667POPC   GL119995  12.288  13.570  20.552 -0.1466  0.2141  0.1066
 1667POPC   GL219996  12.461  13.722  20.409 -0.0219  0.3373  0.0100
 1667POPC   C1A19997  12.484  13.201  20.331 -0.1841 -0.1237  0.0485
 1667POPC   D2A19998  12.612  12.834  20.101  0.0447  0.3634  0.1489
 1667POPC   C3A19999  12.631  12.751  19.622 -0.0497 -0.3091  0.2532
 1667POPC   C4A20000  12.548  13.059  19.333 -0.1625  0.4623 -0.2334
 1667POPC   C1B20001  12.805  13.788  20.075  0.3513 -0.3501 -0.0098
 1667POPC   C2B20002  12.775  14.100  19.691 -0.0894 -0.0982 -0.3391
 1667POPC   C3B20003  12.934  14.388  19.334 -0.1678  0.0532  0.1404
 1667POPC   C4B20004  12.985  14.257  18.912 -0.1330 -0.2400  0.0961
 1668POPC   NC320005  15.168   9.130  20.489 -0.0716  0.1331 -0.1443
 1668POPC   PO420006  15.351   9.370  20.210  0.1408 -0.1560 -0.1019
 1668POPC   GL120007  15.168   9.119  19.860 -0.0609  0.3739 -0.0467
 1668POPC   GL220008  14.939   8.975  19.735  0.1514 -0.2840 -0.1357
 1668POPC   C1A20009  15.296   9.201  19.413  0.0550  0.1791 -0.2526
 1668POPC   D2A20010  15.250   9.187  18.935 -0.1928 -0.1749 -0.0679
 1668POPC   C3A20011  15.518   8.946  18.650  0.0504 -0.0670  0.2606
 1668POPC   C4A20012  15.804   8.947  18.257 -0.1372  0.2545  0.3539
 1668POPC   C1B20013  14.761   9.365  19.518 -0.0231  0.1954  0.0923
 1668POPC   C2B20014  14.569   9.740  19.358  0.2556 -0.0550  0.0252
 1668POPC   C3B20015  14.419   9.921  18.969 -0.1952 -0.0739  0.0229
 1668POPC   C4B20016  13.922  10.019  18.922  0.0823  0.0694 -0.0477
 1669POPC   NC320017   3.619  14.774  20.808 -0.0530  0.3001 -0.3005
 1669POPC   PO420018   3.253  14.831  21.028 -0.1233 -0.0567  0.0970
 1669POPC   GL120019   3.055  14.909  20.755 -0.1086  0.1231  0.2856
 1669POPC   GL220020   3.097  14.654  20.573  0.2144  0.2232 -0.1459
 1669POPC   C1A20021   3.345  14.973  20.366  0.1295  0.1462 -0.4482
 1669POPC   D2A20022   3.652  15.135  20.063  0.1615 -0.7042  0.2113
 1669POPC   C3A20023   3.752  14.890  19.686  0.0347 -0.2085  0.0048
 1669POPC   C4A20024   3.730  14.440  19.483 -0.0705  0.2122  0.1896
 1669POPC   C1B20025   2.884  14.928  20.173  0.0234  0.4610 -0.1063
 1669POPC   C2B20026   2.730  14.912  19.768  0.1182  0.1985 -0.2137
 1669POPC   C3B20027   2.944  15.101  19.356  0.2525  0.1287  0.0498
 1669POPC   C4B20028   2.863  15.303  18.955 -0.3689 -0.3009  0.0430
 1670POPC   NC320029   9.336   6.137  13.531  0.3804 -0.0329  0.0382
 1670POPC   PO420030   8.969   6.159  13.332  0.1027  0.1340 -0.2445
 1670POPC   GL120031   8.695   6.375  13.228  0.1022 -0.0225 -0.2922
 1670POPC   GL220032   8.745   6.558  13.413  0.1416  0.0162  0.1953
 1670POPC   C1A20033   8.639   6.672  12.809  0.0598 -0.1425  0.3597
 1670POPC   D2A20034   8.561   7.088  12.574 -0.1390  0.0748 -0.0306
 1670POPC   C3A20035   8.655   7.462  12.400  0.1949 -0.3377 -0.2004
 1670POPC   C4A20036   9.008   7.795  12.383  0.1326  0.1612 -0.2182
 1670POPC   C1B20037   8.421   6.863  13.207  0.1787 -0.1770  0.0945
 1670POPC   C2B20038   8.043   7.050  12.970  0.3619  0.1316 -0.1498
 1670POPC   C3B20039   7.723   7.226  12.681  0.2189 -0.3513  0.2400
 1670POPC   C4B20040   7.480   7.419  12.370 -0.0150  0.1455 -0.3714
 1671POPC   NC320041  12.177   2.666  18.008 -0.2658  0.0668 -0.0444
 1671POPC   PO420042  11.833   2.689  17.904  0.1206 -0.2955 -0.0101
 1671POPC   GL120043  11.823   2.454  17.614 -0.5054 -0.1797 -0.1219
 1671POPC   GL220044  12.090   2.308  17.585  0.0120  0.1015 -0.0903
 1671POPC   C1A20045  11.823   2.253  17.160 -0.1333  0.0750 -0.1282
 1671POPC   D2A20046  11.993   2.532  16.816 -0.1601  0.3008  0.5572
 1671POPC   C3A20047  12.372   2.325  16.631 -0.4415 -0.3305 -0.1859
 1671POPC   C4A20048  12.562   2.040  16.976  0.0197  0.2693 -0.1032
 1671POPC   C1B20049  12.287   1.926  17.370  0.0355 -0.3436 -0.2616
 1671POPC   C2B20050  12.376   1.580  17.124 -0.3645 -0.2733  0.0643
 1671POPC   C3B20051  12.259   1.121  17.115 -0.3344  0.1237 -0.0630
 1671POPC   C4B20052  11.882   0.971  16.971 -0.2815 -0.3530  0.0775
 1672POPC   NC320053  10.283   3.180  17.299 -0.0136 -0.0095  0.0622
 1672POPC   PO420054  10.531   2.910  17.463  0.2532  0.0563  0.0191
 1672POPC   GL120055  10.797   2.699  17.163 -0.0576  0.2632  0.0749
 1672POPC   GL220056  11.078   2.598  17.178  0.2225  0.0223  0.0356
 1672POPC   C1A20057  10.682   2.423  16.723 -0.0807 -0.0465  0.0235
 1672POPC   D2A20058  10.557   2.334  16.248  0.1033  0.0259 -0.0096
 1672POPC   C3A20059  10.630   2.318  15.762  0.0634 -0.0892 -0.0439
 1672POPC   C4A20060  10.429   2.333  15.319  0.1305 -0.0919  0.4422
 1672POPC   C1B20061  11.448   2.573  16.895 -0.4082 -0.1192 -0.0138
 1672POPC   C2B20062  11.672   2.627  16.463 -0.2700 -0.1795 -0.2508
 1672POPC   C3B20063  12.082   2.471  16.301  0.0769  0.2369 -0.0933
 1672POPC   C4B20064  12.455   2.473  16.051 -0.2134  0.0257 -0.0373
 1673POPC   NC320065   9.184   3.117  16.642  0.0776 -0.2649  0.0892
 1673POPC   PO420066   9.095   2.990  16.967  0.3592  0.2131  0.0074
 1673POPC   GL120067   9.013   2.693  16.701 -0.2156 -0.1109  0.0036
 1673POPC   GL220068   8.733   2.658  16.726  0.1841  0.0265 -0.0826
 1673POPC   C1A20069   9.255   2.644  16.286  0.0148  0.3784  0.1261
 1673POPC   D2A20070   9.124   2.773  15.871 -0.0367 -0.0413  0.0965
 1673POPC   C3A20071   8.818   2.487  15.596  0.1878 -0.2746 -0.1120
 1673POPC   C4A20072   8.584   2.166  15.807 -0.0115  0.0374 -0.0676
 1673POPC   C1B20073   8.369   2.411  16.568  0.0018  0.2229  0.1342
 1673POPC   C2B20074   8.119   2.226  16.211  0.2425  0.0906 -0.0443
 1673POPC   C3B20075   7.953   2.276  15.793  0.0920  0.0102  0.2872
 1673POPC   C4B20076   7.806   2.310  15.342 -0.0523 -0.0428 -0.1172
 1674POPC   NC320077   9.335   0.465  19.435 -0.2407  0.2278  0.0468
 1674POPC   PO420078   9.370   0.819  19.411 -0.2065 -0.0156  0.3166
 1674POPC   GL120079   9.569   0.750  19.053 -0.2838 -0.0078 -0.0502
 1674POPC   GL220080   9.530   0.496  18.945  0.0014 -0.2899  0.0101
 1674POPC   C1A20081   9.613   0.821  18.568  0.2877 -0.2006  0.0890
 1674POPC   D2A20082   9.442   0.709  18.143  0.1020 -0.3519  0.0156
 1674POPC   C3A20083   8.954   0.724  18.039  0.4667  0.1313  0.0409
 1674POPC   C4A20084   8.606   0.779  17.694  0.0631  0.1891 -0.0014
 1674POPC   C1B20085   9.740   0.349  18.559  0.4270 -0.0300 -0.0912
 1674POPC   C2B20086   9.564   0.165  18.141  0.0751 -0.3588 -0.1101
 1674POPC   C3B20087   9.470   0.319  17.714 -0.1661  0.1578 -0.0676
 1674POPC   C4B20088   9.265   0.115  17.381 -0.1792  0.1559  0.1076
 1675POPC   NC320089   9.835   7.589  17.923  0.0680  0.0122  0.0536
 1675POPC   PO420090  10.191   7.499  17.853 -0.0715 -0.1467  0.0881
 1675POPC   GL120091  10.386   7.766  17.618  0.0098  0.1892  0.2195
 1675POPC   GL220092  10.407   7.616  17.392  0.0092  0.2092  0.1695
 1675POPC   C1A20093  10.289   8.165  17.359 -0.1766  0.3171  0.0625
 1675POPC   D2A20094  10.007   8.289  17.036 -0.2663 -0.2283 -0.0608
 1675POPC   C3A20095  10.005   8.447  16.587 -0.1412 -0.0053 -0.0642
 1675POPC   C4A20096  10.120   8.813  16.280  0.1488  0.0394 -0.1308
 1675POPC   C1B20097  10.587   7.831  17.016 -0.1375 -0.1361  0.2249
 1675POPC   C2B20098  10.592   8.283  16.996 -0.3626  0.2343  0.0879
 1675POPC   C3B20099  10.326   8.662  16.976 -0.3171  0.1360  0.1713
 1675POPC   C4B20100  10.555   9.038  16.887 -0.0942  0.0337 -0.2196
 1676POPC   NC320101  15.863   0.021  20.410 -0.1768 -0.4752  0.0929
 1676POPC   PO420102  16.209  -0.148  20.299  0.3340  0.0243  0.4096
 1676POPC   GL120103  16.335  -0.233  19.940 -0.1195  0.1619  0.2301
 1676POPC   GL220104  16.581  -0.427  20.021 -0.0507 -0.0259 -0.1058
 1676POPC   C1A20105  16.624  -0.220  19.574  0.1225  0.0745  0.0945
 1676POPC   D2A20106  17.013  -0.032  19.256 -0.2373 -0.2833 -0.5318
 1676POPC   C3A20107  16.947   0.016  18.815 -0.1392  0.0966  0.0955
 1676POPC   C4A20108  16.898  -0.117  18.406  0.2249  0.0078  0.0132
 1676POPC   C1B20109  16.535  -0.701  19.634  0.1639  0.1817  0.1714
 1676POPC   C2B20110  16.257  -0.616  19.265 -0.2048 -0.0909  0.0859
 1676POPC   C3B20111  16.240  -0.482  18.798 -0.3122 -0.0707 -0.2128
 1676POPC   C4B20112  16.403  -0.067  18.609 -0.3736  0.0750 -0.1672
 1677POPC   NC320113  14.831  10.273  20.556 -0.2330  0.1497  0.0488
 1677POPC   PO420114  14.802  10.634  20.530  0.0473  0.0613 -0.1457
 1677POPC   GL120115  14.685  10.711  20.129 -0.2838 -0.1910  0.0136
 1677POPC   GL220116  14.784  10.528  19.905  0.0366  0.1134  0.0616
 1677POPC   C1A20117  14.729  11.091  19.823  0.3545  0.0386 -0.1611
 1677POPC   D2A20118  14.506  11.506  19.829 -0.0552  0.0479 -0.0529
 1677POPC   C3A20119  14.520  11.770  19.406 -0.0201 -0.2080 -0.2520
 1677POPC   C4A20120  14.626  11.631  18.958 -0.2317  0.2349  0.1523
 1677POPC   C1B20121  14.892  10.751  19.425 -0.1440 -0.2074  0.0244
 1677POPC   C2B20122  14.897  10.958  18.967  0.0162 -0.2447 -0.1881
 1677POPC   C3B20123  15.075  11.287  18.804 -0.0162 -0.0770  0.0536
 1677POPC   C4B20124  15.218  11.495  18.427  0.0768 -0.2721  0.1707
 1678POPC   NC320125   4.504   3.945  18.847 -0.0954 -0.1987 -0.1553
 1678POPC   PO420126   4.282   3.633  18.964  0.0077  0.1216 -0.4216
 1678POPC   GL120127   4.530   3.528  18.590  0.1514 -0.3764 -0.3905
 1678POPC   GL220128   4.245   3.497  18.432 -0.0040 -0.3009 -0.0592
 1678POPC   C1A20129   4.585   3.043  18.471 -0.0831 -0.1026 -0.0511
 1678POPC   D2A20130   4.613   2.928  18.070  0.3076 -0.2221  0.3043
 1678POPC   C3A20131   4.454   2.675  17.712 -0.0669  0.0603 -0.0902
 1678POPC   C4A20132   4.293   2.805  17.330 -0.1944  0.2858 -0.1594
 1678POPC   C1B20133   4.152   3.127  18.233  0.0176 -0.0529  0.0987
 1678POPC   C2B20134   3.995   2.845  17.899  0.4065 -0.3845 -0.4349
 1678POPC   C3B20135   3.727   2.829  17.484 -0.0676 -0.2023 -0.0322
 1678POPC   C4B20136   3.387   2.770  17.155 -0.1671  0.1745  0.2012
 1679POPC   NC320137   7.668  13.296  20.577 -0.1355  0.0058 -0.2129
 1679POPC   PO420138   7.330  13.074  20.518  0.1442  0.0588 -0.0069
 1679POPC   GL120139   7.300  13.039  20.134  0.0484 -0.2264  0.1252
 1679POPC   GL220140   7.475  13.251  20.035  0.1514 -0.1005  0.0297
 1679POPC   C1A20141   7.145  13.130  19.709  0.2218 -0.0169  0.2439
 1679POPC   D2A20142   7.127  13.104  19.257 -0.0680  0.0436 -0.2266
 1679POPC   C3A20143   7.327  13.467  19.056 -0.0556 -0.2075  0.0536
 1679POPC   C4A20144   7.523  13.587  18.608 -0.0589 -0.1265  0.0103
 1679POPC   C1B20145   7.597  13.414  19.643 -0.1488  0.1437  0.0123
 1679POPC   C2B20146   7.643  13.744  19.300  0.3262  0.1177 -0.1579
 1679POPC   C3B20147   7.611  14.012  18.896 -0.4975  0.0093 -0.0093
 1679POPC   C4B20148   7.393  14.056  18.544 -0.2478 -0.0855  0.2076
 1680POPC   NC320149   5.318  12.309  20.476 -0.2272  0.1782 -0.0541
 1680POPC   PO420150   5.369  12.714  20.536 -0.1004  0.2234 -0.0246
 1680POPC   GL120151   5.395  12.654  20.150 -0.2226  0.1603  0.1306
 1680POPC   GL220152   5.507  12.411  20.023  0.0070 -0.1790  0.3589
 1680POPC   C1A20153   5.240  12.872  19.745  0.1808  0.0899  0.0764
 1680POPC   D2A20154   5.303  12.781  19.264 -0.0508 -0.2598 -0.0599
 1680POPC   C3A20155   5.669  13.027  19.041 -0.0358  0.1818  0.2740
 1680POPC   C4A20156   5.933  13.431  19.127 -0.0230  0.3350 -0.0818
 1680POPC   C1B20157   5.583  12.522  19.596  0.0337 -0.0833  0.1701
 1680POPC   C2B20158   5.803  12.574  19.223 -0.0451 -0.1265 -0.3496
 1680POPC   C3B20159   5.943  12.551  18.788  0.2298 -0.4957 -0.2032
 1680POPC   C4B20160   6.155  12.575  18.389 -0.1021  0.1709 -0.0769
 1681POPC   NC320161   8.792   7.239  15.700 -0.0737 -0.0626 -0.0932
 1681POPC   PO420162   8.831   6.916  15.508 -0.0106 -0.2082 -0.1367
 1681POPC   GL120163   8.727   7.217  15.256  0.4980 -0.0751  0.1284
 1681POPC   GL220164   8.443   7.225  15.270 -0.2175  0.1091 -0.1795
 1681POPC   C1A20165   8.576   7.557  14.922  0.2869  0.1855 -0.0121
 1681POPC   D2A20166   8.408   7.946  14.834  0.3008  0.0440 -0.2887
 1681POPC   C3A20167   8.445   8.358  15.041  0.0773  0.0024  0.1070
 1681POPC   C4A20168   8.461   8.381  15.493 -0.1813  0.1535  0.0490
 1681POPC   C1B20169   8.283   7.691  15.246 -0.0293 -0.4504 -0.1736
 1681POPC   C2B20170   8.107   8.083  15.256  0.0465 -0.0509  0.2952
 1681POPC   C3B20171   7.881   8.283  14.850  0.1024 -0.2056 -0.0740
 1681POPC   C4B20172   7.676   8.055  14.518  0.2376  0.1440 -0.1015
 1682POPC   NC320173  10.172   1.992  18.520  0.2773 -0.1147 -0.5063
 1682POPC   PO420174  10.271   2.315  18.339 -0.1487  0.2797  0.0042
 1682POPC   GL120175  10.113   2.098  18.068  0.5095  0.1712  0.1808
 1682POPC   GL220176  10.221   2.110  17.856 -0.1646 -0.0853  0.0194
 1682POPC   C1A20177   9.859   1.730  17.872 -0.0239 -0.0323 -0.0298
 1682POPC   D2A20178   9.640   1.386  17.756 -0.1643  0.1417 -0.1499
 1682POPC   C3A20179   9.832   0.938  17.734  0.0423  0.0467 -0.1481
 1682POPC   C4A20180   9.872   0.569  17.460  0.3509  0.0815 -0.2042
 1682POPC   C1B20181  10.290   2.026  17.460  0.2009 -0.0440 -0.0592
 1682POPC   C2B20182  10.246   1.703  17.110  0.1547  0.1817  0.1960
 1682POPC   C3B20183  10.080   1.686  16.636 -0.2557  0.3594 -0.0474
 1682POPC   C4B20184   9.960   1.529  16.243  0.0263  0.1301 -0.3717
 1683POPC   NC320185   6.139   3.653  18.775  0.0822 -0.1486 -0.0129
 1683POPC   PO420186   6.027   3.940  18.530  0.0860  0.2882  0.2814
 1683POPC   GL120187   5.735   3.863  18.308 -0.0907 -0.2321  0.1249
 1683POPC   GL220188   5.572   4.093  18.307  0.0912  0.0831 -0.3800
 1683POPC   C1A20189   5.608   3.618  17.909 -0.3971 -0.0461  0.0843
 1683POPC   D2A20190   5.913   3.423  17.615  0.0910 -0.0662  0.3881
 1683POPC   C3A20191   5.835   3.501  17.106  0.1144 -0.0430 -0.0537
 1683POPC   C4A20192   5.539   3.648  16.844  0.1680 -0.0225  0.0181
 1683POPC   C1B20193   5.357   4.121  17.896 -0.1439  0.2406 -0.2272
 1683POPC   C2B20194   5.254   4.046  17.482  0.2553 -0.0369  0.2818
 1683POPC   C3B20195   5.149   3.932  17.068  0.1886 -0.0203  0.1885
 1683POPC   C4B20196   4.902   3.583  17.018 -0.0172  0.1066  0.0861
 1684POPC   NC320197  15.432   5.679  19.268  0.2987  0.4204 -0.0632
 1684POPC   PO420198  15.193   5.975  19.337 -0.1797 -0.1481  0.1117
 1684POPC   GL120199  14.803   6.172  19.276  0.1268  0.4627 -0.4737
 1684POPC   GL220200  14.692   5.981  19.033  0.0537 -0.2066 -0.1143
 1684POPC   C1A20201  14.546   6.500  19.092  0.0470  0.1395 -0.0323
 1684POPC   D2A20202  14.509   6.761  18.661  0.1340  0.0443 -0.1385
 1684POPC   C3A20203  14.208   6.658  18.338 -0.3077 -0.1340  0.2585
 1684POPC   C4A20204  14.127   6.611  17.899  0.0048 -0.2295 -0.1113
 1684POPC   C1B20205  14.921   6.352  18.866 -0.0590 -0.0196  0.0214
 1684POPC   C2B20206  14.919   6.647  18.496  0.0301 -0.0487 -0.5798
 1684POPC   C3B20207  14.662   6.864  18.150  0.0898  0.0207 -0.0992
 1684POPC   C4B20208  14.509   6.973  17.736 -0.0714  0.0148  0.3680
 1685POPC   NC320209  14.165  15.756  20.078 -0.2512  0.2428 -0.2946
 1685POPC   PO420210  14.103  15.482  20.303 -0.1347 -0.1826 -0.2297
 1685POPC   GL120211  13.894  15.384  20.022 -0.0059  0.2826  0.1413
 1685POPC   GL220212  13.619  15.408  19.867  0.2155  0.2759 -0.0400
 1685POPC   C1A20213  13.760  14.945  19.899  0.0819 -0.0477 -0.2119
 1685POPC   D2A20214  13.793  14.498  19.770  0.0248  0.0557 -0.2002
 1685POPC   C3A20215  13.840  14.421  19.335 -0.0321 -0.2398  0.0445
 1685POPC   C4A20216  13.578  14.225  18.977 -0.0401 -0.2088  0.0236
 1685POPC   C1B20217  13.680  15.209  19.458 -0.0839  0.2020 -0.2015
 1685POPC   C2B20218  13.819  14.869  19.157  0.2737  0.3288 -0.1795
 1685POPC   C3B20219  14.038  14.466  18.894 -0.0018 -0.1495  0.1128
 1685POPC   C4B20220  14.263  14.551  18.535 -0.0823 -0.1020 -0.0582
 1686POPC   NC320221  16.376   8.777  19.942 -0.1686  0.1701 -0.1531
 1686POPC   PO420222  16.116   8.785  20.246  0.0018 -0.0770 -0.1721
 1686POPC   GL120223  16.064   9.080  20.033  0.0542  0.0191  0.1208
 1686POPC   GL220224  16.211   9.269  19.946 -0.0095 -0.2254  0.1961
 1686POPC   C1A20225  16.105   8.987  19.534  0.2041 -0.0195  0.1717
 1686POPC   D2A20226  16.309   9.220  19.157  0.1363  0.1810 -0.2050
 1686POPC   C3A20227  16.288   9.398  18.745  0.1580  0.3177  0.0169
 1686POPC   C4A20228  16.278   9.203  18.308 -0.3104 -0.1955  0.1217
 1686POPC   C1B20229  16.077   9.518  19.586 -0.0403 -0.1733  0.2794
 1686POPC   C2B20230  15.942   9.660  19.214  0.0051 -0.0467  0.2217
 1686POPC   C3B20231  15.852   9.858  18.815 -0.1523  0.0420  0.2809
 1686POPC   C4B20232  15.703  10.129  18.520  0.3982 -0.3759  0.1479
 1687POPC   NC320233  13.287  31.399  20.346 -0.2799  0.0911 -0.0253
 1687POPC   PO420234  13.640  31.336  20.249  0.1522 -0.1609 -0.1992
 1687POPC   GL120235  13.587  31.349  19.907 -0.3924 -0.0020  0.3152
 1687POPC   GL220236  13.473  31.611  19.913  0.1996 -0.0041 -0.1152
 1687POPC   C1A20237  13.715  31.132  19.556 -0.1208  0.0283  0.0236
 1687POPC   D2A20238  13.625  30.962  19.117  0.1784 -0.2675 -0.2132
 1687POPC   C3A20239  13.205  30.985  18.915 -0.1573  0.0088  0.0163
 1687POPC   C4A20240  12.753  31.062  18.928 -0.1131 -0.1700 -0.0594
 1687POPC   C1B20241  13.711  31.770  19.483 -0.0239 -0.1781  0.2650
 1687POPC   C2B20242  13.902  31.512  19.146 -0.1902  0.0310 -0.1028
 1687POPC   C3B20243  14.171  31.583  18.774 -0.3542  0.0026  0.5393
 1687POPC   C4B20244  14.425  31.458  18.444 -0.3689  0.1876 -0.2393
 1688POPC   NC320245  13.545   2.085  20.276 -0.1120 -0.0364  0.2768
 1688POPC   PO420246  13.610   2.311  19.962 -0.0439  0.2477 -0.2098
 1688POPC   GL120247  13.750   2.322  19.590  0.2750 -0.0141 -0.1479
 1688POPC   GL220248  13.495   2.291  19.465  0.2819 -0.0423 -0.0074
 1688POPC   C1A20249  13.866   1.859  19.380 -0.2232 -0.0164  0.0829
 1688POPC   D2A20250  14.224   1.624  19.235 -0.4512 -0.1346 -0.0343
 1688POPC   C3A20251  14.194   1.534  18.797 -0.1451 -0.0520 -0.1008
 1688POPC   C4A20252  14.127   1.818  18.458 -0.2264  0.2049 -0.2379
 1688POPC   C1B20253  13.708   2.196  19.079  0.5098  0.3502 -0.2864
 1688POPC   C2B20254  14.126   2.032  18.922 -0.0216 -0.3066 -0.1798
 1688POPC   C3B20255  14.531   1.850  18.724 -0.0031 -0.0063  0.0798
 1688POPC   C4B20256  14.622   1.552  18.379  0.0950 -0.1352 -0.0930
 1689POPC   NC320257  10.932   6.191  17.318 -0.2812 -0.1252 -0.2005
 1689POPC   PO420258  11.120   6.490  17.067  0.0388  0.1061  0.0600
 1689POPC   GL120259  11.354   6.674  16.809  0.0461  0.1757 -0.0004
 1689POPC   GL220260  11.513   6.431  16.721 -0.0397 -0.0450 -0.1719
 1689POPC   C1A20261  11.659   7.005  16.662  0.1109 -0.0547  0.0027
 1689POPC   D2A20262  11.700   7.370  16.440  0.3815 -0.2939 -0.1292
 1689POPC   C3A20263  11.276   7.562  16.418  0.0553 -0.0478  0.1935
 1689POPC   C4A20264  11.107   7.799  16.099  0.1023  0.0654  0.3397
 1689POPC   C1B20265  11.895   6.532  16.554 -0.0163  0.0493  0.0527
 1689POPC   C2B20266  12.339   6.607  16.644  0.1150 -0.0380 -0.2181
 1689POPC   C3B20267  12.668   6.767  16.299 -0.0269 -0.2064 -0.0948
 1689POPC   C4B20268  13.023   6.873  16.002  0.0173 -0.1613  0.2367
 1690POPC   NC320269  10.679   4.032  16.984  0.0615 -0.1160 -0.1104
 1690POPC   PO420270  11.060   3.903  17.105 -0.0893 -0.2183 -0.0756
 1690POPC   GL120271  11.375   3.757  16.862 -0.0960 -0.1367  0.0275
 1690POPC   GL220272  11.355   3.495  17.084  0.1017  0.2755  0.0766
 1690POPC   C1A20273  11.454   3.461  16.472 -0.1093 -0.1863 -0.0438
 1690POPC   D2A20274  11.405   3.141  16.087 -0.1693  0.1654  0.0245
 1690POPC   C3A20275  11.620   2.743  15.978  0.1720 -0.1126 -0.3556
 1690POPC   C4A20276  11.682   2.291  16.136  0.0322  0.1661 -0.2327
 1690POPC   C1B20277  11.853   3.544  16.915 -0.1107  0.1770 -0.0355
 1690POPC   C2B20278  12.183   3.443  16.601  0.1040  0.0335 -0.0338
 1690POPC   C3B20279  12.601   3.189  16.559  0.2555  0.0201 -0.0230
 1690POPC   C4B20280  13.010   3.066  16.529 -0.0891  0.2474 -0.0972
 1691POPC   NC320281   4.007   0.820  20.337  0.0022  0.1473 -0.0163
 1691POPC   PO420282   3.835   0.894  19.978  0.0197  0.1382  0.3520
 1691POPC   GL120283   3.953   0.764  19.656 -0.0766 -0.2581  0.1442
 1691POPC   GL220284   3.910   0.430  19.703  0.4985  0.0436 -0.2999
 1691POPC   C1A20285   3.775   0.720  19.197  0.2077  0.1903 -0.0985
 1691POPC   D2A20286   3.549   0.791  18.781  0.0698  0.3345  0.0219
 1691POPC   C3A20287   3.753   1.069  18.486 -0.0324  0.1498  0.0828
 1691POPC   C4A20288   3.974   1.435  18.221  0.5631 -0.2460 -0.1367
 1691POPC   C1B20289   4.092   0.105  19.430  0.1557  0.1207  0.1126
 1691POPC   C2B20290   4.070  -0.324  19.148 -0.0839  0.3401  0.0301
 1691POPC   C3B20291   3.958  -0.544  18.756 -0.1590 -0.2134  0.0639
 1691POPC   C4B20292   3.796  -0.793  18.326 -0.0547 -0.0115  0.2396
 1692POPC   NC320293   5.183   2.108  18.739 -0.3395 -0.0604  0.0154
 1692POPC   PO420294   5.461   1.873  18.896 -0.3519 -0.0713  0.0565
 1692POPC   GL120295   5.391   1.776  18.492  0.0310 -0.1125 -0.5473
 1692POPC   GL220296   5.498   2.014  18.326 -0.0247  0.0765  0.1527
 1692POPC   C1A20297   5.192   1.640  18.072  0.0032 -0.0980  0.2113
 1692POPC   D2A20298   4.810   1.604  17.755 -0.1664 -0.0306 -0.2451
 1692POPC   C3A20299   4.728   1.373  17.355  0.0463 -0.1143  0.0388
 1692POPC   C4A20300   4.566   1.028  17.084 -0.0578  0.4242 -0.0343
 1692POPC   C1B20301   5.437   2.004  17.893  0.0552  0.2004  0.0070
 1692POPC   C2B20302   5.331   2.254  17.508 -0.1729  0.4024 -0.1003
 1692POPC   C3B20303   5.512   2.038  17.110 -0.1441  0.1134  0.1288
 1692POPC   C4B20304   5.448   2.172  16.639  0.1222 -0.0541  0.1717
 1693POPC   NC320305   5.143   9.434  20.233  0.0445  0.2590 -0.3797
 1693POPC   PO420306   4.937   9.160  20.041 -0.2255  0.2974 -0.0788
 1693POPC   GL120307   4.844   9.462  19.785  0.1048  0.6203 -0.1128
 1693POPC   GL220308   5.108   9.524  19.642 -0.2331 -0.1542 -0.1362
 1693POPC   C1A20309   4.508   9.437  19.441 -0.0678  0.1418 -0.1665
 1693POPC   D2A20310   4.321   9.076  19.110  0.0263 -0.4412 -0.2010
 1693POPC   C3A20311   4.156   9.281  18.719  0.0299 -0.0172 -0.1624
 1693POPC   C4A20312   4.196   9.386  18.280 -0.3934  0.5892 -0.1247
 1693POPC   C1B20313   4.933   9.843  19.354 -0.2362  0.0516 -0.1051
 1693POPC   C2B20314   4.779   9.936  18.896 -0.1317 -0.1747 -0.2076
 1693POPC   C3B20315   4.796  10.186  18.511 -0.4736 -0.1091  0.2270
 1693POPC   C4B20316   4.764  10.521  18.240  0.0294  0.2107 -0.5347
 1694POPC   NC320317   5.574   2.597  18.926  0.1083  0.0456 -0.0296
 1694POPC   PO420318   5.722   2.313  18.705  0.1949 -0.2325 -0.1823
 1694POPC   GL120319   6.153   2.245  18.431 -0.0015 -0.0531 -0.1513
 1694POPC   GL220320   6.298   1.972  18.388 -0.0517 -0.0501 -0.4409
 1694POPC   C1A20321   6.485   2.264  18.040 -0.0314 -0.1059 -0.3848
 1694POPC   D2A20322   6.698   2.134  17.650 -0.1739 -0.2449 -0.0756
 1694POPC   C3A20323   6.498   1.725  17.452 -0.2056 -0.0171  0.2680
 1694POPC   C4A20324   6.525   1.336  17.196  0.1879 -0.1730  0.0262
 1694POPC   C1B20325   5.973   2.033  18.069 -0.0170  0.0052  0.2349
 1694POPC   C2B20326   5.764   2.379  17.767 -0.0998  0.1769 -0.2752
 1694POPC   C3B20327   5.928   2.376  17.364  0.0897 -0.1174 -0.0915
 1694POPC   C4B20328   6.163   2.605  17.074  0.2254 -0.0728 -0.0100
 1695POPC   NC320329   2.708  12.803  20.873  0.1764  0.0619 -0.2051
 1695POPC   PO420330   2.383  12.698  20.691  0.1202 -0.0898 -0.2382
 1695POPC   GL120331   2.390  12.585  20.288 -0.1772  0.1279  0.1254
 1695POPC   GL220332   2.488  12.808  20.116 -0.1106  0.0751  0.3440
 1695POPC   C1A20333   2.055  12.502  19.975  0.0203 -0.1520 -0.0382
 1695POPC   D2A20334   2.068  12.205  19.582  0.1538 -0.1488  0.1153
 1695POPC   C3A20335   2.349  11.885  19.399 -0.0482  0.4399  0.0125
 1695POPC   C4A20336   2.511  11.637  19.072 -0.0330  0.1498 -0.2100
 1695POPC   C1B20337   2.519  12.523  19.788  0.1995  0.1369 -0.1376
 1695POPC   C2B20338   2.523  12.319  19.359 -0.0705  0.0791  0.0340
 1695POPC   C3B20339   2.359  12.335  18.987  0.3813 -0.0492 -0.1343
 1695POPC   C4B20340   2.162  12.290  18.548 -0.0249 -0.2540 -0.2506
 1696POPC   NC320341  10.832   4.817  16.414 -0.1105 -0.0521 -0.1034
 1696POPC   PO420342  11.058   4.846  16.081  0.2710  0.3164 -0.1032
 1696POPC   GL120343  11.456   4.614  16.049  0.4213  0.1431  0.3026
 1696POPC   GL220344  11.427   4.396  15.855 -0.2401 -0.2125  0.1559
 1696POPC   C1A20345  11.839   4.374  16.233  0.5856 -0.1350 -0.1036
 1696POPC   D2A20346  12.240   4.458  16.362 -0.0134  0.1977  0.0255
 1696POPC   C3A20347  12.530   4.223  16.061 -0.1604  0.1232 -0.0659
 1696POPC   C4A20348  12.739   3.822  15.874 -0.0751  0.1609  0.2332
 1696POPC   C1B20349  11.749   4.421  15.540 -0.0510 -0.0711 -0.0123
 1696POPC   C2B20350  12.071   4.590  15.318  0.2049 -0.3421  0.0291
 1696POPC   C3B20351  12.424   4.940  15.283  0.0889 -0.1847 -0.0907
 1696POPC   C4B20352  12.747   5.299  15.262  0.1976 -0.0576  0.1596
 1697POPC   NC320353   3.987  16.642  19.983  0.2879 -0.2068 -0.0819
 1697POPC   PO420354   3.808  16.567  20.319 -0.2770 -0.1821 -0.0635
 1697POPC   GL120355   3.667  16.277  20.137  0.1848 -0.3260  0.1373
 1697POPC   GL220356   3.424  16.050  20.136 -0.0247  0.1777 -0.2363
 1697POPC   C1A20357   3.773  16.302  19.695  0.3650 -0.0954  0.2718
 1697POPC   D2A20358   3.898  16.654  19.420  0.3586  0.1426  0.1080
 1697POPC   C3A20359   3.655  16.832  19.093 -0.2736 -0.2089  0.1593
 1697POPC   C4A20360   3.251  16.842  18.914  0.1122  0.1368 -0.1999
 1697POPC   C1B20361   3.331  16.011  19.664 -0.0757 -0.2636 -0.1952
 1697POPC   C2B20362   3.676  15.858  19.414 -0.0719  0.0840 -0.4119
 1697POPC   C3B20363   3.783  15.791  18.947  0.1246  0.0540  0.3226
 1697POPC   C4B20364   3.633  15.439  18.632 -0.1447 -0.2606 -0.3697
 1698POPC   NC320365  11.458   7.012  18.800  0.0242  0.0947 -0.1768
 1698POPC   PO420366  11.477   7.345  18.633 -0.2579 -0.1583 -0.3592
 1698POPC   GL120367  11.641   7.521  18.316  0.1780 -0.5354 -0.2761
 1698POPC   GL220368  11.939   7.585  18.357  0.0604 -0.0572  0.4007
 1698POPC   C1A20369  11.773   7.579  17.870  0.0302 -0.1138 -0.1044
 1698POPC   D2A20370  12.017   7.863  17.604 -0.6081  0.0592 -0.2847
 1698POPC   C3A20371  12.349   7.919  17.313 -0.1910 -0.0150 -0.0557
 1698POPC   C4A20372  12.733   8.097  17.255  0.3332  0.0869  0.1511
 1698POPC   C1B20373  12.123   7.909  18.086  0.1625 -0.2993  0.1500
 1698POPC   C2B20374  12.042   8.352  17.934  0.1192  0.0422  0.0082
 1698POPC   C3B20375  11.992   8.462  17.448  0.3371 -0.0092 -0.0168
 1698POPC   C4B20376  11.921   8.628  17.012  0.1332 -0.1412  0.0702
 1699POPC   NC320377   0.423  11.438  20.601 -0.0455  0.5352  0.1479
 1699POPC   PO420378   0.376  11.811  20.431 -0.1807  0.1062 -0.1419
 1699POPC   GL120379   0.543  11.644  20.106 -0.0807 -0.3484  0.0348
 1699POPC   GL220380   0.289  11.445  20.097 -0.0317 -0.0614  0.2040
 1699POPC   C1A20381   0.761  11.509  19.756  0.0270 -0.3309  0.3201
 1699POPC   D2A20382   0.867  11.602  19.325  0.0289  0.0162 -0.0481
 1699POPC   C3A20383   0.585  11.633  18.994  0.1443  0.1576  0.2060
 1699POPC   C4A20384   0.173  11.578  18.843  0.0564 -0.0783 -0.1434
 1699POPC   C1B20385   0.022  11.615  19.757 -0.5818  0.2280 -0.0304
 1699POPC   C2B20386  -0.329  11.872  19.648 -0.0183 -0.4460  0.0728
 1699POPC   C3B20387  -0.472  12.208  19.287 -0.0853  0.2086 -0.0019
 1699POPC   C4B20388  -0.913  12.135  19.065  0.3131  0.3585  0.2437
 1700POPC   NC320389   6.077   8.377  19.091  0.3155 -0.4478 -0.4961
 1700POPC   PO420390   5.890   8.539  19.442 -0.2472 -0.0474  0.1705
 1700POPC   GL120391   5.744   8.953  19.297  0.2087  0.5162 -0.0545
 1700POPC   GL220392   6.050   8.992  19.237  0.2263  0.0301  0.1366
 1700POPC   C1A20393   5.464   9.027  18.917  0.1372  0.0899 -0.1336
 1700POPC   D2A20394   5.614   9.088  18.440 -0.0156 -0.0572  0.2406
 1700POPC   C3A20395   5.456   9.528  18.254 -0.3021 -0.0053  0.0744
 1700POPC   C4A20396   5.153   9.732  17.964 -0.1606 -0.3343 -0.1443
 1700POPC   C1B20397   5.991   8.877  18.794 -0.0354 -0.1390 -0.0594
 1700POPC   C2B20398   5.985   8.744  18.341  0.0100  0.0767  0.1299
 1700POPC   C3B20399   5.682   8.739  17.944 -0.0624 -0.0654 -0.2318
 1700POPC   C4B20400   5.239   8.627  17.789  0.2620 -0.0281  0.1151
 1701POPC   NC320401  14.942   3.927  19.430  0.3542 -0.2226  0.1593
 1701POPC   PO420402  15.263   3.994  19.192  0.1844 -0.0404 -0.1303
 1701POPC   GL120403  15.336   4.180  18.830  0.7932 -0.0287 -0.2354
 1701POPC   GL220404  15.542   4.005  18.731  0.2929  0.0195 -0.1217
 1701POPC   C1A20405  15.176   4.259  18.396  0.3173  0.2462 -0.0703
 1701POPC   D2A20406  14.831   4.455  18.148 -0.0023 -0.4223 -0.0341
 1701POPC   C3A20407  15.015   4.728  17.799  0.3489 -0.1752  0.0961
 1701POPC   C4A20408  15.199   5.113  17.653 -0.0647 -0.0089 -0.2875
 1701POPC   C1B20409  15.579   4.061  18.307  0.3394 -0.0559 -0.3406
 1701POPC   C2B20410  15.651   3.959  17.859 -0.0095  0.0857  0.0273
 1701POPC   C3B20411  15.333   4.060  17.566  0.0347 -0.0876 -0.0990
 1701POPC   C4B20412  15.008   4.349  17.496  0.1309 -0.2069  0.4749
 1702POPC   NC320413   9.559   6.331  12.262  0.0842 -0.0511 -0.0356
 1702POPC   PO420414   9.438   6.452  12.644 -0.0693  0.3547 -0.2418
 1702POPC   GL120415   9.419   6.850  12.681  0.0769 -0.1338 -0.3765
 1702POPC   GL220416   9.106   6.836  12.745 -0.0383 -0.1045 -0.1976
 1702POPC   C1A20417   9.692   7.197  12.794  0.1739 -0.0357  0.2546
 1702POPC   D2A20418   9.883   7.645  12.843  0.2636 -0.1218 -0.2588
 1702POPC   C3A20419  10.055   7.901  12.477  0.2538 -0.1998 -0.1620
 1702POPC   C4A20420  10.140   7.769  12.037 -0.2407 -0.2041 -0.2121
 1702POPC   C1B20421   8.893   7.080  13.012  0.1654 -0.2525  0.3638
 1702POPC   C2B20422   8.591   7.489  12.962  0.1258 -0.2216 -0.2018
 1702POPC   C3B20423   8.271   7.832  13.052 -0.1474 -0.3553 -0.0001
 1702POPC   C4B20424   7.906   8.094  13.208 -0.0474  0.3937  0.0063
 1703POPC   NC320425   7.726  14.247  20.109 -0.0308 -0.0224 -0.1270
 1703POPC   PO420426   7.481  14.509  20.177 -0.0478 -0.2722 -0.2842
 1703POPC   GL120427   7.372  14.715  19.820  0.2977  0.2594 -0.1448
 1703POPC   GL220428   7.407  14.477  19.661 -0.2053  0.0441  0.1024
 1703POPC   C1A20429   7.463  15.108  19.598  0.2770  0.1294  0.1405
 1703POPC   D2A20430   7.428  15.222  19.112  0.2962 -0.0502  0.1270
 1703POPC   C3A20431   7.399  14.951  18.732 -0.0271 -0.0541  0.1765
 1703POPC   C4A20432   7.521  14.736  18.311  0.0198  0.0042 -0.3769
 1703POPC   C1B20433   7.301  14.142  19.360  0.0405  0.1401  0.0770
 1703POPC   C2B20434   7.140  13.936  19.012  0.1082  0.1143  0.2136
 1703POPC   C3B20435   7.071  13.671  18.666  0.1822 -0.2626 -0.1682
 1703POPC   C4B20436   6.760  13.377  18.491 -0.0149  0.0680 -0.1311
 1704POPC   NC320437   4.933   5.348  18.768  0.0367  0.1647 -0.0680
 1704POPC   PO420438   5.148   5.600  18.956  0.0660  0.0428  0.3182
 1704POPC   GL120439   4.882   5.845  18.769 -0.0543 -0.1830 -0.0272
 1704POPC   GL220440   4.802   5.760  18.533  0.2288 -0.0174 -0.0422
 1704POPC   C1A20441   4.496   6.076  18.882 -0.2843  0.0168 -0.0108
 1704POPC   D2A20442   4.072   6.345  18.776  0.0118 -0.0238 -0.2061
 1704POPC   C3A20443   4.131   6.763  18.593 -0.2045 -0.1012 -0.4383
 1704POPC   C4A20444   3.881   7.025  18.365  0.1634  0.3092 -0.0214
 1704POPC   C1B20445   4.440   5.745  18.167 -0.1398 -0.1844  0.2810
 1704POPC   C2B20446   4.329   5.849  17.696  0.1812  0.2563 -0.2038
 1704POPC   C3B20447   4.327   5.874  17.230  0.0973 -0.2932 -0.0148
 1704POPC   C4B20448   4.524   5.862  16.867 -0.0880 -0.0623 -0.1291
 1705POPC   NC320449   7.714   5.956  17.421  0.3291  0.2681 -0.2611
 1705POPC   PO420450   7.561   6.230  17.214 -0.2826 -0.0108  0.1131
 1705POPC   GL120451   7.202   6.306  17.008  0.3223  0.2596 -0.6244
 1705POPC   GL220452   7.241   6.604  17.115 -0.3768  0.1068 -0.4050
 1705POPC   C1A20453   6.821   6.447  16.807 -0.1909 -0.2422  0.1826
 1705POPC   D2A20454   6.517   6.800  16.639  0.2746  0.1141 -0.1728
 1705POPC   C3A20455   6.079   7.039  16.810  0.0407  0.0944  0.0422
 1705POPC   C4A20456   5.783   7.324  16.887 -0.2989 -0.0995  0.0993
 1705POPC   C1B20457   7.062   6.968  16.862 -0.2606 -0.2085  0.1713
 1705POPC   C2B20458   7.090   7.302  16.552 -0.2493  0.1395 -0.0294
 1705POPC   C3B20459   7.115   7.489  16.139  0.1859  0.1066  0.1077
 1705POPC   C4B20460   7.375   7.649  15.781 -0.0110 -0.1241 -0.0900
 1706POPC   NC320461  11.311   4.368  17.321 -0.0200 -0.1075 -0.0063
 1706POPC   PO420462  11.480   4.587  17.574 -0.0798 -0.0547  0.2666
 1706POPC   GL120463  11.895   4.708  17.414  0.3734 -0.2811 -0.0003
 1706POPC   GL220464  11.813   4.549  17.224 -0.1093  0.1179  0.1916
 1706POPC   C1A20465  12.282   4.521  17.597 -0.0704 -0.0451  0.3329
 1706POPC   D2A20466  12.612   4.632  17.254  0.0043  0.1505  0.1248
 1706POPC   C3A20467  12.888   4.363  16.990 -0.0756 -0.0859  0.2871
 1706POPC   C4A20468  13.200   4.097  16.765  0.0668  0.0801 -0.0764
 1706POPC   C1B20469  12.144   4.758  16.992 -0.0999 -0.2159 -0.0627
 1706POPC   C2B20470  12.469   5.084  17.055 -0.0715  0.0065  0.1063
 1706POPC   C3B20471  12.860   5.134  17.086 -0.1607  0.0056 -0.2936
 1706POPC   C4B20472  13.195   5.280  16.776 -0.1194 -0.0451 -0.1278
 1707POPC   NC320473  16.413  12.105  20.609  0.2669  0.2842 -0.0752
 1707POPC   PO420474  16.279  12.390  20.385 -0.1268  0.2487  0.0015
 1707POPC   GL120475  16.362  12.714  20.286  0.0467  0.0330 -0.0157
 1707POPC   GL220476  16.377  13.011  20.277  0.1326  0.5602  0.0038
 1707POPC   C1A20477  16.699  12.655  19.980 -0.0766 -0.0327 -0.1348
 1707POPC   D2A20478  16.788  12.540  19.537  0.4046 -0.0626  0.3082
 1707POPC   C3A20479  16.402  12.457  19.348 -0.3883  0.1923  0.0870
 1707POPC   C4A20480  16.379  12.135  19.011  0.0909 -0.2246  0.2962
 1707POPC   C1B20481  16.216  13.404  20.257 -0.0617 -0.0471 -0.2110
 1707POPC   C2B20482  16.170  13.768  20.000 -0.0764 -0.1999  0.0260
 1707POPC   C3B20483  16.007  14.122  19.726 -0.0178 -0.3057 -0.0551
 1707POPC   C4B20484  15.957  14.343  19.280 -0.2899 -0.0808 -0.1580
 1708POPC   NC320485  10.110   6.661  13.434  0.0514  0.1310  0.1937
 1708POPC   PO420486  10.071   6.389  13.163  0.1214 -0.0494  0.2129
 1708POPC   GL120487  10.111   6.785  12.978  0.4566  0.0963 -0.2414
 1708POPC   GL220488  10.461   6.766  13.042 -0.0879 -0.3406 -0.1978
 1708POPC   C1A20489  10.198   7.227  12.868 -0.1936 -0.1358 -0.1402
 1708POPC   D2A20490  10.430   7.628  13.000  0.0768 -0.1765  0.0810
 1708POPC   C3A20491  10.610   7.665  13.464 -0.1800  0.0208 -0.2694
 1708POPC   C4A20492  10.502   7.573  13.872  0.2371  0.1677  0.1446
 1708POPC   C1B20493  10.341   7.139  13.311  0.1406 -0.1243  0.1905
 1708POPC   C2B20494  10.095   7.565  13.318 -0.1147  0.3260  0.1936
 1708POPC   C3B20495   9.905   7.950  13.251 -0.1372 -0.0605  0.1237
 1708POPC   C4B20496   9.834   8.218  12.802  0.2055  0.1191 -0.0694
 1709POPC   NC320497   0.509   6.131  19.245 -0.0342 -0.1928  0.0889
 1709POPC   PO420498   0.758   5.919  19.451  0.1930  0.1821 -0.0481
 1709POPC   GL120499   0.814   5.791  19.062  0.0244  0.0895 -0.0974
 1709POPC   GL220500   1.040   5.996  19.038  0.0948 -0.0262 -0.2208
 1709POPC   C1A20501   0.890   5.740  18.599  0.1763  0.0648 -0.2057
 1709POPC   D2A20502   0.978   5.729  18.181 -0.0575  0.2688 -0.0828
 1709POPC   C3A20503   0.882   6.008  17.821  0.0747 -0.1849 -0.1005
 1709POPC   C4A20504   0.586   6.117  17.494 -0.3983 -0.0369 -0.2176
 1709POPC   C1B20505   1.116   6.173  18.683  0.0390  0.0914 -0.1115
 1709POPC   C2B20506   1.171   6.486  18.363 -0.0714  0.0721 -0.3116
 1709POPC   C3B20507   1.552   6.731  18.294 -0.3105 -0.0244 -0.1356
 1709POPC   C4B20508   1.975   6.959  18.349  0.0942 -0.2156  0.2207
 1710POPC   NC320509   5.276  10.347  20.128 -0.2950  0.0267  0.1328
 1710POPC   PO420510   4.967  10.147  20.330 -0.1303  0.1162 -0.1557
 1710POPC   GL120511   4.862  10.261  19.945 -0.2337 -0.0728  0.1299
 1710POPC   GL220512   4.590  10.430  20.061  0.1908  0.0835  0.2164
 1710POPC   C1A20513   5.123  10.411  19.575  0.4136 -0.1820  0.3777
 1710POPC   D2A20514   5.485  10.556  19.374 -0.0959 -0.0696  0.1085
 1710POPC   C3A20515   5.372  10.856  19.062  0.2306 -0.1186 -0.0545
 1710POPC   C4A20516   5.101  11.249  19.013 -0.3800  0.1843 -0.2228
 1710POPC   C1B20517   4.591  10.538  19.578  0.1015 -0.1355 -0.0076
 1710POPC   C2B20518   4.574  10.375  19.154  0.1687 -0.0633  0.1968
 1710POPC   C3B20519   4.325  10.302  18.738  0.2883  0.0357  0.2427
 1710POPC   C4B20520   4.311  10.372  18.308 -0.2287 -0.0816 -0.1683
 1711POPC   NC320521   8.336   5.730  14.436 -0.1236 -0.2606 -0.2004
 1711POPC   PO420522   8.481   5.965  14.102  0.1138  0.0857 -0.0526
 1711POPC   GL120523   8.125   5.779  14.033 -0.0495  0.2453  0.0901
 1711POPC   GL220524   8.209   5.661  13.745  0.0363 -0.1190 -0.2698
 1711POPC   C1A20525   7.846   6.036  13.708 -0.2126 -0.1347  0.1337
 1711POPC   D2A20526   7.601   6.431  13.726 -0.0128 -0.1878 -0.1699
 1711POPC   C3A20527   7.326   6.358  13.407 -0.0816 -0.4883 -0.3560
 1711POPC   C4A20528   7.105   6.242  13.031 -0.1376 -0.0589  0.1677
 1711POPC   C1B20529   8.260   5.414  13.372  0.0090 -0.0357  0.2750
 1711POPC   C2B20530   8.070   5.020  13.275  0.0288  0.0200 -0.0059
 1711POPC   C3B20531   7.758   4.664  13.111 -0.0625 -0.0477  0.2550
 1711POPC   C4B20532   7.343   4.503  13.155  0.2082  0.1607  0.2118
 1712POPC   NC320533   9.063  15.524  19.639 -0.3789  0.0248 -0.3545
 1712POPC   PO420534   8.760  15.355  19.839 -0.0851 -0.1531 -0.0155
 1712POPC   GL120535   8.725  15.002  19.684 -0.3301  0.0521  0.2286
 1712POPC   GL220536   8.986  15.005  19.582 -0.1134 -0.1162 -0.0886
 1712POPC   C1A20537   8.581  14.826  19.267 -0.1942 -0.1641  0.4782
 1712POPC   D2A20538   8.384  14.665  18.922 -0.0289  0.3226  0.1309
 1712POPC   C3A20539   8.551  14.499  18.536 -0.4275  0.0775 -0.3763
 1712POPC   C4A20540   8.793  14.128  18.540 -0.1619 -0.1079  0.1079
 1712POPC   C1B20541   9.079  14.591  19.364  0.2253  0.0692  0.0092
 1712POPC   C2B20542   9.281  14.535  18.944  0.2958 -0.0250 -0.4321
 1712POPC   C3B20543   9.113  14.551  18.522 -0.0900  0.4811  0.0565
 1712POPC   C4B20544   8.985  14.295  18.147 -0.0153 -0.2895 -0.4263
 1713POPC   NC320545   8.666   9.986  19.634  0.0352  0.0564  0.1673
 1713POPC   PO420546   8.328  10.013  19.864 -0.1783  0.0233  0.0764
 1713POPC   GL120547   8.245  10.224  19.582 -0.4178 -0.0015  0.2658
 1713POPC   GL220548   7.984  10.393  19.636 -0.2172  0.2434  0.2628
 1713POPC   C1A20549   8.535  10.423  19.264 -0.0894  0.1251 -0.1558
 1713POPC   D2A20550   8.804  10.774  19.177 -0.0452  0.0602 -0.1594
 1713POPC   C3A20551   9.035  10.826  18.732  0.3294 -0.1585  0.0481
 1713POPC   C4A20552   9.103  11.306  18.603  0.0759 -0.0470  0.0842
 1713POPC   C1B20553   8.060  10.656  19.279 -0.0619  0.3434  0.0363
 1713POPC   C2B20554   8.283  10.771  18.934  0.1047 -0.1176  0.2205
 1713POPC   C3B20555   8.606  10.651  18.583  0.1402  0.0025 -0.0028
 1713POPC   C4B20556   8.564  10.641  18.086 -0.0336  0.1876  0.0689
 1714POPC   NC320557  11.047  10.622  20.042  0.2092 -0.0537  0.2888
 1714POPC   PO420558  11.312  10.855  20.103  0.2303 -0.2982 -0.5230
 1714POPC   GL120559  11.168  10.949  19.721 -0.1617  0.0412 -0.0545
 1714POPC   GL220560  11.203  10.694  19.542 -0.0661 -0.0299  0.1169
 1714POPC   C1A20561  11.201  11.219  19.378  0.1540  0.0744 -0.0857
 1714POPC   D2A20562  11.300  11.449  18.998  0.1550  0.2283 -0.0063
 1714POPC   C3A20563  11.287  11.853  18.735  0.1666  0.2950  0.0241
 1714POPC   C4A20564  11.523  12.001  18.366 -0.0968 -0.3392 -0.0289
 1714POPC   C1B20565  11.340  10.750  19.127  0.2705  0.0282  0.1657
 1714POPC   C2B20566  11.367  11.014  18.769 -0.1437 -0.2353 -0.3657
 1714POPC   C3B20567  11.620  10.929  18.374 -0.0771  0.1499 -0.1362
 1714POPC   C4B20568  11.661  10.589  18.084 -0.0182  0.2518  0.2280
 1715POPC   NC320569   1.895  10.080  20.369  0.0654  0.0961 -0.1599
 1715POPC   PO420570   2.268  10.205  20.416  0.0444 -0.0473 -0.2357
 1715POPC   GL120571   2.222  10.267  20.047  0.1913  0.0884 -0.1196
 1715POPC   GL220572   1.953  10.436  20.023  0.1006  0.0878 -0.2219
 1715POPC   C1A20573   2.478  10.288  19.601  0.1507  0.1751 -0.1492
 1715POPC   D2A20574   2.763  10.168  19.312 -0.1906  0.0114  0.3435
 1715POPC   C3A20575   2.817  10.074  18.839 -0.0969  0.1727  0.2639
 1715POPC   C4A20576   2.685  10.166  18.427 -0.4371 -0.0037  0.1762
 1715POPC   C1B20577   2.060  10.599  19.568  0.1781  0.0395  0.4146
 1715POPC   C2B20578   2.331  10.578  19.180 -0.0154 -0.1143  0.0021
 1715POPC   C3B20579   2.667  10.680  18.939  0.0021 -0.5402  0.1243
 1715POPC   C4B20580   2.896  10.902  18.590  0.0835 -0.1197  0.0666
 1716POPC   NC320581   1.719   4.214  19.664  0.2096 -0.1534 -0.1173
 1716POPC   PO420582   2.064   4.037  19.756 -0.2939 -0.0892 -0.0070
 1716POPC   GL120583   2.077   3.948  19.337 -0.1188 -0.0264 -0.2975
 1716POPC   GL220584   2.180   4.223  19.299 -0.0521  0.2548 -0.1963
 1716POPC   C1A20585   1.871   3.939  18.926  0.0355  0.2320 -0.2285
 1716POPC   D2A20586   1.806   3.716  18.537  0.1750  0.1014  0.0668
 1716POPC   C3A20587   1.869   3.372  18.153 -0.2072 -0.1274  0.1944
 1716POPC   C4A20588   1.837   3.101  17.854  0.0222  0.2285 -0.0084
 1716POPC   C1B20589   2.363   3.974  18.969  0.2920  0.1714 -0.1779
 1716POPC   C2B20590   2.186   4.017  18.532  0.5687 -0.1145 -0.0717
 1716POPC   C3B20591   1.996   3.889  18.119  0.2496  0.0356 -0.0900
 1716POPC   C4B20592   1.825   3.689  17.721 -0.2263 -0.1462 -0.0120
 1717POPC   NC320593   7.444  15.138  20.138  0.1317  0.3574 -0.0289
 1717POPC   PO420594   7.233  15.488  20.179 -0.2908 -0.0954  0.0222
 1717POPC   GL120595   7.096  15.302  19.847  0.0060 -0.2627 -0.0353
 1717POPC   GL220596   6.843  15.510  19.864 -0.1827 -0.0487 -0.1242
 1717POPC   C1A20597   6.988  15.132  19.403  0.1043 -0.4175 -0.1606
 1717POPC   D2A20598   6.961  15.120  18.909  0.0922  0.1552 -0.0078
 1717POPC   C3A20599   6.876  15.034  18.446 -0.1015  0.0198 -0.0072
 1717POPC   C4A20600   7.070  14.769  18.074  0.0576 -0.1746 -0.3680
 1717POPC   C1B20601   6.569  15.508  19.473 -0.0350 -0.0804 -0.1220
 1717POPC   C2B20602   6.618  15.424  19.030  0.0986  0.1327  0.0044
 1717POPC   C3B20603   6.713  15.469  18.547  0.1386 -0.1367 -0.0140
 1717POPC   C4B20604   6.810  15.371  18.080  0.0757 -0.0979 -0.0889
 1718POPC   NC320605   1.733  15.244  21.052  0.1338 -0.0594  0.2692
 1718POPC   PO420606   1.460  15.453  20.861  0.0722  0.1455 -0.1510
 1718POPC   GL120607   1.627  15.356  20.525  0.0769  0.2442  0.1891
 1718POPC   GL220608   1.324  15.266  20.428  0.0718  0.1522 -0.1055
 1718POPC   C1A20609   1.705  15.201  20.088  0.1940 -0.1085  0.1854
 1718POPC   D2A20610   1.686  15.425  19.686 -0.0663 -0.0845  0.3050
 1718POPC   C3A20611   1.891  15.189  19.380  0.2843 -0.1390 -0.0115
 1718POPC   C4A20612   2.083  14.948  19.081 -0.1381  0.1763  0.3414
 1718POPC   C1B20613   1.244  15.086  20.002  0.2485 -0.2254 -0.0805
 1718POPC   C2B20614   1.392  14.888  19.602 -0.1581 -0.1279 -0.0915
 1718POPC   C3B20615   1.604  14.762  19.215  0.2323 -0.2163  0.1897
 1718POPC   C4B20616   1.597  14.438  18.909  0.1464  0.0621  0.1361
 1719POPC   NC320617   3.634   7.942  20.257 -0.2626  0.1219 -0.0383
 1719POPC   PO420618   3.502   8.289  20.105 -0.0309  0.3620  0.2156
 1719POPC   GL120619   3.566   8.176  19.641 -0.2277 -0.0140  0.0880
 1719POPC   GL220620   3.497   8.351  19.432 -0.2201  0.1301 -0.4912
 1719POPC   C1A20621   3.531   7.892  19.214 -0.4547 -0.1077 -0.0250
 1719POPC   D2A20622   3.504   7.698  18.802  0.0916 -0.0470 -0.3246
 1719POPC   C3A20623   3.420   7.493  18.392  0.2478 -0.0070 -0.3943
 1719POPC   C4A20624   3.364   7.570  17.975 -0.0827  0.1341  0.0198
 1719POPC   C1B20625   3.355   8.464  19.042  0.2323  0.3625 -0.0769
 1719POPC   C2B20626   3.327   8.778  18.719 -0.2583 -0.0461 -0.1096
 1719POPC   C3B20627   3.318   9.143  18.420  0.0867 -0.1034  0.3996
 1719POPC   C4B20628   3.330   9.451  18.066 -0.4867  0.0072 -0.2358
 1720POPC   NC320629   6.349   4.890  17.884 -0.0508 -0.0050 -0.1912
 1720POPC   PO420630   6.537   5.192  17.683  0.0186 -0.3683 -0.1842
 1720POPC   GL120631   6.256   5.282  17.374  0.0497  0.4540 -0.0678
 1720POPC   GL220632   6.298   5.555  17.411 -0.1821 -0.0427  0.1817
 1720POPC   C1A20633   5.912   5.209  17.131  0.1731  0.4482  0.0620
 1720POPC   D2A20634   5.582   5.359  16.869  0.4038  0.0152  0.0343
 1720POPC   C3A20635   5.476   5.004  16.624  0.1045 -0.0363 -0.1459
 1720POPC   C4A20636   5.438   4.569  16.602 -0.1228  0.2142  0.2939
 1720POPC   C1B20637   6.151   5.807  17.097  0.1222 -0.0557  0.1597
 1720POPC   C2B20638   6.030   6.108  16.818  0.2693  0.1295  0.2826
 1720POPC   C3B20639   5.692   6.449  16.769 -0.1076  0.1789 -0.3072
 1720POPC   C4B20640   5.282   6.665  16.705 -0.1430  0.0228  0.2989
 1721POPC   NC320641   3.719   2.507  19.517  0.1714  0.1030 -0.0530
 1721POPC   PO420642   3.799   2.135  19.648  0.0561 -0.2861 -0.1637
 1721POPC   GL120643   4.005   2.051  19.352  0.0257  0.1657 -0.2557
 1721POPC   GL220644   3.846   2.166  19.165 -0.0448  0.0838  0.1250
 1721POPC   C1A20645   3.990   1.724  19.000  0.0639 -0.0433  0.4166
 1721POPC   D2A20646   3.971   1.274  18.880  0.0975  0.1339  0.0606
 1721POPC   C3A20647   4.245   1.099  18.533  0.2299 -0.0015 -0.2668
 1721POPC   C4A20648   4.222   0.884  18.132 -0.1800 -0.2975  0.0888
 1721POPC   C1B20649   3.445   2.447  19.068 -0.2107  0.0669  0.0034
 1721POPC   C2B20650   3.309   2.541  18.633 -0.0783  0.0892  0.2285
 1721POPC   C3B20651   3.051   2.586  18.266  0.3949 -0.2859 -0.0035
 1721POPC   C4B20652   2.993   2.324  17.952 -0.1028 -0.0461 -0.1147
 1722POPC   NC320653   1.568   8.580  20.005 -0.0567 -0.0600 -0.1270
 1722POPC   PO420654   1.653   8.221  20.140 -0.0574  0.0621  0.3689
 1722POPC   GL120655   1.640   8.160  19.758  0.0886 -0.1991  0.1431
 1722POPC   GL220656   1.902   7.969  19.741 -0.2386  0.0883  0.3567
 1722POPC   C1A20657   1.523   7.720  19.546 -0.3348  0.0677 -0.2391
 1722POPC   D2A20658   1.742   7.288  19.532 -0.0645  0.1162  0.0404
 1722POPC   C3A20659   1.943   7.007  19.250  0.0860  0.0492 -0.1712
 1722POPC   C4A20660   2.116   6.817  18.888  0.1556  0.2220  0.2868
 1722POPC   C1B20661   2.091   8.020  19.309 -0.1631 -0.3007 -0.1309
 1722POPC   C2B20662   2.171   7.916  18.853 -0.2652  0.1221 -0.1257
 1722POPC   C3B20663   1.995   7.674  18.483 -0.4220 -0.1179  0.1785
 1722POPC   C4B20664   1.710   7.440  18.205  0.1459 -0.0620 -0.0424
 1723POPC   NC320665   6.515   3.252  18.128 -0.0447 -0.0649 -0.3144
 1723POPC   PO420666   6.787   3.240  17.901 -0.0990  0.1095 -0.0371
 1723POPC   GL120667   6.861   2.831  17.693  0.0241 -0.1488 -0.2753
 1723POPC   GL220668   6.620   2.961  17.510  0.1093  0.0095  0.2804
 1723POPC   C1A20669   6.850   2.508  17.370  0.2271 -0.2063  0.2279
 1723POPC   D2A20670   6.481   2.261  17.192 -0.2503  0.1267 -0.4802
 1723POPC   C3A20671   6.407   2.156  16.771  0.1122 -0.0291 -0.1320
 1723POPC   C4A20672   6.220   1.894  16.479 -0.1171  0.1462  0.0052
 1723POPC   C1B20673   6.338   2.600  17.621 -0.0387  0.2006 -0.0923
 1723POPC   C2B20674   6.217   2.125  17.651  0.2764 -0.5363 -0.0219
 1723POPC   C3B20675   6.065   1.869  17.258 -0.0284 -0.4869 -0.0615
 1723POPC   C4B20676   6.217   1.615  16.897  0.0458 -0.2142 -0.2152
 1724POPC   NC320677  16.201   4.292  19.261  0.4984  0.2841 -0.0485
 1724POPC   PO420678  16.358   4.137  19.560 -0.0905 -0.2433 -0.1384
 1724POPC   GL120679  16.537   3.994  19.217 -0.2910  0.0310 -0.0228
 1724POPC   GL220680  16.481   3.679  19.266 -0.4904 -0.1472  0.1654
 1724POPC   C1A20681  16.385   4.094  18.758 -0.2303  0.0274  0.0072
 1724POPC   D2A20682  16.404   4.092  18.288 -0.0511 -0.3146 -0.1320
 1724POPC   C3A20683  16.159   3.850  18.045  0.0395 -0.3319 -0.3712
 1724POPC   C4A20684  15.817   3.662  18.252 -0.0176  0.1245  0.0159
 1724POPC   C1B20685  16.471   3.445  18.861 -0.4263  0.1935  0.0976
 1724POPC   C2B20686  16.513   3.110  18.539 -0.1536 -0.2655  0.0756
 1724POPC   C3B20687  16.483   2.922  18.093  0.4101  0.2406  0.0207
 1724POPC   C4B20688  16.248   2.957  17.702 -0.0045  0.0412 -0.1325
 1725POPC   NC320689   7.289   4.825  16.935  0.1303 -0.3888 -0.1531
 1725POPC   PO420690   7.510   4.696  16.643  0.2932  0.3191 -0.0765
 1725POPC   GL120691   7.168   4.675  16.450 -0.2475  0.1768  0.2982
 1725POPC   GL220692   7.215   4.400  16.361  0.1790 -0.1723  0.1557
 1725POPC   C1A20693   6.917   4.839  16.121  0.0273 -0.0141 -0.2990
 1725POPC   D2A20694   6.584   4.721  15.900  0.0683  0.1991 -0.1781
 1725POPC   C3A20695   6.317   4.376  15.980 -0.2317 -0.0420 -0.0255
 1725POPC   C4A20696   6.004   4.287  15.624 -0.1332 -0.0901 -0.1724
 1725POPC   C1B20697   6.780   4.356  16.286  0.2195  0.1901  0.1308
 1725POPC   C2B20698   6.395   4.143  16.448  0.1652 -0.1629  0.0594
 1725POPC   C3B20699   6.183   3.726  16.490  0.1884 -0.2412 -0.1520
 1725POPC   C4B20700   6.057   3.324  16.578 -0.2790  0.4217  0.5781
 1726POPC   NC320701   1.286   8.052  20.340  0.0918 -0.3263  0.1162
 1726POPC   PO420702   1.153   7.708  20.218 -0.1530  0.1656  0.2743
 1726POPC   GL120703   0.967   7.735  19.822  0.1583 -0.0530 -0.2421
 1726POPC   GL220704   0.740   7.549  19.790  0.0281  0.1914 -0.1338
 1726POPC   C1A20705   0.999   7.774  19.380  0.0234  0.0891 -0.3280
 1726POPC   D2A20706   1.246   7.832  19.019  0.4220 -0.0787  0.2519
 1726POPC   C3A20707   1.476   8.072  18.677  0.2794  0.1525  0.3297
 1726POPC   C4A20708   1.657   8.052  18.230 -0.1104 -0.0859 -0.2228
 1726POPC   C1B20709   0.523   7.643  19.401 -0.1767 -0.2772  0.1990
 1726POPC   C2B20710   0.655   7.859  18.998 -0.3210 -0.1291  0.0225
 1726POPC   C3B20711   0.933   8.047  18.603 -0.0479 -0.0513  0.2448
 1726POPC   C4B20712   1.190   7.889  18.231 -0.1299 -0.1282 -0.2170
 1727POPC   NC320713   9.501   7.217  17.698 -0.0791 -0.1863 -0.0850
 1727POPC   PO420714   9.845   7.279  17.535 -0.0834 -0.2793 -0.1893
 1727POPC   GL120715   9.982   7.576  17.408  0.1771 -0.2420 -0.2339
 1727POPC   GL220716   9.939   7.838  17.500 -0.1318  0.2063 -0.1311
 1727POPC   C1A20717  10.115   7.625  16.983  0.0326 -0.0363 -0.0244
 1727POPC   D2A20718  10.319   7.572  16.568  0.2542  0.1889  0.0937
 1727POPC   C3A20719  10.216   7.835  16.188  0.0576  0.1181  0.0522
 1727POPC   C4A20720   9.961   8.253  16.067  0.0532  0.0808 -0.3147
 1727POPC   C1B20721   9.694   7.901  17.128  0.2296  0.0277  0.0619
 1727POPC   C2B20722   9.501   8.126  16.812  0.2899  0.1967 -0.0675
 1727POPC   C3B20723   9.502   8.565  16.572 -0.0980 -0.0943 -0.0142
 1727POPC   C4B20724   9.558   8.974  16.376  0.2461  0.0929  0.2194
 1728POPC   NC320725   7.528   0.051  19.768  0.2586  0.3650 -0.0424
 1728POPC   PO420726   7.581  -0.338  19.829  0.1692  0.1218 -0.1516
 1728POPC   GL120727   7.343  -0.240  19.543  0.3926  0.0548 -0.1817
 1728POPC   GL220728   7.150  -0.423  19.555  0.1502 -0.1947  0.3097
 1728POPC   C1A20729   7.509  -0.485  19.167  0.1657 -0.2946  0.1298
 1728POPC   D2A20730   7.351  -0.683  18.769  0.2670  0.2151  0.3154
 1728POPC   C3A20731   7.511  -0.727  18.311  0.2610  0.3361 -0.1399
 1728POPC   C4A20732   7.778  -0.771  17.957  0.1048 -0.2414 -0.1393
 1728POPC   C1B20733   7.180  -0.846  19.352  0.0312 -0.0302 -0.3205
 1728POPC   C2B20734   6.884  -1.024  19.036  0.2542 -0.0795  0.3207
 1728POPC   C3B20735   6.574  -1.214  18.747 -0.0055  0.4141  0.0715
 1728POPC   C4B20736   6.385  -1.054  18.364  0.3286 -0.0768 -0.1480
 1729POPC   NC320737   7.748   6.804  17.112  0.0876  0.1666  0.2042
 1729POPC   PO420738   7.806   6.509  16.854  0.0054 -0.2146 -0.0021
 1729POPC   GL120739   7.410   6.553  16.677  0.2422  0.2063 -0.1700
 1729POPC   GL220740   7.468   6.828  16.626  0.0795 -0.1395 -0.2354
 1729POPC   C1A20741   7.128   6.433  16.336 -0.2309 -0.0165  0.1967
 1729POPC   D2A20742   6.840   6.627  16.004  0.1014  0.0112 -0.1218
 1729POPC   C3A20743   6.885   6.453  15.523  0.0748 -0.3089  0.1297
 1729POPC   C4A20744   6.519   6.252  15.367  0.0490 -0.0516  0.0108
 1729POPC   C1B20745   7.641   7.255  16.479  0.0183  0.0612  0.3381
 1729POPC   C2B20746   7.608   7.633  16.203  0.1610  0.1406  0.1850
 1729POPC   C3B20747   7.513   8.032  16.117 -0.0578 -0.1406  0.1105
 1729POPC   C4B20748   7.384   8.395  15.860 -0.1010  0.1539 -0.2108
 1730POPC   NC320749  12.281  14.576  20.348 -0.1674 -0.0592 -0.0384
 1730POPC   PO420750  12.260  14.209  20.480 -0.4109  0.5195 -0.2074
 1730POPC   GL120751  12.275  14.126  20.027 -0.0731 -0.1054 -0.0750
 1730POPC   GL220752  12.200  14.426  19.850 -0.0721 -0.2960 -0.1017
 1730POPC   C1A20753  12.352  13.824  19.626  0.1085  0.2580 -0.1194
 1730POPC   D2A20754  12.464  13.621  19.219  0.2258 -0.1816  0.1188
 1730POPC   C3A20755  12.626  13.736  18.847  0.3404 -0.1567  0.1562
 1730POPC   C4A20756  12.554  14.199  18.678  0.1565 -0.0495 -0.1956
 1730POPC   C1B20757  11.839  14.433  19.531 -0.0426 -0.2062 -0.0983
 1730POPC   C2B20758  11.542  14.620  19.245  0.0622 -0.1933 -0.1620
 1730POPC   C3B20759  11.303  14.281  18.942 -0.1066 -0.1142 -0.0629
 1730POPC   C4B20760  11.339  13.975  18.604 -0.0992 -0.0646 -0.0542
 1731POPC   NC320761  13.877  10.713  20.802 -0.2091  0.2569  0.1394
 1731POPC   PO420762  13.571  10.717  20.533  0.0109 -0.0544  0.0402
 1731POPC   GL120763  13.562  10.568  20.121 -0.4244  0.2583  0.3455
 1731POPC   GL220764  13.374  10.280  20.126 -0.2997  0.0100  0.1889
 1731POPC   C1A20765  13.919  10.466  19.821  0.1631  0.0736  0.0439
 1731POPC   D2A20766  14.057  10.479  19.357  0.2279  0.0256 -0.0603
 1731POPC   C3A20767  14.020  10.879  19.109 -0.1555  0.1327 -0.1058
 1731POPC   C4A20768  14.328  11.154  18.926 -0.0470 -0.0302 -0.0086
 1731POPC   C1B20769  13.510  10.196  19.704  0.0466 -0.0465 -0.2140
 1731POPC   C2B20770  13.569  10.027  19.308  0.0536 -0.3098  0.0740
 1731POPC   C3B20771  13.474   9.860  18.856  0.0927  0.0049  0.0707
 1731POPC   C4B20772  13.720   9.772  18.447  0.1047  0.3294  0.1425
 1732POPC   NC320773   7.545   3.755  16.794  0.1370  0.0086 -0.0701
 1732POPC   PO420774   7.738   4.103  16.661 -0.3272  0.2147  0.0555
 1732POPC   GL120775   7.402   3.954  16.369  0.0337  0.2470  0.2813
 1732POPC   GL220776   7.472   4.008  16.098 -0.2870  0.1649  0.3900
 1732POPC   C1A20777   7.250   3.532  16.171  0.0126 -0.1901 -0.3510
 1732POPC   D2A20778   7.058   3.149  16.244 -0.2048  0.3056  0.2159
 1732POPC   C3A20779   7.192   2.833  15.924  0.3202  0.2248 -0.0809
 1732POPC   C4A20780   7.228   2.431  15.742  0.3359  0.0173 -0.5016
 1732POPC   C1B20781   7.024   3.953  16.092 -0.0580 -0.1394 -0.1727
 1732POPC   C2B20782   6.582   3.916  15.962 -0.0062 -0.1181 -0.1257
 1732POPC   C3B20783   6.099   3.826  15.955 -0.0647 -0.2485  0.4504
 1732POPC   C4B20784   5.734   3.698  16.204  0.0544  0.3537 -0.2274
 1733POPC   NC320785   1.948  12.616  20.432  0.1778  0.0051  0.1528
 1733POPC   PO420786   1.743  12.926  20.490 -0.0967  0.0515  0.4764
 1733POPC   GL120787   1.896  12.950  20.102 -0.0008  0.1417  0.1793
 1733POPC   GL220788   1.590  13.104  20.042 -0.2071  0.0848 -0.0509
 1733POPC   C1A20789   1.889  12.904  19.634  0.1562 -0.0933 -0.0189
 1733POPC   D2A20790   2.102  12.633  19.267  0.3359  0.0217  0.2871
 1733POPC   C3A20791   1.877  12.567  18.900  0.2147  0.1295 -0.0039
 1733POPC   C4A20792   1.646  12.495  18.543  0.1479 -0.3031  0.0660
 1733POPC   C1B20793   1.849  13.432  19.906  0.1042 -0.0843 -0.1784
 1733POPC   C2B20794   1.961  13.357  19.489 -0.3824 -0.1097 -0.0515
 1733POPC   C3B20795   1.876  13.060  19.139  0.0076  0.0204 -0.0727
 1733POPC   C4B20796   1.714  12.983  18.703 -0.1344 -0.0391  0.2229
 1734POPC   NC320797   9.897   7.368  15.400 -0.2975  0.2146  0.1967
 1734POPC   PO420798   9.986   7.011  15.338 -0.2364 -0.0116 -0.1417
 1734POPC   GL120799  10.384   7.022  15.486  0.0311  0.0763  0.1252
 1734POPC   GL220800  10.614   7.001  15.393  0.0242 -0.0638  0.2349
 1734POPC   C1A20801  10.485   7.493  15.500  0.2004  0.0313  0.2222
 1734POPC   D2A20802  10.669   7.890  15.355  0.0296 -0.2053  0.1894
 1734POPC   C3A20803  10.556   8.090  14.954 -0.2097  0.1420 -0.0562
 1734POPC   C4A20804  10.210   8.365  14.822  0.3068  0.2138  0.3072
 1734POPC   C1B20805  10.767   7.294  15.108  0.2011 -0.1481  0.1782
 1734POPC   C2B20806  10.577   7.471  14.713  0.0927  0.1645 -0.6179
 1734POPC   C3B20807  10.711   7.717  14.435  0.1669 -0.2881  0.0598
 1734POPC   C4B20808  10.661   8.183  14.417 -0.1806 -0.0059  0.3095
 1735POPC   NC320809  15.656   2.955  19.414 -0.0353  0.0570  0.1415
 1735POPC   PO420810  15.671   3.322  19.466 -0.0397 -0.1414  0.1496
 1735POPC   GL120811  15.617   3.617  19.164  0.3069  0.1679  0.0864
 1735POPC   GL220812  15.434   3.526  19.055 -0.1576 -0.1987 -0.0679
 1735POPC   C1A20813  16.004   3.689  18.843 -0.0995  0.0034  0.3317
 1735POPC   D2A20814  16.322   3.639  18.455 -0.1006  0.1685 -0.1795
 1735POPC   C3A20815  16.195   3.314  18.143  0.0708  0.0030 -0.0086
 1735POPC   C4A20816  15.917   3.338  17.831 -0.1661 -0.1510  0.0994
 1735POPC   C1B20817  15.577   3.451  18.592  0.0272  0.2155  0.2127
 1735POPC   C2B20818  15.630   3.170  18.204  0.0938 -0.1186  0.2035
 1735POPC   C3B20819  15.395   3.019  17.848  0.1127  0.0062  0.2375
 1735POPC   C4B20820  14.987   3.073  17.614 -0.1852 -0.0827  0.0195
 1736POPC   NC320821   5.700  12.985  20.319  0.0178  0.3196  0.0192
 1736POPC   PO420822   5.686  13.372  20.263  0.3614 -0.1915 -0.2512
 1736POPC   GL120823   5.507  13.243  19.882  0.2181 -0.5093  0.0894
 1736POPC   GL220824   5.680  13.018  19.852 -0.0809 -0.1796  0.0521
 1736POPC   C1A20825   5.477  13.338  19.398 -0.0002 -0.0659  0.0335
 1736POPC   D2A20826   5.340  13.577  19.041  0.0670 -0.0015  0.2842
 1736POPC   C3A20827   5.565  13.368  18.687 -0.0403  0.4228 -0.0390
 1736POPC   C4A20828   6.011  13.437  18.450  0.1479  0.0734 -0.0879
 1736POPC   C1B20829   6.002  13.075  19.471  0.3889  0.2652  0.0805
 1736POPC   C2B20830   6.149  12.923  19.034 -0.2237 -0.0354  0.1572
 1736POPC   C3B20831   6.348  12.978  18.662  0.1509  0.1954  0.1174
 1736POPC   C4B20832   6.617  12.881  18.265  0.0802 -0.2242  0.0402
 1737POPC   NC320833   8.189  14.319  20.118  0.0575 -0.2734 -0.1494
 1737POPC   PO420834   8.094  14.002  20.293 -0.0782  0.0831 -0.0166
 1737POPC   GL120835   8.184  13.902  19.968  0.0018  0.0363  0.2038
 1737POPC   GL220836   8.538  14.011  19.952  0.1140 -0.0648 -0.1744
 1737POPC   C1A20837   8.033  13.679  19.601  0.0758 -0.1777 -0.1827
 1737POPC   D2A20838   8.279  13.695  19.200 -0.2274 -0.0644 -0.0133
 1737POPC   C3A20839   8.489  13.332  19.043  0.1106  0.2229 -0.0056
 1737POPC   C4A20840   8.933  13.325  18.820  0.1508  0.0136  0.0130
 1737POPC   C1B20841   8.331  14.249  19.638 -0.0240 -0.3921  0.1870
 1737POPC   C2B20842   8.529  14.302  19.209 -0.0382 -0.1875  0.2018
 1737POPC   C3B20843   8.821  14.418  18.942  0.1481 -0.1434 -0.0708
 1737POPC   C4B20844   8.876  14.890  18.868 -0.0726 -0.1279  0.0229
 1738POPC   NC320845   3.537   6.823  19.639 -0.0487  0.0367 -0.3347
 1738POPC   PO420846   3.855   6.606  19.629  0.0470  0.1309  0.0858
 1738POPC   GL120847   3.968   6.689  19.223  0.3490  0.3995 -0.3856
 1738POPC   GL220848   4.026   7.019  19.218  0.0703 -0.3072  0.2386
 1738POPC   C1A20849   3.687   6.722  18.841 -0.0047  0.0605 -0.2339
 1738POPC   D2A20850   3.430   6.873  18.517 -0.1519 -0.2523 -0.0133
 1738POPC   C3A20851   3.055   7.101  18.378  0.0335 -0.0612 -0.0659
 1738POPC   C4A20852   2.790   7.381  18.215  0.0255 -0.2716  0.0934
 1738POPC   C1B20853   4.127   7.433  18.992 -0.2694 -0.1655 -0.2017
 1738POPC   C2B20854   4.029   7.547  18.565  0.1148 -0.0922  0.1265
 1738POPC   C3B20855   4.146   7.740  18.134  0.1134  0.0849  0.1406
 1738POPC   C4B20856   3.920   8.098  17.966  0.0733  0.0215 -0.1883
 1739POPC   NC320857  11.105   7.640  18.741 -0.1690  0.2217 -0.1200
 1739POPC   PO420858  10.961   8.004  18.736  0.0071  0.0538  0.2652
 1739POPC   GL120859  11.074   8.378  18.624 -0.3151  0.0177 -0.0560
 1739POPC   GL220860  10.837   8.469  18.451 -0.0576  0.0767  0.2326
 1739POPC   C1A20861  11.536   8.537  18.507  0.2241  0.1551  0.3524
 1739POPC   D2A20862  11.972   8.608  18.378  0.1628 -0.0314  0.2777
 1739POPC   C3A20863  12.271   8.302  18.379  0.1511  0.0060 -0.2337
 1739POPC   C4A20864  12.596   8.070  18.156  0.2233 -0.0113  0.0655
 1739POPC   C1B20865  11.194   8.474  18.176  0.0604  0.1775 -0.0208
 1739POPC   C2B20866  11.535   8.647  17.990  0.0630  0.2790 -0.0795
 1739POPC   C3B20867  11.897   8.794  17.847 -0.1703  0.1944 -0.0064
 1739POPC   C4B20868  12.355   8.744  17.984 -0.0761 -0.0154 -0.1232
 1740POPC   NC320869  13.540   8.040  19.306 -0.0153  0.1155 -0.0271
 1740POPC   PO420870  13.613   8.072  19.705  0.0123 -0.1059 -0.1967
 1740POPC   GL120871  13.907   8.300  19.624  0.1318 -0.4052  0.0874
 1740POPC   GL220872  13.746   8.536  19.477 -0.2338 -0.2327 -0.3132
 1740POPC   C1A20873  14.194   8.059  19.290  0.1355 -0.0896 -0.3092
 1740POPC   D2A20874  14.589   7.922  19.108  0.0424 -0.2015  0.3904
 1740POPC   C3A20875  14.649   7.958  18.688 -0.0158  0.0361  0.1287
 1740POPC   C4A20876  14.752   8.011  18.254 -0.0865  0.3614 -0.2382
 1740POPC   C1B20877  13.880   8.429  19.039 -0.1750 -0.0016 -0.3554
 1740POPC   C2B20878  13.854   8.516  18.646  0.2057  0.0683  0.2120
 1740POPC   C3B20879  14.245   8.653  18.434  0.1834 -0.2391 -0.2686
 1740POPC   C4B20880  14.422   8.750  18.064 -0.2809  0.0672  0.0283
 1741POPC   NC320881  10.609   6.467  16.774 -0.0332  0.1642 -0.0657
 1741POPC   PO420882  10.990   6.444  16.535  0.0646 -0.1751 -0.0238
 1741POPC   GL120883  11.203   6.416  16.197 -0.0292 -0.0455 -0.1805
 1741POPC   GL220884  10.999   6.574  16.001 -0.1458 -0.1553 -0.2670
 1741POPC   C1A20885  11.595   6.602  16.145  0.0284  0.1628 -0.0182
 1741POPC   D2A20886  11.796   6.985  16.122  0.1360 -0.0190  0.0775
 1741POPC   C3A20887  11.966   7.337  15.847  0.4059  0.1680  0.1811
 1741POPC   C4A20888  12.380   7.484  15.635  0.2551  0.0946 -0.1206
 1741POPC   C1B20889  11.167   6.933  15.786  0.0817 -0.0689  0.0554
 1741POPC   C2B20890  11.023   7.434  15.716  0.2987 -0.0191  0.0058
 1741POPC   C3B20891  11.111   7.657  15.318 -0.3188  0.3182 -0.1685
 1741POPC   C4B20892  10.998   7.729  14.841 -0.2176  0.1445 -0.0584
 1742POPC   NC320893  10.534   6.244  12.968 -0.2544 -0.0158 -0.0788
 1742POPC   PO420894  10.879   6.435  12.866 -0.1794 -0.0256  0.1252
 1742POPC   GL120895  11.075   6.843  12.899  0.2957  0.1633  0.1303
 1742POPC   GL220896  11.034   6.797  13.189  0.1703  0.0915 -0.0011
 1742POPC   C1A20897  11.519   6.845  12.750 -0.0737  0.1269  0.1012
 1742POPC   D2A20898  11.872   6.836  12.464  0.0400  0.0143  0.0255
 1742POPC   C3A20899  11.963   6.552  12.163 -0.0532 -0.0260 -0.1839
 1742POPC   C4A20900  11.939   6.115  11.996  0.6702  0.0455 -0.3959
 1742POPC   C1B20901  11.282   7.170  13.256 -0.0908  0.1123 -0.3383
 1742POPC   C2B20902  11.244   7.418  12.939  0.0300 -0.1971  0.3524
 1742POPC   C3B20903  11.113   7.784  12.655 -0.0106  0.1332 -0.0268
 1742POPC   C4B20904  11.010   7.583  12.251 -0.1441  0.3000  0.1737
 1743POPC   NC320905   8.113   7.094  17.432 -0.2232  0.0133  0.0348
 1743POPC   PO420906   7.783   7.256  17.422 -0.0221 -0.3533  0.0147
 1743POPC   GL120907   7.708   7.572  17.247  0.1957 -0.4558 -0.4847
 1743POPC   GL220908   7.983   7.585  17.137 -0.1696  0.0244 -0.0707
 1743POPC   C1A20909   7.342   7.820  17.113 -0.0512  0.0150  0.3471
 1743POPC   D2A20910   7.007   8.137  17.179  0.2576 -0.0313  0.2667
 1743POPC   C3A20911   6.830   8.396  16.835  0.1795  0.1484 -0.1552
 1743POPC   C4A20912   6.454   8.606  16.638 -0.0739  0.3064  0.1631
 1743POPC   C1B20913   7.721   7.697  16.744  0.3820  0.1870  0.2650
 1743POPC   C2B20914   7.298   7.797  16.619 -0.1330 -0.1475 -0.0895
 1743POPC   C3B20915   6.893   7.923  16.568 -0.0396 -0.1938  0.0248
 1743POPC   C4B20916   6.509   7.997  16.401 -0.1678 -0.2492  0.3677
 1744POPC   NC320917   8.566  16.069  19.304 -0.0406  0.0513 -0.1347
 1744POPC   PO420918   8.673  15.841  19.620 -0.2260  0.1082 -0.0048
 1744POPC   GL120919   8.667  15.558  19.428 -0.0359 -0.3619  0.2319
 1744POPC   GL220920   8.514  15.297  19.421  0.4777 -0.0469  0.1479
 1744POPC   C1A20921   8.941  15.351  19.114 -0.0100  0.0251 -0.0454
 1744POPC   D2A20922   8.996  15.417  18.652  0.1237 -0.2761 -0.0772
 1744POPC   C3A20923   8.773  15.323  18.226 -0.1060 -0.1392  0.1213
 1744POPC   C4A20924   8.999  15.356  17.842 -0.0669  0.3751 -0.1686
 1744POPC   C1B20925   8.393  15.237  18.968  0.0079  0.1677  0.3475
 1744POPC   C2B20926   8.427  15.014  18.597  0.0913 -0.2761  0.0581
 1744POPC   C3B20927   8.245  14.731  18.257 -0.1959 -0.2242  0.0478
 1744POPC   C4B20928   7.923  14.478  18.176 -0.0339 -0.2626 -0.0091
 1745POPC   NC320929  15.536   6.242  19.564 -0.1134 -0.0563 -0.1841
 1745POPC   PO420930  15.834   5.943  19.426 -0.0842 -0.1197  0.0559
 1745POPC   GL120931  15.757   6.036  19.024 -0.0405 -0.0906  0.3396
 1745POPC   GL220932  15.502   6.073  18.917 -0.1336 -0.0365 -0.0557
 1745POPC   C1A20933  15.829   6.175  18.559  0.1392  0.5350  0.1935
 1745POPC   D2A20934  15.934   6.232  18.102  0.3393  0.0418  0.1471
 1745POPC   C3A20935  16.165   6.131  17.710 -0.3059 -0.1838  0.0904
 1745POPC   C4A20936  16.485   5.860  17.584  0.0507  0.3408  0.1856
 1745POPC   C1B20937  15.310   6.288  18.536 -0.0888 -0.0869  0.2157
 1745POPC   C2B20938  15.434   6.380  18.096 -0.0029  0.0087 -0.0137
 1745POPC   C3B20939  15.553   6.535  17.702 -0.0147  0.0273  0.1728
 1745POPC   C4B20940  15.783   6.268  17.389 -0.0348 -0.0242  0.0486
 1746POPC   NC320941  10.313   5.013  13.937 -0.1214  0.2938 -0.2356
 1746POPC   PO420942  10.157   5.095  14.317 -0.0607  0.2819  0.0901
 1746POPC   GL120943  10.453   4.835  14.373  0.2174  0.2415  0.4183
 1746POPC   GL220944  10.709   4.972  14.211 -0.0593 -0.0921 -0.4050
 1746POPC   C1A20945  10.622   4.438  14.265  0.1451  0.0421 -0.0805
 1746POPC   D2A20946  10.965   4.156  14.147  0.1511  0.0382  0.0011
 1746POPC   C3A20947  11.230   3.817  14.045  0.0493 -0.1136 -0.0910
 1746POPC   C4A20948  11.524   3.466  13.918 -0.3676 -0.0633  0.1031
 1746POPC   C1B20949  11.038   4.754  13.997  0.1357 -0.1309  0.2012
 1746POPC   C2B20950  11.174   4.609  13.515  0.2264 -0.2804 -0.0815
 1746POPC   C3B20951  11.158   4.301  13.159  0.1357 -0.3808  0.1460
 1746POPC   C4B20952  11.167   3.888  12.903 -0.1311 -0.0027  0.2136
 1747POPC   NC320953   7.504  12.597  20.557  0.0119 -0.4090  0.0260
 1747POPC   PO420954   7.163  12.634  20.385 -0.3074  0.0218  0.1202
 1747POPC   GL120955   7.318  12.618  20.077  0.0838 -0.0853  0.2134
 1747POPC   GL220956   7.389  12.409  19.921  0.0518  0.1696  0.0800
 1747POPC   C1A20957   7.555  12.836  19.757  0.2917 -0.1518 -0.0267
 1747POPC   D2A20958   7.584  12.951  19.348  0.2487 -0.2994 -0.0707
 1747POPC   C3A20959   7.290  12.640  19.216  0.3807  0.1494 -0.2022
 1747POPC   C4A20960   6.978  12.460  18.848 -0.1518 -0.0063 -0.0395
 1747POPC   C1B20961   7.580  12.329  19.460  0.0999  0.1356 -0.0811
 1747POPC   C2B20962   7.485  11.987  19.194 -0.1008 -0.1259  0.0913
 1747POPC   C3B20963   7.583  11.577  19.010  0.0748  0.0284 -0.4371
 1747POPC   C4B20964   7.790  11.223  19.283 -0.2513  0.0708  0.0474
 1748POPC   NC320965   4.991  12.920  20.812 -0.1899 -0.3279 -0.2669
 1748POPC   PO420966   4.838  13.261  20.646 -0.3562 -0.1930  0.1663
 1748POPC   GL120967   4.941  13.475  20.241 -0.1537  0.0141 -0.0708
 1748POPC   GL220968   5.189  13.575  20.188 -0.0320  0.0956  0.2104
 1748POPC   C1A20969   4.989  13.342  19.815 -0.2002  0.2099 -0.0930
 1748POPC   D2A20970   4.945  13.435  19.356  0.3278  0.1989 -0.1901
 1748POPC   C3A20971   4.926  13.251  18.921  0.0892  0.0415  0.0326
 1748POPC   C4A20972   4.975  13.194  18.445 -0.0354  0.1487  0.2364
 1748POPC   C1B20973   5.362  13.660  19.726 -0.1317 -0.1399 -0.0801
 1748POPC   C2B20974   5.174  13.916  19.418  0.0950  0.0080  0.0891
 1748POPC   C3B20975   4.720  14.071  19.432 -0.3080 -0.3615 -0.0340
 1748POPC   C4B20976   4.513  14.160  19.830  0.1382  0.1914 -0.2128
 1749POPC   NC320977  10.739  13.344  20.339 -0.1502  0.1376 -0.0380
 1749POPC   PO420978  10.745  13.739  20.423  0.0248  0.1503  0.1045
 1749POPC   GL120979  10.896  13.723  20.074  0.2509  0.2929 -0.1748
 1749POPC   GL220980  11.182  13.577  20.067 -0.0632  0.0986  0.0817
 1749POPC   C1A20981  10.825  13.915  19.659  0.2301  0.2055 -0.0237
 1749POPC   D2A20982  10.834  13.944  19.241  0.0782  0.2645  0.1123
 1749POPC   C3A20983  10.685  13.767  18.871  0.2107  0.2162  0.0694
 1749POPC   C4A20984  10.279  13.534  18.899  0.0930  0.1985  0.0073
 1749POPC   C1B20985  11.289  13.254  19.765  0.0819  0.1607 -0.0431
 1749POPC   C2B20986  11.222  13.050  19.360  0.1962 -0.0739  0.1386
 1749POPC   C3B20987  11.144  12.860  18.942 -0.0455 -0.0029 -0.1289
 1749POPC   C4B20988  11.546  12.779  18.701 -0.1688 -0.0324  0.3754
 1750POPC   NC320989  10.454   1.130  19.182 -0.1845 -0.1089 -0.0635
 1750POPC   PO420990  10.779   0.995  19.389 -0.2661 -0.0723  0.1287
 1750POPC   GL120991  10.721   0.645  19.104 -0.2810 -0.2177  0.2361
 1750POPC   GL220992  10.940   0.373  19.213  0.3515  0.0568  0.2916
 1750POPC   C1A20993  10.782   0.369  18.705  0.0630 -0.0685  0.0169
 1750POPC   D2A20994  10.946   0.313  18.334 -0.0930 -0.0683  0.1372
 1750POPC   C3A20995  11.379   0.458  18.435 -0.2070  0.2055  0.0710
 1750POPC   C4A20996  11.527   0.798  18.698 -0.0851  0.0646 -0.2393
 1750POPC   C1B20997  10.910  -0.018  18.954 -0.3413  0.2776  0.2418
 1750POPC   C2B20998  10.953  -0.373  18.664  0.3626 -0.1142 -0.3656
 1750POPC   C3B20999  10.771  -0.675  18.403  0.1806  0.0562 -0.1712
 1750POPC   C4B21000  10.681  -0.804  17.981  0.0328 -0.3730  0.2074
 1751POPC   NC321001   4.884   6.680  19.402  0.0477 -0.1151  0.0721
 1751POPC   PO421002   5.190   6.643  19.137  0.1794  0.0143  0.0520
 1751POPC   GL121003   4.886   6.642  18.881  0.2936 -0.0470 -0.0460
 1751POPC   GL221004   4.859   6.407  18.796  0.0714  0.0410 -0.2083
 1751POPC   C1A21005   4.699   6.809  18.509  0.0269 -0.0052 -0.2578
 1751POPC   D2A21006   4.733   6.665  18.100  0.1275  0.1046  0.2287
 1751POPC   C3A21007   4.523   6.936  17.794 -0.3538  0.0257  0.0306
 1751POPC   C4A21008   4.191   6.933  17.497 -0.1876  0.2368 -0.1775
 1751POPC   C1B21009   4.583   6.285  18.413  0.0614  0.2293  0.1070
 1751POPC   C2B21010   4.400   6.306  17.987 -0.1507 -0.0733  0.0132
 1751POPC   C3B21011   4.559   6.376  17.570 -0.1989  0.0763 -0.4421
 1751POPC   C4B21012   4.567   6.322  17.094 -0.0816  0.0960  0.0455
 1752POPC   NC321013  13.722  11.550  20.156 -0.0071 -0.0408 -0.1139
 1752POPC   PO421014  13.849  11.944  20.143  0.1741 -0.0145  0.0524
 1752POPC   GL121015  13.716  11.989  19.829  0.0198  0.3455 -0.0054
 1752POPC   GL221016  13.697  12.235  19.766 -0.1032 -0.2803 -0.2269
 1752POPC   C1A21017  13.547  11.828  19.457 -0.1514 -0.2362  0.3365
 1752POPC   D2A21018  13.267  11.449  19.307 -0.2264  0.0911 -0.0094
 1752POPC   C3A21019  13.390  11.387  18.842  0.1328  0.1725 -0.0705
 1752POPC   C4A21020  13.278  11.496  18.410  0.0605  0.2144 -0.2412
 1752POPC   C1B21021  13.426  12.304  19.392  0.0693 -0.1214 -0.0492
 1752POPC   C2B21022  13.449  12.586  19.013 -0.3698  0.2599  0.0352
 1752POPC   C3B21023  13.652  12.780  18.650  0.1612  0.0833  0.0350
 1752POPC   C4B21024  14.013  12.755  18.311 -0.1530 -0.2056  0.0251
 1753POPC   NC321025  10.130   8.024  17.967  0.2971  0.1765 -0.3350
 1753POPC   PO421026   9.783   8.166  17.918 -0.0414 -0.0528 -0.0571
 1753POPC   GL121027   9.869   8.258  17.504  0.2258  0.5364 -0.2074
 1753POPC   GL221028   9.581   8.238  17.468 -0.1440  0.2827 -0.0202
 1753POPC   C1A21029   9.909   8.742  17.420  0.0717  0.2879  0.3321
 1753POPC   D2A21030   9.926   9.162  17.190 -0.1372  0.0403  0.0179
 1753POPC   C3A21031   9.726   9.592  17.203  0.0020  0.0659 -0.1269
 1753POPC   C4A21032   9.454   9.964  17.258 -0.4150  0.1958  0.0745
 1753POPC   C1B21033   9.530   8.510  17.129  0.1275  0.0103  0.1907
 1753POPC   C2B21034   9.755   8.756  16.945 -0.0843 -0.1602  0.0508
 1753POPC   C3B21035   9.958   9.080  16.698 -0.3457  0.0143 -0.2652
 1753POPC   C4B21036  10.238   9.341  16.485 -0.0132 -0.1320  0.0722
 1754POPC   NC321037   7.967   6.809  16.510  0.1421 -0.1693  0.1079
 1754POPC   PO421038   8.301   6.603  16.478 -0.0075 -0.0154 -0.0416
 1754POPC   GL121039   8.438   7.011  16.387  0.2951  0.2439 -0.2050
 1754POPC   GL221040   8.388   7.154  16.571  0.0487 -0.2722 -0.1439
 1754POPC   C1A21041   8.211   7.292  16.152  0.1789  0.1920 -0.0130
 1754POPC   D2A21042   8.303   7.477  15.751 -0.2023 -0.0147 -0.1460
 1754POPC   C3A21043   8.624   7.756  15.618 -0.1089 -0.0187  0.1651
 1754POPC   C4A21044   8.834   8.033  15.350 -0.0478 -0.0735 -0.1015
 1754POPC   C1B21045   8.137   7.552  16.580 -0.0944 -0.5530  0.1229
 1754POPC   C2B21046   7.975   7.920  16.351 -0.1571 -0.4682  0.1296
 1754POPC   C3B21047   7.969   8.287  16.092 -0.0159 -0.1845  0.0741
 1754POPC   C4B21048   7.980   8.765  16.049 -0.0205  0.1210  0.2438
 1755POPC   NC321049  12.499   3.493  18.198 -0.2207  0.1348  0.2507
 1755POPC   PO421050  12.197   3.236  18.180 -0.0067  0.1164  0.0485
 1755POPC   GL121051  12.495   3.000  17.903  0.0867  0.1131  0.1827
 1755POPC   GL221052  12.655   2.988  18.108  0.0757  0.0493  0.1382
 1755POPC   C1A21053  12.377   2.757  17.508  0.0762  0.0288 -0.1052
 1755POPC   D2A21054  12.335   2.476  17.192  0.0190  0.3308  0.1996
 1755POPC   C3A21055  12.761   2.523  16.972  0.1445  0.2262  0.3324
 1755POPC   C4A21056  12.936   2.532  16.583 -0.0585 -0.0737 -0.0808
 1755POPC   C1B21057  12.724   2.598  17.825 -0.1565 -0.1204  0.0841
 1755POPC   C2B21058  12.665   2.256  17.543 -0.2098  0.1487 -0.1525
 1755POPC   C3B21059  12.843   1.879  17.373  0.0994  0.1001  0.0078
 1755POPC   C4B21060  13.017   1.724  17.032  0.1195 -0.0541  0.3683
 1756POPC   NC321061   9.597  16.234  19.431  0.2355  0.1417  0.1981
 1756POPC   PO421062  10.000  16.336  19.503 -0.1451 -0.1750  0.0325
 1756POPC   GL121063   9.986  16.124  19.119  0.1940  0.1247  0.0854
 1756POPC   GL221064  10.299  16.191  19.067 -0.4446 -0.1176  0.0401
 1756POPC   C1A21065   9.734  15.777  18.969 -0.1397  0.1028  0.0219
 1756POPC   D2A21066   9.509  15.525  18.639 -0.1172  0.2159  0.1150
 1756POPC   C3A21067   9.687  15.367  18.242  0.0315  0.1924  0.1725
 1756POPC   C4A21068   9.862  15.180  17.852 -0.0265 -0.0911 -0.1908
 1756POPC   C1B21069  10.236  16.175  18.596 -0.3776  0.4229  0.0322
 1756POPC   C2B21070  10.296  16.106  18.154  0.2235  0.2475  0.0970
 1756POPC   C3B21071  10.254  16.316  17.780 -0.2950 -0.3444  0.1396
 1756POPC   C4B21072   9.930  16.568  17.615 -0.3922  0.2531  0.3622
 1757POPC   NC321073   9.037  14.682  19.976  0.3224 -0.0655  0.2638
 1757POPC   PO421074   8.763  14.844  20.160  0.0374 -0.1728  0.1156
 1757POPC   GL121075   8.559  14.662  19.862  0.3603  0.2001  0.1229
 1757POPC   GL221076   8.312  14.771  19.795  0.0372  0.1650 -0.1326
 1757POPC   C1A21077   8.795  14.339  19.690 -0.5170 -0.1088 -0.2627
 1757POPC   D2A21078   8.677  13.916  19.460  0.1874 -0.3436  0.2314
 1757POPC   C3A21079   8.530  13.596  19.663 -0.0136 -0.2380 -0.0121
 1757POPC   C4A21080   8.562  13.149  19.773  0.1001  0.1506 -0.0413
 1757POPC   C1B21081   8.038  14.714  19.381 -0.1549  0.0989 -0.4268
 1757POPC   C2B21082   7.561  14.685  19.229 -0.1130  0.0701  0.2769
 1757POPC   C3B21083   7.312  14.404  18.907  0.0839  0.0777 -0.0612
 1757POPC   C4B21084   7.086  14.517  18.494 -0.0317 -0.0451 -0.1671
 1758POPC   NC321085   2.527  16.280  20.567 -0.0617 -0.3830 -0.0583
 1758POPC   PO421086   2.221  16.014  20.625 -0.1179 -0.3711 -0.0168
 1758POPC   GL121087   2.322  15.867  20.269  0.1433  0.0904 -0.0228
 1758POPC   GL221088   2.521  16.090  20.111  0.4626 -0.0332  0.4196
 1758POPC   C1A21089   2.319  15.548  19.922  0.2626  0.2048 -0.1112
 1758POPC   D2A21090   2.471  15.380  19.547  0.0840 -0.4006  0.2131
 1758POPC   C3A21091   2.367  15.447  19.088 -0.0065  0.1110  0.3906
 1758POPC   C4A21092   2.317  15.374  18.643  0.3469  0.0481 -0.2251
 1758POPC   C1B21093   2.457  16.014  19.679 -0.4089  0.0169 -0.0036
 1758POPC   C2B21094   2.400  16.136  19.229  0.0975  0.2747 -0.1259
 1758POPC   C3B21095   2.151  15.982  18.834 -0.1806 -0.0581 -0.2168
 1758POPC   C4B21096   1.991  15.809  18.460 -0.0412  0.1799  0.2623
 1759POPC   NC321097   1.595   1.611  20.567  0.0980  0.1701  0.0768
 1759POPC   PO421098   1.736   1.571  20.155 -0.0270  0.2425 -0.0577
 1759POPC   GL121099   1.836   1.693  19.799  0.0117  0.0678 -0.0102
 1759POPC   GL221100   1.564   1.689  19.714  0.1586 -0.0887  0.2282
 1759POPC   C1A21101   2.019   1.395  19.466  0.3332 -0.3724 -0.0439
 1759POPC   D2A21102   2.066   1.147  19.096  0.2426  0.2121  0.3119
 1759POPC   C3A21103   1.712   1.007  18.810  0.1189 -0.1278 -0.1026
 1759POPC   C4A21104   1.437   0.819  18.465  0.1550  0.0310 -0.4258
 1759POPC   C1B21105   1.285   1.613  19.370 -0.0006  0.0849  0.0695
 1759POPC   C2B21106   1.125   1.704  18.954  0.1776 -0.0928 -0.3821
 1759POPC   C3B21107   0.741   1.774  18.664  0.0262  0.0792  0.1706
 1759POPC   C4B21108   0.389   1.696  18.345 -0.0710 -0.1362 -0.2312
 1760POPC   NC321109  13.076  13.150  21.127  0.1365  0.0597 -0.2233
 1760POPC   PO421110  13.253  13.164  20.770  0.0937  0.1494 -0.0129
 1760POPC   GL121111  13.298  13.122  20.351  0.0439 -0.0575  0.1125
 1760POPC   GL221112  13.077  13.060  20.227 -0.1092  0.0239  0.1117
 1760POPC   C1A21113  13.540  12.923  19.994 -0.0058 -0.2035  0.1906
 1760POPC   D2A21114  13.894  12.707  19.799  0.1924  0.2263 -0.1604
 1760POPC   C3A21115  13.890  12.670  19.334 -0.1726 -0.3223 -0.2410
 1760POPC   C4A21116  14.016  12.642  18.897 -0.1282  0.0106 -0.0852
 1760POPC   C1B21117  13.273  13.425  19.982  0.1179  0.0274  0.2632
 1760POPC   C2B21118  13.155  13.602  19.594  0.1180 -0.2980 -0.1053
 1760POPC   C3B21119  12.943  13.435  19.213 -0.2585  0.1531  0.2458
 1760POPC   C4B21120  12.644  13.218  18.857  0.1711  0.0551  0.3188
 1761POPC   NC321121   9.581   2.974  17.064 -0.1725 -0.0126 -0.1023
 1761POPC   PO421122   9.885   3.127  16.913 -0.0542 -0.3196 -0.0107
 1761POPC   GL121123   9.761   2.866  16.612  0.1206 -0.1324 -0.1512
 1761POPC   GL221124   9.491   2.738  16.687  0.2739  0.1255  0.2408
 1761POPC   C1A21125   9.805   2.504  16.381  0.0718  0.2363 -0.0208
 1761POPC   D2A21126   9.581   2.113  16.246  0.0361 -0.2706 -0.0050
 1761POPC   C3A21127   9.541   2.169  15.777 -0.0301 -0.0525 -0.1101
 1761POPC   C4A21128   9.893   2.205  15.447  0.0582  0.0720  0.0236
 1761POPC   C1B21129   9.372   2.326  16.646  0.0462  0.2136 -0.0498
 1761POPC   C2B21130   9.134   2.096  16.391  0.0510  0.1089 -0.1052
 1761POPC   C3B21131   9.241   1.752  16.103 -0.2913  0.0431 -0.1549
 1761POPC   C4B21132   9.556   1.647  15.832 -0.1313  0.0924  0.0929
 1762POPC   NC321133   6.526  16.332  19.950 -0.0974 -0.3350 -0.0447
 1762POPC   PO421134   6.918  16.286  20.063 -0.0935 -0.1785  0.0850
 1762POPC   GL121135   6.973  16.039  19.730 -0.0015  0.0309 -0.1536
 1762POPC   GL221136   6.730  15.998  19.546 -0.2153 -0.0523  0.0148
 1762POPC   C1A21137   7.088  16.220  19.319 -0.1263  0.0329 -0.0494
 1762POPC   D2A21138   7.482  16.128  19.111  0.2128  0.1643 -0.3686
 1762POPC   C3A21139   7.581  15.952  18.695  0.0867  0.2177 -0.1986
 1762POPC   C4A21140   7.462  16.195  18.337  0.0689  0.0870 -0.0600
 1762POPC   C1B21141   6.651  15.941  19.100  0.0149 -0.4104 -0.0121
 1762POPC   C2B21142   6.356  15.838  18.773  0.0582  0.1985 -0.1524
 1762POPC   C3B21143   6.172  15.693  18.448  0.0694 -0.2404 -0.0794
 1762POPC   C4B21144   6.104  15.853  18.009  0.0225 -0.2994  0.1307
 1763POPC   NC321145   0.673   5.409  19.355 -0.0781 -0.0946 -0.0475
 1763POPC   PO421146   0.919   5.132  19.288  0.2618  0.1864  0.0472
 1763POPC   GL121147   0.920   5.053  18.915 -0.1735  0.3689  0.2251
 1763POPC   GL221148   0.725   5.293  18.849  0.1457 -0.0955 -0.0955
 1763POPC   C1A21149   0.899   4.990  18.451  0.0764  0.3406  0.2258
 1763POPC   D2A21150   1.040   4.755  18.048  0.2851 -0.1101 -0.0367
 1763POPC   C3A21151   0.977   4.953  17.643  0.0753 -0.0037  0.1452
 1763POPC   C4A21152   1.086   5.210  17.314 -0.0790 -0.4042  0.0601
 1763POPC   C1B21153   0.551   5.347  18.393  0.1871 -0.2506 -0.0668
 1763POPC   C2B21154   0.733   5.193  17.998  0.0920 -0.1137 -0.1847
 1763POPC   C3B21155   1.088   5.401  17.777 -0.0923  0.6050  0.1359
 1763POPC   C4B21156   1.314   5.790  17.710 -0.0790 -0.0907 -0.0582
 1764POPC   NC321157   1.652   0.576  20.200 -0.0003  0.2722  0.0310
 1764POPC   PO421158   1.297   0.691  20.350  0.2214  0.1840  0.0610
 1764POPC   GL121159   1.197   0.592  20.020 -0.1478 -0.1669 -0.2072
 1764POPC   GL221160   1.288   0.792  19.869 -0.0382  0.2310  0.0143
 1764POPC   C1A21161   0.963   0.321  19.679  0.0617  0.1009 -0.0245
 1764POPC   D2A21162   1.142  -0.053  19.387 -0.2015 -0.1178  0.0398
 1764POPC   C3A21163   0.976  -0.245  19.006 -0.2135 -0.2531 -0.1850
 1764POPC   C4A21164   0.672  -0.444  18.703 -0.2099  0.0692  0.1478
 1764POPC   C1B21165   1.238   0.805  19.422  0.0183  0.0118 -0.3154
 1764POPC   C2B21166   1.296   0.667  18.946  0.2404 -0.0187 -0.0079
 1764POPC   C3B21167   1.257   0.370  18.635  0.4772 -0.4041  0.2494
 1764POPC   C4B21168   0.975  -0.036  18.517  0.0785 -0.0688  0.0847
 1765POPC   NC321169   2.442  11.043  20.404 -0.2039 -0.0702 -0.1754
 1765POPC   PO421170   2.389  10.697  20.544 -0.0539  0.0191  0.2681
 1765POPC   GL121171   2.507  10.684  20.082  0.0070 -0.3563 -0.0224
 1765POPC   GL221172   2.764  10.855  20.073 -0.3824  0.0669 -0.2477
 1765POPC   C1A21173   2.329  11.021  19.800 -0.1063  0.0573  0.1809
 1765POPC   D2A21174   2.021  11.065  19.498 -0.2767  0.0461  0.3288
 1765POPC   C3A21175   2.247  11.096  19.019 -0.0901  0.0607  0.5064
 1765POPC   C4A21176   2.524  11.296  18.709 -0.2860  0.0650  0.4208
 1765POPC   C1B21177   2.734  10.746  19.645 -0.0837  0.2358 -0.1999
 1765POPC   C2B21178   3.028  10.928  19.290  0.1585  0.1369 -0.1596
 1765POPC   C3B21179   3.271  10.997  18.921 -0.1056  0.0074  0.1101
 1765POPC   C4B21180   3.408  10.994  18.509 -0.1990 -0.1973  0.2206
 1766POPC   NC321181  11.074   8.410  19.967  0.0941  0.0191 -0.1833
 1766POPC   PO421182  11.043   8.512  19.611 -0.0102  0.0746  0.1652
 1766POPC   GL121183  11.316   8.435  19.356 -0.0635 -0.3808 -0.2290
 1766POPC   GL221184  11.502   8.705  19.352  0.1249  0.2293  0.2911
 1766POPC   C1A21185  11.658   8.353  19.024  0.0471  0.0162  0.0476
 1766POPC   D2A21186  11.846   8.134  18.618 -0.1356 -0.0528 -0.1150
 1766POPC   C3A21187  11.596   8.156  18.180  0.0561 -0.0942  0.0472
 1766POPC   C4A21188  11.484   8.140  17.716  0.0938  0.0901 -0.1971
 1766POPC   C1B21189  11.732   8.868  19.011  0.0987  0.0203 -0.2910
 1766POPC   C2B21190  11.772   9.014  18.577  0.0545  0.4010 -0.1909
 1766POPC   C3B21191  12.088   9.088  18.243  0.1425 -0.0312 -0.0098
 1766POPC   C4B21192  12.509   9.207  18.213 -0.4934  0.0271 -0.0786
 1767POPC   NC321193   7.396   8.522  19.452 -0.0973 -0.0514 -0.2846
 1767POPC   PO421194   7.039   8.399  19.313 -0.2135  0.4054  0.2066
 1767POPC   GL121195   6.924   8.642  19.010 -0.0420 -0.1756  0.0794
 1767POPC   GL221196   7.075   8.916  19.114  0.0145  0.0592  0.1484
 1767POPC   C1A21197   6.870   8.742  18.568  0.0630 -0.5177  0.1727
 1767POPC   D2A21198   7.010   9.045  18.211  0.0827  0.2159  0.2237
 1767POPC   C3A21199   6.881   9.345  17.884 -0.1265 -0.0486  0.2807
 1767POPC   C4A21200   6.804   9.557  17.516  0.0832 -0.0915  0.1721
 1767POPC   C1B21201   7.004   9.245  18.777 -0.0375  0.0481 -0.0452
 1767POPC   C2B21202   6.861   9.515  18.426 -0.0156 -0.0103 -0.0686
 1767POPC   C3B21203   6.487   9.659  18.068  0.1905 -0.0009  0.0878
 1767POPC   C4B21204   6.038   9.675  17.920  0.2056 -0.1572  0.4548
 1768POPC   NC321205   2.306   9.136  20.210  0.1496  0.0027  0.3127
 1768POPC   PO421206   2.663   9.086  20.018 -0.1557  0.0580 -0.0640
 1768POPC   GL121207   2.590   9.373  19.688  0.5055  0.1345 -0.2286
 1768POPC   GL221208   2.436   9.291  19.412  0.5355 -0.0116 -0.2135
 1768POPC   C1A21209   2.924   9.695  19.524 -0.0322 -0.0312  0.3160
 1768POPC   D2A21210   3.322   9.989  19.372 -0.1709  0.2053  0.1833
 1768POPC   C3A21211   3.340  10.032  18.907 -0.0658 -0.0567 -0.0137
 1768POPC   C4A21212   3.433  10.044  18.443 -0.0724  0.1337  0.1384
 1768POPC   C1B21213   2.732   9.548  19.055 -0.0543 -0.2300 -0.2322
 1768POPC   C2B21214   2.784   9.291  18.607 -0.1241 -0.0326 -0.1395
 1768POPC   C3B21215   2.867   9.241  18.155  0.0446  0.1190 -0.1715
 1768POPC   C4B21216   2.833   9.492  17.824  0.0872 -0.0873  0.1102
 1769POPC   NC321217  10.449   4.053  16.119 -0.0026  0.0573  0.0173
 1769POPC   PO421218  10.487   3.804  16.402  0.0944  0.1742 -0.0977
 1769POPC   GL121219  10.807   3.788  16.155  0.0860  0.1097  0.4236
 1769POPC   GL221220  11.042   3.963  16.252 -0.1752  0.0877 -0.3544
 1769POPC   C1A21221  11.112   3.546  15.909  0.1641  0.1536 -0.1202
 1769POPC   D2A21222  11.500   3.413  15.659  0.0053  0.3970 -0.2870
 1769POPC   C3A21223  11.474   3.025  15.488  0.1473 -0.0136 -0.1077
 1769POPC   C4A21224  11.457   2.698  15.254 -0.0708  0.4149 -0.2692
 1769POPC   C1B21225  11.448   3.985  16.083 -0.0614  0.1830 -0.0359
 1769POPC   C2B21226  11.657   3.944  15.678  0.0320  0.0956  0.0106
 1769POPC   C3B21227  11.877   3.685  15.368 -0.0926 -0.2167  0.1518
 1769POPC   C4B21228  11.834   3.252  15.228 -0.0738  0.1248  0.2638
 1770POPC   NC321229   0.983  13.539  20.684 -0.1108 -0.1516 -0.0204
 1770POPC   PO421230   1.038  13.191  20.861 -0.0433  0.0286 -0.0947
 1770POPC   GL121231   0.943  13.085  20.495 -0.1571 -0.2456  0.2417
 1770POPC   GL221232   1.130  13.016  20.329 -0.2160  0.0927  0.0794
 1770POPC   C1A21233   0.602  13.028  20.180 -0.2024 -0.1802 -0.0776
 1770POPC   D2A21234   0.584  12.985  19.684  0.3117  0.0070 -0.2660
 1770POPC   C3A21235   0.817  12.734  19.454  0.3743  0.3852  0.4121
 1770POPC   C4A21236   1.138  12.531  19.209  0.0476  0.0262 -0.2378
 1770POPC   C1B21237   1.048  12.921  19.865 -0.2733 -0.1015  0.0275
 1770POPC   C2B21238   1.379  12.891  19.542 -0.3401  0.0799 -0.0718
 1770POPC   C3B21239   1.347  12.962  19.080  0.0668 -0.3874  0.2151
 1770POPC   C4B21240   1.172  12.813  18.689  0.1921 -0.1210 -0.0319
 1771POPC   NC321241   1.645  16.551  20.957 -0.2573 -0.1465 -0.3703
 1771POPC   PO421242   1.512  16.796  20.679  0.1063  0.0992  0.3489
 1771POPC   GL121243   1.519  16.597  20.318  0.3262 -0.1898 -0.0533
 1771POPC   GL221244   1.675  16.480  20.121 -0.0762  0.0064 -0.1459
 1771POPC   C1A21245   1.223  16.637  19.915 -0.0680 -0.1800  0.2284
 1771POPC   D2A21246   1.258  16.675  19.422  0.0263 -0.0382 -0.0797
 1771POPC   C3A21247   1.376  16.250  19.238  0.1646 -0.0621 -0.1872
 1771POPC   C4A21248   1.534  15.848  19.229 -0.0328  0.1080 -0.0313
 1771POPC   C1B21249   1.666  16.376  19.704  0.0755 -0.0242  0.2094
 1771POPC   C2B21250   1.871  16.217  19.329 -0.2298  0.1575  0.1998
 1771POPC   C3B21251   1.687  16.218  18.855  0.1093  0.0931  0.1060
 1771POPC   C4B21252   1.539  16.219  18.456 -0.1602  0.0485  0.1365
 1772POPC   NC321253  11.382   5.390  17.095  0.0455  0.1148 -0.2098
 1772POPC   PO421254  11.194   5.565  16.814  0.1318 -0.5261  0.1758
 1772POPC   GL121255  11.613   5.675  16.726  0.4423  0.2730  0.1291
 1772POPC   GL221256  11.663   5.479  16.550  0.2244  0.1193 -0.0098
 1772POPC   C1A21257  11.792   6.021  16.426  0.0745  0.1538  0.1576
 1772POPC   D2A21258  12.217   6.099  16.161  0.0558  0.0257 -0.1408
 1772POPC   C3A21259  12.196   6.517  16.143  0.1144  0.3215  0.5700
 1772POPC   C4A21260  12.249   7.023  16.294 -0.2368 -0.1637  0.0035
 1772POPC   C1B21261  12.017   5.338  16.270 -0.0636  0.3934  0.0819
 1772POPC   C2B21262  12.360   5.601  16.129 -0.2013 -0.1291 -0.1486
 1772POPC   C3B21263  12.718   5.890  16.095  0.0697 -0.0929 -0.0864
 1772POPC   C4B21264  13.149   5.782  16.250 -0.0497 -0.3772 -0.1885
 1773POPC   NC321265   5.833   5.478  18.374 -0.1663 -0.1398 -0.0852
 1773POPC   PO421266   5.648   5.229  18.161 -0.0232 -0.3251 -0.0006
 1773POPC   GL121267   5.473   5.512  17.866 -0.0822 -0.2648  0.4302
 1773POPC   GL221268   5.238   5.337  17.816 -0.2100 -0.1416  0.2616
 1773POPC   C1A21269   5.303   5.825  17.542  0.0498  0.0931 -0.4137
 1773POPC   D2A21270   5.137   6.275  17.415  0.0479  0.1766  0.0019
 1773POPC   C3A21271   5.124   6.240  16.998  0.1648 -0.3895 -0.0126
 1773POPC   C4A21272   5.287   6.168  16.571  0.2013 -0.0928 -0.0658
 1773POPC   C1B21273   4.863   5.443  17.643 -0.2605  0.1688 -0.0875
 1773POPC   C2B21274   4.512   5.458  17.331 -0.3201  0.1386  0.1192
 1773POPC   C3B21275   4.056   5.364  17.454 -0.3163  0.0657  0.0255
 1773POPC   C4B21276   3.691   5.222  17.188  0.2126 -0.2107 -0.1988
 1774POPC   NC321277   7.279   7.348  17.746  0.0128  0.1139  0.0203
 1774POPC   PO421278   7.149   7.675  17.987 -0.0210 -0.0909 -0.1428
 1774POPC   GL121279   7.030   7.993  17.735  0.0609  0.5229 -0.2479
 1774POPC   GL221280   6.787   7.800  17.617 -0.0075  0.1364 -0.1708
 1774POPC   C1A21281   6.712   8.318  17.599 -0.0995  0.2686  0.2229
 1774POPC   D2A21282   6.475   8.458  17.266  0.0542 -0.2822  0.0333
 1774POPC   C3A21283   6.140   8.295  16.967  0.0417  0.1207 -0.3015
 1774POPC   C4A21284   6.055   8.059  16.600 -0.4533  0.0909  0.2425
 1774POPC   C1B21285   6.377   7.928  17.392 -0.0861  0.1257  0.0023
 1774POPC   C2B21286   6.056   8.238  17.465 -0.1034  0.1229  0.4395
 1774POPC   C3B21287   5.742   8.547  17.489  0.0055  0.0157  0.0681
 1774POPC   C4B21288   5.466   8.940  17.467  0.1274  0.0715  0.5094
 1775POPC   NC321289  14.709  32.521  20.522 -0.0362 -0.1027 -0.0937
 1775POPC   PO421290  15.090  32.552  20.521 -0.3074 -0.1154  0.3817
 1775POPC   GL121291  14.994  32.369  20.176  0.2571  0.1223 -0.0187
 1775POPC   GL221292  15.103  32.439  20.016 -0.2911 -0.1677  0.0684
 1775POPC   C1A21293  14.758  32.005  19.959  0.2240 -0.0217  0.3075
 1775POPC   D2A21294  14.628  31.521  19.804  0.0218 -0.0505  0.0988
 1775POPC   C3A21295  14.646  31.527  19.342  0.1719  0.0403 -0.1479
 1775POPC   C4A21296  14.581  31.303  18.963 -0.0041 -0.0391  0.4898
 1775POPC   C1B21297  15.156  32.252  19.536 -0.0046  0.1525  0.1724
 1775POPC   C2B21298  15.331  32.332  19.122 -0.0256 -0.2415  0.0457
 1775POPC   C3B21299  15.200  32.559  18.724  0.0089 -0.3984 -0.2521
 1775POPC   C4B21300  15.279  32.686  18.334 -0.3291 -0.1324 -0.3780
 1776POPC   NC321301  10.906  14.422  19.832  0.1235  0.0102  0.4345
 1776POPC   PO421302  10.978  14.564  20.154  0.0059  0.1241 -0.3393
 1776POPC   GL121303  11.384  14.266  19.919  0.0464 -0.3652  0.1724
 1776POPC   GL221304  11.224  14.057  20.002  0.1838 -0.0520  0.1576
 1776POPC   C1A21305  11.313  14.209  19.478 -0.1451 -0.3850  0.1126
 1776POPC   D2A21306  11.408  13.847  19.164 -0.0183  0.1705  0.1608
 1776POPC   C3A21307  11.776  13.758  18.925  0.1690  0.0286  0.1413
 1776POPC   C4A21308  12.181  13.938  18.946  0.0290 -0.1343 -0.2384
 1776POPC   C1B21309  11.421  13.752  19.690  0.1755 -0.0710 -0.3451
 1776POPC   C2B21310  11.595  13.461  19.353  0.0057  0.1013 -0.0661
 1776POPC   C3B21311  11.696  13.235  18.996  0.0710 -0.2184 -0.0780
 1776POPC   C4B21312  11.787  13.313  18.555  0.2241 -0.0218 -0.0865
 1777POPC   NC321313   9.930   6.700  14.988 -0.3049  0.0682 -0.0904
 1777POPC   PO421314   9.548   6.789  15.019  0.3212  0.3607  0.1012
 1777POPC   GL121315   9.492   7.116  15.216  0.0876  0.2406 -0.0862
 1777POPC   GL221316   9.217   7.205  15.206  0.0617 -0.3409 -0.0609
 1777POPC   C1A21317   9.441   7.456  14.897 -0.2062  0.2001  0.1031
 1777POPC   D2A21318   9.376   7.859  14.690  0.0853  0.0337  0.0586
 1777POPC   C3A21319   9.348   8.292  14.842  0.0929 -0.1900  0.0338
 1777POPC   C4A21320   9.233   8.720  14.860  0.0098  0.1358  0.0097
 1777POPC   C1B21321   9.085   7.633  15.180  0.0947 -0.1210  0.3702
 1777POPC   C2B21322   8.911   7.898  14.825 -0.1685  0.1821 -0.0523
 1777POPC   C3B21323   8.880   8.394  14.770 -0.0009  0.3343 -0.0117
 1777POPC   C4B21324   8.603   8.768  14.788 -0.1121  0.3846 -0.0895
 1778POPC   NC321325   8.811   7.101  17.079  0.1229  0.0603 -0.0740
 1778POPC   PO421326   8.481   7.343  17.051 -0.0003 -0.1667  0.0695
 1778POPC   GL121327   8.495   7.679  16.895 -0.1359  0.4446  0.0224
 1778POPC   GL221328   8.711   7.606  16.683  0.3437 -0.0278 -0.0603
 1778POPC   C1A21329   8.141   7.992  16.866 -0.2676 -0.2087  0.0865
 1778POPC   D2A21330   7.987   8.370  16.629  0.2454  0.2168 -0.2002
 1778POPC   C3A21331   7.604   8.528  16.357 -0.0411  0.1978 -0.0005
 1778POPC   C4A21332   7.354   8.885  16.393  0.4444 -0.3291 -0.3346
 1778POPC   C1B21333   8.972   7.873  16.486  0.2159 -0.1141  0.1563
 1778POPC   C2B21334   9.338   8.126  16.348  0.3124  0.0026  0.1361
 1778POPC   C3B21335   9.398   8.336  15.938  0.2966  0.2931 -0.1833
 1778POPC   C4B21336   9.737   8.676  15.891 -0.5231 -0.2608  0.0402
 1779POPC   NC321337  10.356   0.584  20.341 -0.0650 -0.0921  0.1657
 1779POPC   PO421338  10.145   0.623  20.012  0.3206  0.2299  0.1783
 1779POPC   GL121339  10.395   0.362  19.768 -0.1222 -0.4072 -0.0177
 1779POPC   GL221340  10.367   0.363  19.523 -0.3801 -0.1521 -0.1129
 1779POPC   C1A21341  10.512  -0.079  19.645 -0.2192  0.0566 -0.0555
 1779POPC   D2A21342  10.604  -0.484  19.533 -0.2143  0.0749  0.2861
 1779POPC   C3A21343  10.884  -0.551  19.168 -0.0366 -0.0083 -0.2377
 1779POPC   C4A21344  11.070  -0.852  18.867  0.1707 -0.1757 -0.1473
 1779POPC   C1B21345  10.458   0.158  19.140 -0.4662  0.0471  0.0236
 1779POPC   C2B21346  10.398  -0.254  19.032 -0.0364 -0.0182  0.0020
 1779POPC   C3B21347  10.266  -0.524  18.682 -0.0863 -0.2004 -0.0382
 1779POPC   C4B21348  10.303  -0.557  18.230  0.2561 -0.0268 -0.0208
 1780POPC   NC321349  12.138   4.998  18.386 -0.1125  0.0091 -0.1002
 1780POPC   PO421350  12.473   4.894  18.560 -0.1537 -0.2399  0.4536
 1780POPC   GL121351  12.601   5.216  18.392 -0.0683  0.3053 -0.1279
 1780POPC   GL221352  12.908   5.120  18.407  0.0983 -0.0058  0.0301
 1780POPC   C1A21353  12.714   5.310  17.950 -0.0126  0.0135 -0.1410
 1780POPC   D2A21354  12.859   5.063  17.582 -0.0879  0.0811 -0.1474
 1780POPC   C3A21355  13.296   5.273  17.427  0.3238 -0.2186  0.0506
 1780POPC   C4A21356  13.707   5.511  17.338 -0.2925  0.2532  0.1961
 1780POPC   C1B21357  13.118   4.952  18.009  0.0893  0.3913  0.0404
 1780POPC   C2B21358  13.499   4.840  17.711 -0.1670 -0.3862  0.0373
 1780POPC   C3B21359  13.694   4.981  17.296  0.0319 -0.0560  0.2798
 1780POPC   C4B21360  13.832   4.882  16.891  0.2273  0.1425  0.0809
 1781POPC   NC321361   4.933   1.528  19.328 -0.0633 -0.2213  0.1317
 1781POPC   PO421362   4.962   1.888  19.143 -0.1100  0.0566 -0.0774
 1781POPC   GL121363   4.713   1.799  18.832 -0.1393  0.3787 -0.2786
 1781POPC   GL221364   4.682   2.045  18.724 -0.0972  0.0455 -0.1725
 1781POPC   C1A21365   4.860   1.633  18.437  0.0540 -0.0770 -0.1470
 1781POPC   D2A21366   4.516   1.480  18.144 -0.1761  0.0908  0.0014
 1781POPC   C3A21367   4.236   1.727  17.964 -0.0707 -0.2189 -0.0324
 1781POPC   C4A21368   4.317   1.760  17.511 -0.0756  0.0725  0.1841
 1781POPC   C1B21369   4.470   2.159  18.371 -0.0761  0.1972  0.0558
 1781POPC   C2B21370   4.243   2.266  18.018 -0.0217  0.1201 -0.0114
 1781POPC   C3B21371   3.973   2.313  17.661 -0.2459  0.0556  0.0247
 1781POPC   C4B21372   3.724   2.451  17.249  0.0101  0.0402  0.0493
 1782POPC   NC321373   9.634  12.120  20.596 -0.1949  0.1998  0.2407
 1782POPC   PO421374   9.857  12.436  20.460 -0.0225  0.3288  0.1610
 1782POPC   GL121375   9.821  12.471  20.079  0.2180 -0.0038 -0.3372
 1782POPC   GL221376  10.048  12.468  19.969 -0.0402 -0.2661 -0.0912
 1782POPC   C1A21377   9.557  12.725  19.842  0.0595 -0.0099 -0.2117
 1782POPC   D2A21378   9.193  13.047  19.946  0.3339  0.0281  0.0177
 1782POPC   C3A21379   9.110  13.309  19.649 -0.2053  0.1355  0.0966
 1782POPC   C4A21380   8.904  13.513  19.298  0.1763  0.0568 -0.0429
 1782POPC   C1B21381   9.970  12.640  19.558  0.2109 -0.1668  0.0784
 1782POPC   C2B21382  10.131  12.952  19.296  0.1387 -0.2432  0.0389
 1782POPC   C3B21383  10.342  12.945  18.866 -0.1651 -0.1152  0.0365
 1782POPC   C4B21384  10.317  12.838  18.415  0.2296  0.2643  0.1509
 1783POPC   NC321385   0.914   0.982  20.073  0.0223 -0.2364  0.0290
 1783POPC   PO421386   0.750   1.309  20.112  0.1555 -0.1590  0.1731
 1783POPC   GL121387   0.786   1.383  19.707  0.0494 -0.0758 -0.1785
 1783POPC   GL221388   1.022   1.249  19.567  0.1392 -0.0606  0.1759
 1783POPC   C1A21389   0.768   1.558  19.253  0.0836 -0.0284 -0.0007
 1783POPC   D2A21390   0.561   1.994  19.143 -0.2134  0.1424 -0.1508
 1783POPC   C3A21391   0.930   2.172  18.927 -0.0050  0.1690 -0.1235
 1783POPC   C4A21392   1.113   2.251  18.516  0.0585 -0.0855 -0.2927
 1783POPC   C1B21393   1.044   1.219  19.081 -0.2384 -0.3463  0.1673
 1783POPC   C2B21394   1.250   1.275  18.683 -0.0962  0.0508  0.0722
 1783POPC   C3B21395   1.541   1.241  18.298 -0.3359 -0.0933 -0.0112
 1783POPC   C4B21396   1.578   0.922  17.977 -0.0182 -0.0523 -0.3124
 1784POPC   NC321397  14.018   7.812  19.744  0.0245  0.2339  0.0710
 1784POPC   PO421398  14.045   7.990  20.079 -0.1887 -0.2309 -0.2656
 1784POPC   GL121399  14.407   8.049  19.983 -0.3147 -0.3482 -0.2445
 1784POPC   GL221400  14.335   8.233  19.716 -0.3218  0.1077 -0.0392
 1784POPC   C1A21401  14.556   7.827  19.572  0.2745  0.1488  0.1669
 1784POPC   D2A21402  15.041   7.870  19.455  0.1737  0.1228  0.1234
 1784POPC   C3A21403  15.134   7.878  19.003 -0.0247  0.2084  0.0872
 1784POPC   C4A21404  15.092   7.614  18.659 -0.2689  0.1695  0.1497
 1784POPC   C1B21405  14.685   8.378  19.357  0.0932  0.0080  0.0167
 1784POPC   C2B21406  14.882   8.295  18.990 -0.1193  0.1730  0.0194
 1784POPC   C3B21407  15.136   8.213  18.568  0.1016 -0.2056  0.0411
 1784POPC   C4B21408  15.467   8.445  18.376  0.0252  0.1776  0.3516
 1785POPC   NC321409  16.042   9.133  20.527 -0.0318  0.1897 -0.0169
 1785POPC   PO421410  15.847   9.406  20.335 -0.3628  0.1829 -0.2162
 1785POPC   GL121411  15.623   9.745  20.189  0.1246 -0.2860 -0.0505
 1785POPC   GL221412  15.761   9.713  19.929 -0.1270  0.1388 -0.0706
 1785POPC   C1A21413  15.380  10.002  19.826  0.1815 -0.1844 -0.3450
 1785POPC   D2A21414  15.287  10.377  19.620 -0.0715  0.0793 -0.0105
 1785POPC   C3A21415  15.320  10.521  19.168 -0.1418  0.0565 -0.2144
 1785POPC   C4A21416  15.341  10.265  18.790  0.0974 -0.1102 -0.3737
 1785POPC   C1B21417  15.504   9.654  19.515 -0.0805  0.0178  0.1920
 1785POPC   C2B21418  15.495   9.599  19.095  0.0414  0.3467  0.3236
 1785POPC   C3B21419  15.415   9.729  18.651  0.1224 -0.0430 -0.0245
 1785POPC   C4B21420  15.238  10.024  18.356  0.2941 -0.4058  0.1255
 1786POPC   NC321421   5.956   6.223  18.983 -0.3075 -0.0659 -0.3389
 1786POPC   PO421422   6.060   6.524  18.765  0.5443 -0.1630 -0.1739
 1786POPC   GL121423   6.093   6.623  18.358  0.0854  0.4279  0.1910
 1786POPC   GL221424   6.234   6.848  18.337 -0.1562 -0.0132  0.1390
 1786POPC   C1A21425   5.943   6.653  17.911 -0.3577  0.0709 -0.0760
 1786POPC   D2A21426   5.604   6.588  17.651  0.1858 -0.0577  0.0061
 1786POPC   C3A21427   5.435   6.928  17.886  0.0973  0.1344  0.2929
 1786POPC   C4A21428   5.137   7.107  18.181 -0.0809  0.1747 -0.1455
 1786POPC   C1B21429   6.287   7.066  17.908  0.0485 -0.3047 -0.3121
 1786POPC   C2B21430   6.519   7.156  17.509 -0.3654 -0.1294  0.0774
 1786POPC   C3B21431   6.250   7.400  17.178 -0.0506 -0.1348  0.1599
 1786POPC   C4B21432   5.934   7.754  17.064 -0.2465  0.0310 -0.4135
 1787POPC   NC321433  16.341   5.947  19.444  0.0647  0.3561 -0.0368
 1787POPC   PO421434  16.703   5.774  19.519  0.1424 -0.1255 -0.1964
 1787POPC   GL121435  16.574   5.768  19.110 -0.0641 -0.0345 -0.3328
 1787POPC   GL221436  16.770   5.667  18.982  0.1866 -0.3648 -0.0554
 1787POPC   C1A21437  16.431   5.585  18.691  0.1530  0.3308 -0.0623
 1787POPC   D2A21438  16.416   5.290  18.304  0.0266  0.2839 -0.0390
 1787POPC   C3A21439  16.663   5.340  17.903 -0.0164  0.0706 -0.0627
 1787POPC   C4A21440  17.013   5.578  17.730 -0.1213  0.2172 -0.3204
 1787POPC   C1B21441  16.657   5.229  19.085 -0.0113 -0.2233  0.2037
 1787POPC   C2B21442  16.588   5.054  18.689 -0.1722 -0.1167  0.2892
 1787POPC   C3B21443  16.752   4.908  18.271 -0.1048  0.0267  0.2483
 1787POPC   C4B21444  16.955   4.752  17.871 -0.1829 -0.1905  0.0857
 1788POPC   NC321445  12.122  11.594  20.472  0.0967  0.2882 -0.1017
 1788POPC   PO421446  12.502  11.535  20.411 -0.0162  0.0187  0.2611
 1788POPC   GL121447  12.304  11.669  20.017  0.4400  0.0235  0.1497
 1788POPC   GL221448  12.429  11.460  19.845  0.2603  0.2093  0.0973
 1788POPC   C1A21449  12.135  12.108  19.838  0.0397 -0.2210 -0.1509
 1788POPC   D2A21450  12.301  12.517  19.866 -0.1505  0.0014  0.1982
 1788POPC   C3A21451  12.202  12.738  19.455 -0.1302  0.0726 -0.0532
 1788POPC   C4A21452  11.776  12.929  19.387 -0.1532 -0.0752 -0.0982
 1788POPC   C1B21453  12.423  11.120  19.584  0.3254  0.1141 -0.3958
 1788POPC   C2B21454  12.683  11.023  19.184  0.0669 -0.3979 -0.3249
 1788POPC   C3B21455  12.848  11.249  18.789  0.0634 -0.0654 -0.0346
 1788POPC   C4B21456  12.694  11.222  18.354 -0.1469  0.1267  0.2073
 1789POPC   NC321457   9.569   2.602  18.572  0.1198  0.2391 -0.1566
 1789POPC   PO421458   9.687   2.208  18.563 -0.2209 -0.0364 -0.0827
 1789POPC   GL121459   9.750   1.822  18.371  0.2804  0.3592  0.0098
 1789POPC   GL221460   9.826   1.613  18.546  0.0159  0.0890 -0.0698
 1789POPC   C1A21461   9.414   1.658  18.053 -0.2353 -0.0083 -0.0067
 1789POPC   D2A21462   9.146   1.583  17.649 -0.3692  0.2682 -0.2322
 1789POPC   C3A21463   9.346   1.317  17.340  0.2194 -0.1851 -0.0832
 1789POPC   C4A21464   9.713   1.032  17.227 -0.3359  0.0244 -0.0143
 1789POPC   C1B21465   9.819   1.249  18.864  0.0811  0.1127  0.1491
 1789POPC   C2B21466  10.042   0.839  18.943  0.2794  0.0059  0.0971
 1789POPC   C3B21467  10.335   0.597  18.722 -0.0695 -0.2508 -0.0478
 1789POPC   C4B21468  10.199   0.409  18.354  0.0214  0.1216  0.0969
 1790POPC   NC321469   5.310   3.930  18.694  0.0766 -0.2340  0.4189
 1790POPC   PO421470   4.962   3.994  18.896 -0.2997  0.0407  0.2216
 1790POPC   GL121471   4.841   3.803  18.589  0.0213  0.1197 -0.1796
 1790POPC   GL221472   4.980   3.908  18.332 -0.1026  0.0607 -0.4371
 1790POPC   C1A21473   4.471   3.901  18.289  0.2838 -0.0441 -0.1495
 1790POPC   D2A21474   4.213   3.895  17.931  0.0781 -0.1702  0.0040
 1790POPC   C3A21475   3.814   4.011  17.835 -0.0419 -0.0882  0.2013
 1790POPC   C4A21476   3.389   4.263  17.905 -0.0592 -0.0704  0.2981
 1790POPC   C1B21477   4.773   3.985  17.884 -0.0543 -0.1140  0.1751
 1790POPC   C2B21478   4.743   4.043  17.398  0.3442 -0.1843 -0.2642
 1790POPC   C3B21479   4.603   4.033  16.960  0.1418 -0.0953  0.2707
 1790POPC   C4B21480   4.896   3.930  16.617 -0.0928  0.1112 -0.1151
 1791POPC   NC321481   2.814   9.662  19.994 -0.0565 -0.0412 -0.0014
 1791POPC   PO421482   2.480   9.778  20.107 -0.0657  0.1590  0.0282
 1791POPC   GL121483   2.324   9.757  19.786 -0.2335  0.3827  0.0962
 1791POPC   GL221484   2.029   9.860  19.829 -0.0841 -0.2261  0.2540
 1791POPC   C1A21485   2.452   9.831  19.393 -0.5045 -0.0303  0.2204
 1791POPC   D2A21486   2.371  10.083  19.002 -0.3275  0.4576  0.0835
 1791POPC   C3A21487   1.987   9.954  18.894 -0.1773 -0.1133 -0.0556
 1791POPC   C4A21488   1.580  10.132  18.714  0.0288 -0.0447 -0.2077
 1791POPC   C1B21489   2.017   9.962  19.410  0.1168 -0.2196 -0.0147
 1791POPC   C2B21490   1.809  10.333  19.232 -0.2958  0.0555  0.0879
 1791POPC   C3B21491   1.613  10.589  18.864 -0.1588 -0.2115 -0.1157
 1791POPC   C4B21492   1.438  10.700  18.454 -0.1021 -0.0154 -0.0293
 1792POPC   NC321493   8.566   5.016  12.345 -0.3434  0.0109  0.5017
 1792POPC   PO421494   8.739   5.364  12.323  0.0452 -0.0333  0.2938
 1792POPC   GL121495   8.380   5.483  12.340  0.1143 -0.0024  0.1592
 1792POPC   GL221496   8.396   5.733  12.132 -0.1499  0.2180  0.1623
 1792POPC   C1A21497   8.026   5.128  12.340 -0.3067  0.3263 -0.1043
 1792POPC   D2A21498   7.603   5.052  12.192  0.0526 -0.0675  0.0781
 1792POPC   C3A21499   7.278   5.149  12.435  0.1102 -0.1646 -0.1516
 1792POPC   C4A21500   7.273   5.531  12.720 -0.1035 -0.2617 -0.0643
 1792POPC   C1B21501   8.005   5.886  12.208  0.3828 -0.1762  0.1843
 1792POPC   C2B21502   7.522   6.015  12.194 -0.1193 -0.0483  0.1377
 1792POPC   C3B21503   7.157   5.885  12.360 -0.3412  0.0683  0.4822
 1792POPC   C4B21504   6.869   5.578  12.316 -0.0291  0.1156  0.1495
 1793POPS   CNO21505  15.627   5.815   9.359  0.1383 -0.2318  0.1184
 1793POPS   PO421506  15.799   6.117   9.433 -0.1328  0.1723  0.0148
 1793POPS   GL121507  15.786   6.161   9.050 -0.0383 -0.4742 -0.0646
 1793POPS   GL221508  16.064   6.291   9.004  0.2159 -0.3530 -0.2305
 1793POPS   C1A21509  15.540   6.170   8.657  0.0638 -0.1850 -0.1934
 1793POPS   D2A21510  15.335   6.025   8.229 -0.1969 -0.0002 -0.3614
 1793POPS   C3A21511  14.886   5.969   8.337 -0.3373 -0.0784  0.0516
 1793POPS   C4A21512  14.505   5.726   8.268 -0.3004  0.1197 -0.0491
 1793POPS   C1B21513  16.009   6.125   8.597 -0.0410  0.0013  0.3650
 1793POPS   C2B21514  15.899   6.104   8.101  0.5387 -0.1335 -0.1766
 1793POPS   C3B21515  15.929   5.768   7.783 -0.0185  0.1800 -0.1962
 1793POPS   C4B21516  15.664   5.697   7.425 -0.1750 -0.0930 -0.0549
 1794POPS   CNO21517  12.600  14.556   9.112  0.0656  0.2470 -0.0210
 1794POPS   PO421518  12.447  14.574   8.764  0.0345 -0.0778 -0.4276
 1794POPS   GL121519  12.423  14.382   8.401 -0.2156  0.0088 -0.4377
 1794POPS   GL221520  12.185  14.399   8.234  0.1810  0.0311  0.0899
 1794POPS   C1A21521  12.600  14.363   7.995 -0.2442 -0.1082  0.2372
 1794POPS   D2A21522  12.568  14.605   7.565  0.2640  0.2027  0.0279
 1794POPS   C3A21523  12.354  14.318   7.283  0.2104  0.1792  0.1571
 1794POPS   C4A21524  12.039  14.250   6.892  0.1195 -0.0138  0.0028
 1794POPS   C1B21525  12.010  14.245   7.814  0.2261  0.3947 -0.1823
 1794POPS   C2B21526  12.070  13.924   7.463 -0.1804 -0.0425  0.1623
 1794POPS   C3B21527  12.162  13.791   7.020  0.0049  0.1564 -0.1428
 1794POPS   C4B21528  12.519  13.740   6.778  0.0008 -0.2695  0.0258
 1795POPS   CNO21529   4.624   3.692  11.009 -0.1380  0.1108 -0.0408
 1795POPS   PO421530   4.961   3.519  11.038  0.0768  0.2421 -0.0086
 1795POPS   GL121531   5.247   3.752  10.895 -0.3280 -0.0601  0.1313
 1795POPS   GL221532   5.341   3.837  11.161 -0.1399 -0.0029 -0.0936
 1795POPS   C1A21533   5.371   4.009  10.526  0.1977 -0.2598 -0.0842
 1795POPS   D2A21534   5.327   4.366  10.236 -0.2643 -0.1214  0.0901
 1795POPS   C3A21535   5.582   4.282   9.911 -0.2723 -0.0201 -0.1023
 1795POPS   C4A21536   5.963   4.275   9.689 -0.0335 -0.3696 -0.0046
 1795POPS   C1B21537   5.717   3.937  10.924 -0.3154  0.1098 -0.0296
 1795POPS   C2B21538   6.176   4.129  10.871  0.0356  0.2008  0.0998
 1795POPS   C3B21539   6.465   3.837  10.613 -0.1050  0.0019  0.0094
 1795POPS   C4B21540   6.666   3.506  10.363  0.0264  0.3002  0.1899
 1796POPS   CNO21541   1.634   9.196   8.794 -0.1535  0.0496  0.0464
 1796POPS   PO421542   1.313   9.343   8.873  0.5114 -0.2502  0.0523
 1796POPS   GL121543   1.344   9.708   8.587  0.4943 -0.2087 -0.2168
 1796POPS   GL221544   1.535   9.543   8.419  0.2283  0.0704  0.1639
 1796POPS   C1A21545   1.243   9.891   8.156 -0.2407  0.2555 -0.2224
 1796POPS   D2A21546   1.053   9.819   7.722  0.0074 -0.3132 -0.0446
 1796POPS   C3A21547   0.954   9.794   7.302 -0.2984  0.1359  0.2090
 1796POPS   C4A21548   1.073   9.609   6.917  0.0796  0.0882 -0.0352
 1796POPS   C1B21549   1.710   9.436   7.986  0.1569  0.0949  0.2611
 1796POPS   C2B21550   1.824   9.473   7.543 -0.4921 -0.0348  0.1712
 1796POPS   C3B21551   2.134   9.321   7.205  0.2053 -0.1808 -0.1966
 1796POPS   C4B21552   2.309   9.281   6.765  0.1109 -0.0343 -0.0457
 1797POPS   CNO21553  14.923  13.745   8.525  0.3174  0.0213 -0.0031
 1797POPS   PO421554  15.060  13.544   8.266 -0.2103  0.1657  0.0359
 1797POPS   GL121555  15.206  13.507   7.876 -0.0268 -0.1306  0.3809
 1797POPS   GL221556  15.461  13.586   7.896 -0.0531 -0.0622 -0.1942
 1797POPS   C1A21557  15.026  13.638   7.463  0.0984 -0.0362 -0.2313
 1797POPS   D2A21558  14.887  13.580   6.997 -0.0829  0.0666  0.0234
 1797POPS   C3A21559  15.124  13.413   6.650  0.0414  0.2747 -0.1155
 1797POPS   C4A21560  15.169  13.226   6.280  0.0058 -0.1714 -0.2083
 1797POPS   C1B21561  15.770  13.585   7.604 -0.2305  0.2742 -0.1617
 1797POPS   C2B21562  15.849  13.481   7.159  0.1343  0.2027  0.1376
 1797POPS   C3B21563  15.776  13.349   6.732 -0.0201  0.0614  0.3195
 1797POPS   C4B21564  15.718  13.612   6.355 -0.2284  0.3566 -0.3165
 1798POPS   CNO21565  15.194  12.968   8.647 -0.3019  0.1010 -0.0920
 1798POPS   PO421566  15.006  12.960   8.309 -0.2169 -0.0596 -0.1045
 1798POPS   GL121567  14.997  13.129   7.955  0.0355 -0.3127  0.2502
 1798POPS   GL221568  14.793  13.301   7.906 -0.1470  0.0212  0.2687
 1798POPS   C1A21569  15.253  13.212   7.584 -0.2356 -0.0587 -0.0193
 1798POPS   D2A21570  15.306  13.356   7.185  0.2240  0.2195  0.0769
 1798POPS   C3A21571  15.372  12.988   6.887 -0.3308 -0.1459 -0.0673
 1798POPS   C4A21572  15.629  12.635   6.627  0.1405  0.1424 -0.2026
 1798POPS   C1B21573  14.448  13.084   7.618  0.3007 -0.2136 -0.1521
 1798POPS   C2B21574  14.167  12.846   7.303  0.0980 -0.0884  0.0739
 1798POPS   C3B21575  13.779  12.846   7.087 -0.4365  0.2728 -0.2551
 1798POPS   C4B21576  13.295  12.838   6.951 -0.0254  0.0585  0.0383
 1799POPS   CNO21577   6.145  15.407   8.788  0.1323  0.0697 -0.0596
 1799POPS   PO421578   5.987  15.322   8.467 -0.0496 -0.0116  0.1487
 1799POPS   GL121579   5.982  15.136   8.103 -0.0451 -0.0886 -0.3837
 1799POPS   GL221580   5.855  15.364   7.951 -0.0524  0.0116 -0.1558
 1799POPS   C1A21581   6.003  14.819   7.697 -0.1908 -0.1911 -0.0595
 1799POPS   D2A21582   5.682  14.753   7.313  0.1450  0.2086 -0.0102
 1799POPS   C3A21583   5.463  15.069   7.065  0.2692  0.1828 -0.0464
 1799POPS   C4A21584   5.435  15.533   7.021  0.3289 -0.2276 -0.2154
 1799POPS   C1B21585   6.194  15.358   7.667  0.0365 -0.4619  0.0965
 1799POPS   C2B21586   6.435  15.309   7.283  0.2343 -0.1292  0.0041
 1799POPS   C3B21587   6.685  15.097   6.980  0.2025  0.0831 -0.3385
 1799POPS   C4B21588   7.107  14.807   6.906  0.1522 -0.0128 -0.1194
 1800POPS   CNO21589  14.933   3.390  14.627  0.1334 -0.0713 -0.1485
 1800POPS   PO421590  14.604   3.567  14.626  0.3801 -0.0779  0.2856
 1800POPS   GL121591  14.256   3.612  14.882 -0.1175 -0.4108  0.6613
 1800POPS   GL221592  14.098   3.400  14.963  0.1735  0.2289 -0.0131
 1800POPS   C1A21593  14.055   3.920  15.125  0.1056  0.1524  0.0873
 1800POPS   D2A21594  13.925   4.114  15.493  0.2758 -0.1010  0.3335
 1800POPS   C3A21595  13.495   4.234  15.624 -0.0707  0.0162  0.2562
 1800POPS   C4A21596  13.137   4.207  15.875  0.0715  0.1925  0.0247
 1800POPS   C1B21597  13.730   3.561  15.224  0.2168 -0.2235  0.2351
 1800POPS   C2B21598  13.478   3.771  15.563 -0.1743  0.1483  0.1704
 1800POPS   C3B21599  13.188   3.683  15.918 -0.0804  0.0970  0.1727
 1800POPS   C4B21600  12.931   3.660  16.305  0.0937 -0.1362 -0.1783
 1801POPS   CNO21601   5.425   8.106  10.907  0.0334 -0.0801 -0.2329
 1801POPS   PO421602   5.597   8.413  10.885  0.0520  0.0429  0.1067
 1801POPS   GL121603   5.951   8.112  10.786  0.1781  0.0952 -0.2915
 1801POPS   GL221604   6.209   8.069  10.910  0.0108 -0.1540 -0.2562
 1801POPS   C1A21605   5.999   7.831  10.394  0.3226 -0.1243  0.0319
 1801POPS   D2A21606   5.968   7.499  10.102  0.3236  0.1321 -0.4346
 1801POPS   C3A21607   6.312   7.467   9.881 -0.1873  0.0823 -0.2395
 1801POPS   C4A21608   6.657   7.731   9.736 -0.0596 -0.1638 -0.0921
 1801POPS   C1B21609   6.265   7.619  10.884  0.0695  0.1709 -0.2216
 1801POPS   C2B21610   6.622   7.369  11.067 -0.3530 -0.3417  0.1166
 1801POPS   C3B21611   6.781   7.019  11.295  0.0094 -0.0734 -0.1965
 1801POPS   C4B21612   7.132   6.733  11.399  0.0220  0.1749 -0.2909
 1802POPS   CNO21613   5.819  10.858   9.482  0.0426  0.3456  0.1413
 1802POPS   PO421614   6.014  10.735   9.757  0.1267 -0.1132 -0.2936
 1802POPS   GL121615   6.164  10.604   9.369  0.0822  0.2186 -0.3315
 1802POPS   GL221616   6.140  10.302   9.373  0.0706  0.0418  0.1277
 1802POPS   C1A21617   6.228  10.646   8.924  0.0298  0.0476 -0.0193
 1802POPS   D2A21618   6.461  10.515   8.561  0.1494 -0.0561 -0.2268
 1802POPS   C3A21619   6.230  10.269   8.269 -0.0279  0.2273  0.2181
 1802POPS   C4A21620   6.085  10.033   7.965  0.3012  0.2182 -0.0391
 1802POPS   C1B21621   6.485  10.229   9.145 -0.2397 -0.1054  0.0318
 1802POPS   C2B21622   6.736  10.187   8.783  0.3205  0.1249  0.0313
 1802POPS   C3B21623   6.771  10.245   8.341 -0.0739 -0.0214  0.3153
 1802POPS   C4B21624   6.632  10.089   7.885 -0.3578  0.1493  0.1554
 1803POPS   CNO21625   7.997   0.602  11.888  0.1165 -0.2834 -0.0148
 1803POPS   PO421626   7.926   0.857  11.638  0.0124 -0.4625  0.3114
 1803POPS   GL121627   8.016   1.238  11.451  0.1772  0.4238 -0.3635
 1803POPS   GL221628   7.755   1.381  11.404 -0.0226  0.0341  0.0492
 1803POPS   C1A21629   8.175   1.529  11.748  0.0736  0.0441 -0.2564
 1803POPS   D2A21630   8.161   1.914  12.005 -0.0811 -0.2020 -0.1072
 1803POPS   C3A21631   8.025   2.344  11.826 -0.1763 -0.0706 -0.0570
 1803POPS   C4A21632   8.069   2.689  11.530 -0.3405  0.0153  0.1656
 1803POPS   C1B21633   7.774   1.824  11.469  0.2558  0.1968 -0.2742
 1803POPS   C2B21634   7.803   2.233  11.198  0.2966  0.4179 -0.2346
 1803POPS   C3B21635   7.952   2.429  10.826  0.0872  0.1219 -0.0430
 1803POPS   C4B21636   7.923   2.776  10.542 -0.0488  0.1485  0.1501
 1804POPS   CNO21637   1.380  11.347   9.103  0.2529  0.1153  0.0531
 1804POPS   PO421638   1.175  11.107   8.967 -0.1097 -0.1050 -0.0888
 1804POPS   GL121639   1.088  10.938   8.574  0.1900 -0.2200  0.1337
 1804POPS   GL221640   0.807  10.741   8.596 -0.0089  0.0211  0.1781
 1804POPS   C1A21641   0.881  10.940   8.161  0.1560  0.0674  0.0364
 1804POPS   D2A21642   0.819  10.928   7.730 -0.0964 -0.0421  0.0506
 1804POPS   C3A21643   0.668  10.730   7.292  0.3570  0.1452  0.1813
 1804POPS   C4A21644   0.941  10.651   6.905  0.0537  0.0240 -0.1051
 1804POPS   C1B21645   0.481  10.649   8.274 -0.1433  0.0344 -0.3646
 1804POPS   C2B21646   0.436  10.541   7.827  0.0348  0.4713  0.0458
 1804POPS   C3B21647   0.210  10.518   7.384  0.0540 -0.1900  0.0950
 1804POPS   C4B21648  -0.145  10.417   7.087  0.0794 -0.1243 -0.0806
 1805POPS   CNO21649  16.323  13.532   8.575 -0.0621 -0.3155 -0.0998
 1805POPS   PO421650  16.311  13.707   8.251  0.0016 -0.2433  0.2356
 1805POPS   GL121651  16.258  13.658   7.815 -0.2340  0.1280  0.0171
 1805POPS   GL221652  16.158  13.965   7.759  0.0962  0.1274  0.1061
 1805POPS   C1A21653  16.582  13.662   7.449 -0.0050 -0.2529 -0.2300
 1805POPS   D2A21654  16.823  13.845   7.097  0.1457  0.2238  0.0469
 1805POPS   C3A21655  16.607  13.776   6.708 -0.2289 -0.2134 -0.0011
 1805POPS   C4A21656  16.338  13.385   6.623 -0.1117  0.0577 -0.4422
 1805POPS   C1B21657  16.104  13.884   7.364 -0.3623  0.0991  0.1394
 1805POPS   C2B21658  15.871  14.114   7.078 -0.1045 -0.1545  0.1299
 1805POPS   C3B21659  15.522  14.347   6.809 -0.1350 -0.2006  0.0175
 1805POPS   C4B21660  15.364  14.407   6.372  0.2714 -0.2242  0.0011
 1806POPS   CNO21661  14.187   4.125  11.905  0.0380  0.4277  0.2954
 1806POPS   PO421662  14.241   3.885  11.603  0.0049  0.1066 -0.1041
 1806POPS   GL121663  13.944   4.029  11.380 -0.2456  0.4184 -0.2600
 1806POPS   GL221664  13.680   4.016  11.556  0.1465 -0.0396  0.2926
 1806POPS   C1A21665  13.666   3.852  11.063 -0.0065 -0.1761 -0.2484
 1806POPS   D2A21666  13.348   3.590  10.881  0.1400 -0.0673 -0.0870
 1806POPS   C3A21667  13.156   3.689  10.486  0.1126 -0.1419 -0.1629
 1806POPS   C4A21668  12.840   3.796  10.129 -0.1342 -0.0802 -0.1561
 1806POPS   C1B21669  13.335   4.303  11.717  0.0600  0.0202 -0.1018
 1806POPS   C2B21670  12.907   4.193  11.912  0.3394  0.0441 -0.2635
 1806POPS   C3B21671  12.533   4.494  11.804  0.1455 -0.1368  0.0374
 1806POPS   C4B21672  12.087   4.306  11.764 -0.1456  0.3725  0.0994
 1807POPS   CNO21673   3.562   4.179   9.482 -0.2364  0.3768 -0.1113
 1807POPS   PO421674   3.272   4.161   9.280 -0.0254 -0.0241 -0.1323
 1807POPS   GL121675   3.509   4.259   8.983  0.1424  0.3625 -0.2246
 1807POPS   GL221676   3.764   4.054   9.051  0.1196 -0.0880  0.2224
 1807POPS   C1A21677   3.518   4.288   8.551 -0.0858 -0.2087 -0.1182
 1807POPS   D2A21678   3.205   4.164   8.232  0.4057 -0.0327  0.1228
 1807POPS   C3A21679   3.382   3.940   7.866 -0.2887 -0.0946 -0.1392
 1807POPS   C4A21680   3.598   3.896   7.444  0.2046  0.1452  0.0437
 1807POPS   C1B21681   3.950   3.984   8.593  0.0049  0.0332  0.0397
 1807POPS   C2B21682   3.941   4.107   8.146  0.1223 -0.0520  0.0410
 1807POPS   C3B21683   4.051   3.836   7.735 -0.0062 -0.0410  0.2591
 1807POPS   C4B21684   4.063   3.727   7.272 -0.2419  0.0844 -0.0344
 1808POPS   CNO21685  14.241   4.954  11.661 -0.0905 -0.1120  0.1956
 1808POPS   PO421686  14.494   4.888  11.406 -0.0956 -0.1940 -0.2988
 1808POPS   GL121687  14.142   4.859  11.181 -0.7076 -0.0583 -0.0532
 1808POPS   GL221688  14.110   4.970  10.916  0.2785  0.0608 -0.1814
 1808POPS   C1A21689  13.676   4.917  11.091  0.0440  0.0700 -0.3297
 1808POPS   D2A21690  13.249   4.935  10.893 -0.1186  0.0799 -0.0561
 1808POPS   C3A21691  13.221   5.168  10.539 -0.1672  0.1076 -0.1155
 1808POPS   C4A21692  12.891   5.352  10.239  0.2380  0.3334 -0.0856
 1808POPS   C1B21693  13.809   5.035  10.580  0.0490  0.0739 -0.0457
 1808POPS   C2B21694  13.573   4.993  10.244  0.0287  0.3120 -0.0933
 1808POPS   C3B21695  13.267   4.659  10.059  0.0929 -0.3700  0.1533
 1808POPS   C4B21696  13.407   4.377   9.742 -0.1275  0.2122 -0.3976
 1809POPS   CNO21697  12.004  12.808   9.320  0.1319 -0.1381  0.2605
 1809POPS   PO421698  12.106  12.455   9.203 -0.1014 -0.2401  0.0423
 1809POPS   GL121699  12.120  12.449   8.856 -0.0556  0.2379  0.5214
 1809POPS   GL221700  11.961  12.535   8.662  0.1856  0.3271 -0.0797
 1809POPS   C1A21701  12.245  12.155   8.493 -0.2927  0.1002 -0.2355
 1809POPS   D2A21702  12.248  12.008   8.079 -0.2756  0.0421 -0.0674
 1809POPS   C3A21703  12.013  11.627   8.029  0.2172 -0.0775 -0.2611
 1809POPS   C4A21704  11.990  11.232   7.778  0.0619  0.0776 -0.0805
 1809POPS   C1B21705  11.635  12.550   8.335  0.3509  0.0677  0.1081
 1809POPS   C2B21706  11.701  12.615   7.877 -0.0034  0.0881  0.2245
 1809POPS   C3B21707  11.504  12.904   7.596  0.0566 -0.2951 -0.1747
 1809POPS   C4B21708  11.247  12.727   7.205  0.4088  0.1097 -0.0296
 1810POPS   CNO21709   4.743   8.333   9.776  0.1230 -0.1385 -0.1927
 1810POPS   PO421710   4.843   8.474  10.092 -0.2518 -0.2208 -0.0625
 1810POPS   GL121711   5.234   8.474   9.978  0.3776 -0.0137 -0.0367
 1810POPS   GL221712   5.227   8.728   9.827  0.0600 -0.0014 -0.0746
 1810POPS   C1A21713   5.292   8.264   9.555  0.1866 -0.0652  0.0182
 1810POPS   D2A21714   5.405   8.210   9.079  0.1182 -0.1242 -0.2219
 1810POPS   C3A21715   5.780   8.008   8.873  0.1968  0.1356  0.1052
 1810POPS   C4A21716   5.983   7.776   8.520 -0.0021  0.1860  0.2091
 1810POPS   C1B21717   5.315   8.774   9.405 -0.2021 -0.0913  0.2174
 1810POPS   C2B21718   5.342   8.689   8.915  0.0144 -0.0092  0.1237
 1810POPS   C3B21719   5.335   8.420   8.587 -0.0521 -0.0303  0.0265
 1810POPS   C4B21720   5.433   8.508   8.179 -0.3817 -0.2041  0.0048
 1811POPS   CNO21721   8.575  32.473  10.036  0.0051  0.1727 -0.0434
 1811POPS   PO421722   8.544  32.792   9.843 -0.0180  0.1087 -0.1381
 1811POPS   GL121723   8.577  33.116   9.560  0.0134 -0.3105  0.2415
 1811POPS   GL221724   8.498  33.352   9.590 -0.1767  0.1387 -0.0402
 1811POPS   C1A21725   8.805  33.334   9.252  0.1827  0.0810  0.0996
 1811POPS   D2A21726   8.705  33.612   8.878 -0.0475 -0.1654  0.1763
 1811POPS   C3A21727   8.938  33.985   8.637  0.2214 -0.4622 -0.3278
 1811POPS   C4A21728   9.110  34.327   8.333 -0.1309 -0.0774 -0.1620
 1811POPS   C1B21729   8.792  33.701   9.578 -0.1531  0.0136  0.2487
 1811POPS   C2B21730   8.760  34.080   9.295 -0.0181  0.1642  0.2716
 1811POPS   C3B21731   8.493  34.406   9.263  0.0307  0.0127 -0.1867
 1811POPS   C4B21732   8.144  34.688   9.440  0.1158  0.0485  0.0785
 1812POPS   CNO21733  13.936   1.849  10.019 -0.1297  0.2081  0.2223
 1812POPS   PO421734  13.840   1.498   9.864 -0.1198 -0.0984 -0.0542
 1812POPS   GL121735  13.415   1.594   9.581 -0.3795  0.2282  0.2010
 1812POPS   GL221736  13.499   1.854   9.681 -0.1765 -0.1739  0.3385
 1812POPS   C1A21737  12.974   1.527   9.761  0.0210 -0.3654  0.4244
 1812POPS   D2A21738  12.694   1.916   9.888 -0.0532  0.1395  0.0348
 1812POPS   C3A21739  12.389   1.914  10.256 -0.0231 -0.1391 -0.1019
 1812POPS   C4A21740  11.973   1.847  10.484  0.0585  0.1334 -0.1029
 1812POPS   C1B21741  13.070   1.997   9.494 -0.1862  0.1523 -0.1079
 1812POPS   C2B21742  12.884   2.106   9.065  0.0499 -0.2911 -0.1676
 1812POPS   C3B21743  12.532   2.405   8.892 -0.0775  0.1595 -0.2138
 1812POPS   C4B21744  12.179   2.585   8.630  0.2122 -0.2370  0.1207
 1813POPS   CNO21745  12.223  12.921   8.867  0.0073  0.1204 -0.1173
 1813POPS   PO421746  12.544  13.069   8.826 -0.2337 -0.1011  0.4639
 1813POPS   GL121747  12.444  13.025   8.453 -0.0116 -0.5905 -0.0086
 1813POPS   GL221748  12.514  12.741   8.415 -0.6382  0.3255  0.1637
 1813POPS   C1A21749  12.491  12.992   8.031  0.0900  0.1905  0.1101
 1813POPS   D2A21750  12.636  13.241   7.691 -0.1510 -0.0431  0.0852
 1813POPS   C3A21751  12.492  13.153   7.246 -0.1948  0.2362  0.3295
 1813POPS   C4A21752  12.452  13.071   6.770  0.2407  0.0044 -0.0496
 1813POPS   C1B21753  12.187  12.563   8.081 -0.3252 -0.1503  0.0661
 1813POPS   C2B21754  12.180  12.492   7.648  0.0744  0.2060 -0.1692
 1813POPS   C3B21755  12.059  12.379   7.213  0.0453 -0.3322  0.0747
 1813POPS   C4B21756  11.855  12.264   6.820 -0.2027  0.1305  0.0784
 1814POPS   CNO21757   1.165   3.378   9.585 -0.0884 -0.1571 -0.1525
 1814POPS   PO421758   1.231   3.386   9.195  0.0536 -0.2295  0.1791
 1814POPS   GL121759   1.166   3.497   8.820 -0.0174  0.2763  0.2411
 1814POPS   GL221760   1.353   3.481   8.576 -0.0211  0.2432 -0.3812
 1814POPS   C1A21761   1.042   3.909   8.579 -0.0687  0.0045 -0.3140
 1814POPS   D2A21762   0.812   4.095   8.274  0.0423  0.2630  0.0982
 1814POPS   C3A21763   0.733   4.179   7.806 -0.1248  0.0446  0.3330
 1814POPS   C4A21764   0.877   4.061   7.341 -0.0152 -0.3443 -0.1843
 1814POPS   C1B21765   1.413   3.475   8.132  0.0450  0.3032  0.0283
 1814POPS   C2B21766   1.408   3.548   7.722 -0.2166 -0.2089  0.0348
 1814POPS   C3B21767   1.333   3.756   7.304  0.1093  0.2977  0.0397
 1814POPS   C4B21768   1.452   3.877   6.878 -0.0635 -0.0569  0.1496
 1815POPS   CNO21769   4.667   4.511  13.481  0.3093  0.2144  0.3377
 1815POPS   PO421770   4.700   4.729  13.203  0.0177  0.3643  0.3434
 1815POPS   GL121771   5.118   4.730  13.235  0.0146  0.1220 -0.3651
 1815POPS   GL221772   5.143   4.837  13.497 -0.0619 -0.3035 -0.1034
 1815POPS   C1A21773   5.434   4.767  12.912  0.0598  0.2438  0.3165
 1815POPS   D2A21774   5.852   4.554  13.052  0.0077 -0.1523 -0.1530
 1815POPS   C3A21775   5.898   4.222  13.401 -0.0029 -0.1870  0.1219
 1815POPS   C4A21776   5.720   3.784  13.530 -0.1516 -0.1184  0.0190
 1815POPS   C1B21777   5.577   4.777  13.397  0.4488 -0.0333  0.1652
 1815POPS   C2B21778   6.054   4.760  13.464  0.1546 -0.0709  0.1407
 1815POPS   C3B21779   6.474   4.737  13.332 -0.0468 -0.1751  0.1354
 1815POPS   C4B21780   6.479   4.767  12.841 -0.0050  0.0512 -0.1168
 1816POPS   CNO21781  10.875  12.385   9.423 -0.1622 -0.0012 -0.3107
 1816POPS   PO421782  11.159  12.633   9.271  0.1443  0.0933 -0.0431
 1816POPS   GL121783  11.171  12.392   8.970 -0.1220  0.1612  0.1582
 1816POPS   GL221784  11.355  12.500   8.751 -0.1804 -0.3871 -0.3528
 1816POPS   C1A21785  10.791  12.293   8.670 -0.0168 -0.3066  0.0219
 1816POPS   D2A21786  10.544  12.282   8.300 -0.0260 -0.0697  0.1490
 1816POPS   C3A21787  10.743  12.467   7.938  0.2796  0.0592 -0.3202
 1816POPS   C4A21788  10.832  12.347   7.521  0.0661 -0.1875 -0.1974
 1816POPS   C1B21789  11.138  12.383   8.351  0.0583  0.2361  0.0718
 1816POPS   C2B21790  11.296  12.110   8.022  0.0140 -0.1350  0.0160
 1816POPS   C3B21791  11.234  11.929   7.616  0.0056 -0.0919  0.1120
 1816POPS   C4B21792  10.945  11.864   7.292 -0.0703 -0.2489 -0.0958
 1817POPS   CNO21793  15.108  15.036   8.464 -0.1684 -0.2523 -0.2213
 1817POPS   PO421794  15.349  15.053   8.160 -0.0064 -0.2140  0.0744
 1817POPS   GL121795  15.290  15.157   7.805 -0.2935 -0.1490 -0.4405
 1817POPS   GL221796  15.256  15.413   7.751  0.1202  0.0612  0.0789
 1817POPS   C1A21797  15.278  15.039   7.360 -0.2609 -0.0183 -0.2484
 1817POPS   D2A21798  15.116  15.181   6.934  0.2396 -0.2161 -0.0046
 1817POPS   C3A21799  15.397  15.365   6.614  0.1944 -0.1180 -0.2423
 1817POPS   C4A21800  15.761  15.547   6.432  0.2231  0.0339 -0.1834
 1817POPS   C1B21801  15.333  15.618   7.309 -0.2505  0.0451  0.3217
 1817POPS   C2B21802  15.182  15.998   7.135 -0.1748  0.0956 -0.0588
 1817POPS   C3B21803  15.088  16.179   6.723 -0.0142 -0.0675 -0.0200
 1817POPS   C4B21804  15.016  16.655   6.651  0.2248 -0.0019 -0.1176
 1818POPS   CNO21805   5.999  11.348   9.587 -0.0066  0.2860 -0.0729
 1818POPS   PO421806   6.035  11.659   9.373 -0.1109 -0.2632 -0.0376
 1818POPS   GL121807   5.946  11.612   8.910 -0.0006  0.2374 -0.1369
 1818POPS   GL221808   5.787  11.352   8.839  0.0630  0.1020  0.0353
 1818POPS   C1A21809   6.306  11.715   8.587 -0.1871 -0.3320  0.1146
 1818POPS   D2A21810   6.636  11.523   8.410 -0.0533 -0.0600  0.2153
 1818POPS   C3A21811   6.865  11.660   8.021 -0.0420  0.3591  0.3379
 1818POPS   C4A21812   7.038  11.578   7.575  0.0422  0.2170 -0.0114
 1818POPS   C1B21813   6.224  11.205   8.672  0.1708 -0.2593 -0.0696
 1818POPS   C2B21814   6.411  11.149   8.236 -0.2610  0.1377  0.0482
 1818POPS   C3B21815   6.716  11.049   7.875  0.1459  0.1378  0.1932
 1818POPS   C4B21816   6.987  11.095   7.502  0.0995  0.0885  0.1291
 1819POPS   CNO21817  16.150  32.741  15.897 -0.3913 -0.0176 -0.1225
 1819POPS   PO421818  16.007  32.845  16.234 -0.0987  0.1932 -0.1157
 1819POPS   GL121819  15.954  32.977  16.629 -0.0211  0.1015  0.0327
 1819POPS   GL221820  16.108  33.253  16.533 -0.1247 -0.1908  0.3154
 1819POPS   C1A21821  15.806  32.810  17.052  0.1256  0.1329  0.0025
 1819POPS   D2A21822  15.654  32.770  17.490 -0.1784 -0.2038  0.0417
 1819POPS   C3A21823  15.492  32.948  17.902  0.2398  0.1366  0.1941
 1819POPS   C4A21824  15.514  33.081  18.344  0.0801  0.1267  0.0970
 1819POPS   C1B21825  16.238  33.327  16.964  0.2044 -0.2490  0.1262
 1819POPS   C2B21826  16.385  33.431  17.378 -0.0420  0.0078  0.0432
 1819POPS   C3B21827  16.553  33.685  17.713 -0.1330  0.2039  0.1372
 1819POPS   C4B21828  16.568  33.989  18.029  0.3444  0.0664 -0.0715
 1820POPS   CNO21829  16.322  12.221   8.855  0.1163  0.0587  0.1853
 1820POPS   PO421830  16.492  12.537   8.776 -0.0613  0.1902 -0.5949
 1820POPS   GL121831  16.134  12.466   8.491 -0.2933 -0.0475 -0.1237
 1820POPS   GL221832  15.986  12.611   8.415 -0.1052 -0.0458  0.3055
 1820POPS   C1A21833  16.238  12.323   8.015 -0.1157 -0.1498  0.3841
 1820POPS   D2A21834  16.068  12.276   7.580 -0.0511 -0.1225  0.0876
 1820POPS   C3A21835  15.887  12.062   7.216 -0.3433  0.0225 -0.2098
 1820POPS   C4A21836  15.681  12.043   6.843 -0.2240 -0.1651 -0.0064
 1820POPS   C1B21837  15.751  12.608   8.031 -0.2129 -0.5365 -0.1643
 1820POPS   C2B21838  15.402  12.789   7.796  0.0672 -0.0531 -0.1564
 1820POPS   C3B21839  15.270  12.737   7.337  0.0085  0.1384  0.1781
 1820POPS   C4B21840  15.186  12.525   6.906 -0.2298 -0.4190 -0.2724
 1821POPS   CNO21841  15.685   4.953   9.764  0.2802  0.0495 -0.2602
 1821POPS   PO421842  15.604   4.724  10.058 -0.0830  0.2029 -0.1688
 1821POPS   GL121843  15.245   4.783   9.849 -0.1640  0.0696 -0.3432
 1821POPS   GL221844  15.125   4.946   9.716 -0.2704  0.0495 -0.2738
 1821POPS   C1A21845  15.029   4.471   9.553 -0.1900 -0.0380  0.1983
 1821POPS   D2A21846  15.152   4.334   9.107 -0.0882 -0.1956  0.0294
 1821POPS   C3A21847  14.859   4.152   8.810  0.0737 -0.0969  0.0667
 1821POPS   C4A21848  14.800   4.284   8.368  0.1366 -0.1134 -0.1133
 1821POPS   C1B21849  14.680   5.067   9.585  0.1503 -0.0195  0.0348
 1821POPS   C2B21850  14.483   5.255   9.183  0.3137 -0.0535  0.2131
 1821POPS   C3B21851  14.418   5.079   8.795  0.2415  0.3901 -0.2182
 1821POPS   C4B21852  14.442   4.690   8.588  0.1073 -0.1889 -0.0693
 1822POPS   CNO21853  10.101  14.491   9.059  0.0899 -0.1472  0.0874
 1822POPS   PO421854  10.203  14.253   8.791  0.0008 -0.0301  0.1297
 1822POPS   GL121855  10.110  14.340   8.520  0.2297 -0.2718  0.1804
 1822POPS   GL221856  10.215  14.647   8.368 -0.2114  0.0600 -0.1735
 1822POPS   C1A21857   9.906  14.286   8.109 -0.2421  0.1252 -0.0978
 1822POPS   D2A21858  10.049  14.310   7.646  0.0595  0.2635  0.1873
 1822POPS   C3A21859   9.798  14.652   7.451  0.1768  0.1342  0.1152
 1822POPS   C4A21860   9.421  14.805   7.477  0.2952 -0.1879  0.0878
 1822POPS   C1B21861  10.540  14.818   8.013 -0.1030  0.2833 -0.1705
 1822POPS   C2B21862  10.693  15.073   7.672  0.0013 -0.1103  0.1188
 1822POPS   C3B21863  10.595  15.187   7.228 -0.0163  0.2997  0.0109
 1822POPS   C4B21864  10.759  15.136   6.810 -0.1403 -0.1502  0.3890
 1823POPS   CNO21865   1.682   9.690   8.861 -0.3833  0.1565 -0.1045
 1823POPS   PO421866   1.725  10.007   8.671  0.2877 -0.1688  0.0633
 1823POPS   GL121867   1.660   9.975   8.240 -0.2268  0.4610  0.1501
 1823POPS   GL221868   1.919   9.851   8.238 -0.0513 -0.0857  0.0523
 1823POPS   C1A21869   1.525   9.842   7.793  0.0173 -0.2824 -0.2316
 1823POPS   D2A21870   1.340   9.554   7.472  0.1382  0.0043 -0.0866
 1823POPS   C3A21871   1.530   9.430   7.043  0.3647  0.2288 -0.2231
 1823POPS   C4A21872   1.569   9.454   6.619  0.5493  0.1778  0.2823
 1823POPS   C1B21873   2.124  10.127   7.900 -0.1198  0.1027  0.1046
 1823POPS   C2B21874   2.123  10.344   7.446 -0.1841 -0.0869 -0.0344
 1823POPS   C3B21875   2.323  10.420   7.047  0.3981 -0.0369 -0.0786
 1823POPS   C4B21876   2.475  10.489   6.645 -0.3942 -0.1461  0.1105
 1824POPS   CNO21877   4.272   0.880  15.113 -0.0428  0.1118  0.0266
 1824POPS   PO421878   4.344   0.585  15.350 -0.1245 -0.0644  0.1192
 1824POPS   GL121879   4.500   0.464  15.606  0.0449  0.1411  0.1603
 1824POPS   GL221880   4.802   0.568  15.565 -0.2430  0.0698 -0.0150
 1824POPS   C1A21881   4.742   0.492  16.057  0.1893  0.2771 -0.3099
 1824POPS   D2A21882   4.700   0.737  16.462 -0.0888  0.0642  0.0838
 1824POPS   C3A21883   4.756   0.592  16.901 -0.0090 -0.2134  0.1315
 1824POPS   C4A21884   4.925   0.222  17.114  0.0028 -0.1229  0.1262
 1824POPS   C1B21885   4.995   0.982  15.672 -0.0474 -0.1175  0.1544
 1824POPS   C2B21886   5.358   1.253  15.643 -0.3351  0.0727 -0.0220
 1824POPS   C3B21887   5.803   1.310  15.740 -0.4007  0.0550  0.0827
 1824POPS   C4B21888   6.078   1.614  15.988 -0.1341 -0.1474 -0.1797
 1825POPS   CNO21889  14.571   5.112  12.070 -0.1716 -0.0234 -0.1272
 1825POPS   PO421890  14.304   5.393  12.010 -0.1780 -0.1941 -0.0902
 1825POPS   GL121891  14.014   5.322  11.806 -0.2899  0.3191  0.0384
 1825POPS   GL221892  13.835   5.511  11.979 -0.0754 -0.0610 -0.0299
 1825POPS   C1A21893  13.732   5.011  11.654  0.0914 -0.0621  0.1100
 1825POPS   D2A21894  13.375   4.784  11.479  0.0658 -0.0844  0.0534
 1825POPS   C3A21895  12.922   4.727  11.494  0.0127 -0.1164  0.0306
 1825POPS   C4A21896  12.569   4.993  11.503 -0.2723 -0.0754  0.0002
 1825POPS   C1B21897  13.410   5.637  11.788  0.0492 -0.1455 -0.0611
 1825POPS   C2B21898  12.974   5.436  11.669  0.0947 -0.0690 -0.0150
 1825POPS   C3B21899  12.569   5.485  11.439 -0.1067 -0.2858 -0.0870
 1825POPS   C4B21900  12.287   5.428  10.984  0.1249 -0.0712  0.0104
 1826POPS   CNO21901   7.314   0.760  13.297 -0.2009 -0.1168  0.1739
 1826POPS   PO421902   7.230   0.930  13.611  0.0303 -0.2172 -0.1672
 1826POPS   GL121903   7.395   1.173  13.803  0.1746 -0.2100  0.1684
 1826POPS   GL221904   7.713   1.147  13.838  0.0471 -0.2171 -0.0173
 1826POPS   C1A21905   7.560   1.602  13.788 -0.0045 -0.2415  0.1238
 1826POPS   D2A21906   7.693   2.093  13.711  0.1744 -0.0427  0.0243
 1826POPS   C3A21907   7.964   2.397  13.925  0.1520  0.1264  0.2798
 1826POPS   C4A21908   8.425   2.562  14.041  0.1082 -0.1006 -0.0402
 1826POPS   C1B21909   7.997   1.448  14.035  0.1556  0.0859 -0.1601
 1826POPS   C2B21910   8.060   1.864  14.039  0.3989 -0.1392  0.2288
 1826POPS   C3B21911   8.305   2.103  14.297  0.0670 -0.0980 -0.3236
 1826POPS   C4B21912   8.215   2.488  14.515  0.0292  0.0707 -0.0998
 1827POPS   CNO21913  15.691   9.327   9.842  0.0608  0.0280 -0.2247
 1827POPS   PO421914  15.713   9.336   9.489 -0.0987 -0.0077  0.0291
 1827POPS   GL121915  15.474   9.404   9.183 -0.0869  0.0092  0.1736
 1827POPS   GL221916  15.276   9.215   9.135  0.3049 -0.1324  0.1717
 1827POPS   C1A21917  15.367   9.625   8.813  0.1417  0.0340 -0.1077
 1827POPS   D2A21918  15.263  10.104   8.707 -0.1891  0.1106 -0.1750
 1827POPS   C3A21919  14.956  10.111   8.450  0.0930 -0.0886 -0.1739
 1827POPS   C4A21920  14.637   9.798   8.376  0.3039  0.1452 -0.0173
 1827POPS   C1B21921  15.385   9.026   8.731  0.0366 -0.1491  0.2435
 1827POPS   C2B21922  15.387   9.206   8.329  0.0314 -0.2365 -0.1742
 1827POPS   C3B21923  15.270   9.317   7.878 -0.1264  0.0056  0.3190
 1827POPS   C4B21924  15.185   9.662   7.574  0.4721 -0.1205  0.1284
 1828POPS   CNO21925  15.167   4.782  10.273 -0.0929  0.3064 -0.0126
 1828POPS   PO421926  14.804   4.786  10.388 -0.1501  0.1187 -0.1544
 1828POPS   GL121927  14.604   4.787  10.117  0.4528  0.0389  0.1855
 1828POPS   GL221928  14.699   4.678   9.907 -0.1381 -0.0866 -0.0754
 1828POPS   C1A21929  14.261   4.977   9.826 -0.1669 -0.0005 -0.2031
 1828POPS   D2A21930  13.965   4.951   9.511  0.0859 -0.0664  0.3344
 1828POPS   C3A21931  13.516   4.930   9.694 -0.1333 -0.0002 -0.1384
 1828POPS   C4A21932  13.202   5.173   9.895 -0.1373  0.2398  0.0663
 1828POPS   C1B21933  14.452   4.622   9.537  0.1666  0.0076 -0.3878
 1828POPS   C2B21934  14.638   4.529   9.179  0.0127  0.0250 -0.0546
 1828POPS   C3B21935  14.879   4.687   8.814 -0.1876 -0.2081  0.1746
 1828POPS   C4B21936  14.933   4.784   8.351 -0.1874 -0.1182 -0.0808
 1829POPS   CNO21937  15.918  31.847   8.413 -0.0182 -0.0227  0.2980
 1829POPS   PO421938  16.248  31.921   8.205  0.1616 -0.2390  0.1413
 1829POPS   GL121939  16.169  32.128   7.923  0.2621  0.2619 -0.1219
 1829POPS   GL221940  15.976  31.986   7.773  0.2433  0.0925  0.0898
 1829POPS   C1A21941  16.250  32.222   7.497  0.0563  0.0795  0.1128
 1829POPS   D2A21942  16.095  32.309   7.061 -0.2468 -0.0630 -0.1469
 1829POPS   C3A21943  16.264  32.294   6.639 -0.1423 -0.2966  0.3353
 1829POPS   C4A21944  16.183  32.123   6.201 -0.0519  0.0671 -0.1276
 1829POPS   C1B21945  15.770  32.130   7.400  0.0249  0.0182 -0.2000
 1829POPS   C2B21946  15.727  31.966   6.925 -0.0596 -0.0817  0.3512
 1829POPS   C3B21947  15.762  32.075   6.485 -0.0976  0.2956 -0.0074
 1829POPS   C4B21948  15.665  32.006   6.072 -0.2461  0.2952  0.0321
 1830POPS   CNO21949   1.659  11.273   8.714  0.0912 -0.2234 -0.0243
 1830POPS   PO421950   1.838  11.590   8.622  0.2563  0.2322 -0.1276
 1830POPS   GL121951   1.927  11.531   8.192 -0.2356 -0.1914  0.0325
 1830POPS   GL221952   1.712  11.387   8.164  0.0175 -0.2222  0.0710
 1830POPS   C1A21953   2.010  11.751   7.760 -0.1862  0.1009  0.1287
 1830POPS   D2A21954   2.294  11.731   7.375  0.0476 -0.1074 -0.2795
 1830POPS   C3A21955   1.941  11.892   7.148  0.2405 -0.0156  0.1810
 1830POPS   C4A21956   1.838  11.764   6.679  0.4048 -0.1098  0.0052
 1830POPS   C1B21957   1.677  11.149   7.787  0.1176  0.1904  0.3385
 1830POPS   C2B21958   1.658  10.990   7.335 -0.0575 -0.0405  0.0337
 1830POPS   C3B21959   1.423  10.876   6.955  0.2619  0.0788 -0.4683
 1830POPS   C4B21960   1.186  11.000   6.567  0.0258  0.2669 -0.0292
 1831POPS   CNO21961  14.776   5.432  10.468  0.0723  0.2266  0.0711
 1831POPS   PO421962  14.714   5.184  10.746  0.4485  0.1001 -0.1247
 1831POPS   GL121963  14.410   4.996  10.531 -0.4531 -0.1039 -0.2733
 1831POPS   GL221964  14.384   5.155  10.299  0.0422  0.0975 -0.2642
 1831POPS   C1A21965  14.085   4.756  10.255  0.0418  0.2839  0.1642
 1831POPS   D2A21966  14.021   4.319  10.325 -0.1021 -0.2005 -0.1877
 1831POPS   C3A21967  13.593   4.313  10.198 -0.0169  0.1706 -0.2197
 1831POPS   C4A21968  13.341   3.953  10.045  0.0624  0.1804 -0.0125
 1831POPS   C1B21969  13.932   5.230  10.098 -0.0820  0.0585  0.0258
 1831POPS   C2B21970  13.540   5.481  10.167  0.4076 -0.2611 -0.1465
 1831POPS   C3B21971  13.205   5.737  10.023 -0.0181  0.3582  0.3814
 1831POPS   C4B21972  12.880   5.788   9.743 -0.0681  0.0189 -0.1397
 1832POPS   CNO21973   3.558  13.424   8.344 -0.0615  0.0347 -0.1388
 1832POPS   PO421974   3.787  13.185   8.296 -0.2143 -0.1559 -0.1355
 1832POPS   GL121975   3.752  13.287   7.926  0.2171  0.1258 -0.2803
 1832POPS   GL221976   3.613  13.492   7.879  0.0695 -0.0239  0.2314
 1832POPS   C1A21977   3.936  13.003   7.569  0.0753 -0.3984  0.1415
 1832POPS   D2A21978   3.936  12.725   7.199  0.2880 -0.1882  0.2252
 1832POPS   C3A21979   3.961  12.546   6.725 -0.1264 -0.0597 -0.0877
 1832POPS   C4A21980   3.672  12.133   6.624  0.0810  0.2480  0.1178
 1832POPS   C1B21981   3.493  13.257   7.550  0.0169  0.0239  0.2096
 1832POPS   C2B21982   3.414  12.911   7.315  0.2164  0.2366  0.2803
 1832POPS   C3B21983   3.409  12.779   6.905  0.3213 -0.0508  0.1129
 1832POPS   C4B21984   3.529  12.559   6.525 -0.2191  0.2638  0.1614
 1833POPS   CNO21985   0.838   6.054   9.541  0.0696 -0.2480 -0.0096
 1833POPS   PO421986   0.615   6.359   9.450 -0.0618 -0.3268 -0.2566
 1833POPS   GL121987   0.420   6.434   9.092 -0.2177 -0.1967 -0.2153
 1833POPS   GL221988   0.576   6.300   8.850  0.0088 -0.1177 -0.0147
 1833POPS   C1A21989   0.410   6.835   8.782  0.1574  0.1745 -0.0625
 1833POPS   D2A21990   0.228   6.993   8.376  0.2717  0.2274  0.0286
 1833POPS   C3A21991  -0.112   6.959   8.036 -0.3518 -0.1142 -0.1270
 1833POPS   C4A21992  -0.393   7.006   7.725 -0.3499 -0.0133 -0.0293
 1833POPS   C1B21993   0.531   6.395   8.390 -0.0485 -0.2010  0.3569
 1833POPS   C2B21994   0.497   6.657   8.014  0.0193  0.0526  0.1126
 1833POPS   C3B21995   0.346   6.937   7.677 -0.2591 -0.0752 -0.2366
 1833POPS   C4B21996   0.026   7.287   7.620 -0.1120  0.1503 -0.0046
 1834POPS   CNO21997   3.807  12.136   8.524  0.1708 -0.0359  0.1007
 1834POPS   PO421998   3.726  11.774   8.422 -0.0597  0.0343  0.1301
 1834POPS   GL121999   3.912  11.757   8.092  0.2343 -0.6176  0.1527
 1834POPS   GL222000   4.214  11.611   8.109  0.0999 -0.0847  0.1121
 1834POPS   C1A22001   4.075  11.864   7.663  0.2330  0.1314 -0.4946
 1834POPS   D2A22002   4.293  11.680   7.289  0.1988 -0.2560 -0.3898
 1834POPS   C3A22003   4.524  11.585   6.915  0.1559  0.0826 -0.0329
 1834POPS   C4A22004   4.471  11.518   6.433 -0.1096  0.1107  0.2417
 1834POPS   C1B22005   4.424  11.533   7.730  0.3399  0.0481  0.0841
 1834POPS   C2B22006   4.678  11.399   7.345  0.1986  0.0265 -0.0998
 1834POPS   C3B22007   4.946  11.305   6.987  0.0590 -0.2350 -0.0155
 1834POPS   C4B22008   5.228  11.063   6.707 -0.1244  0.1503  0.0396
 1835POPS   CNO22009   2.394   1.295   8.941  0.0680 -0.2021 -0.0119
 1835POPS   PO422010   2.491   1.127   8.617 -0.0484  0.1730  0.0804
 1835POPS   GL122011   2.574   1.104   8.205 -0.1679 -0.2887 -0.4386
 1835POPS   GL222012   2.467   1.387   8.102 -0.2017  0.1641 -0.2329
 1835POPS   C1A22013   2.766   0.807   7.922  0.3336  0.0192  0.0527
 1835POPS   D2A22014   3.082   0.926   7.590  0.1660 -0.2944  0.1800
 1835POPS   C3A22015   3.125   0.678   7.178  0.0329  0.1297  0.0228
 1835POPS   C4A22016   3.271   0.535   6.773  0.2439  0.3377  0.7192
 1835POPS   C1B22017   2.404   1.539   7.723  0.0313 -0.0706  0.1034
 1835POPS   C2B22018   2.521   1.719   7.305  0.0999 -0.0222 -0.4341
 1835POPS   C3B22019   2.774   1.725   6.883 -0.2810 -0.0445  0.1342
 1835POPS   C4B22020   2.923   1.738   6.460  0.0121 -0.1219  0.0270
 1836POPS   CNO22021   6.088   9.150  11.627 -0.0857  0.1132  0.1157
 1836POPS   PO422022   6.426   9.329  11.621 -0.0828 -0.1666  0.3201
 1836POPS   GL122023   6.622   9.062  11.500 -0.0126  0.1719  0.0313
 1836POPS   GL222024   6.903   9.116  11.638  0.1381 -0.2937 -0.0531
 1836POPS   C1A22025   6.557   8.651  11.249  0.0616  0.2661  0.1033
 1836POPS   D2A22026   6.907   8.392  11.207  0.0549  0.3753 -0.2049
 1836POPS   C3A22027   7.261   8.286  11.430 -0.0998  0.0576 -0.2652
 1836POPS   C4A22028   7.565   8.292  11.781  0.0999  0.1266 -0.0052
 1836POPS   C1B22029   6.960   9.001  11.155 -0.1538  0.0003 -0.0688
 1836POPS   C2B22030   7.357   8.870  10.947 -0.1277  0.3445 -0.4850
 1836POPS   C3B22031   7.591   8.469  10.874  0.3041  0.0232  0.0007
 1836POPS   C4B22032   8.053   8.306  10.809  0.0253 -0.0891  0.5558
 1837POPS   CNO22033  16.292   5.712   9.497 -0.1817 -0.0134 -0.1602
 1837POPS   PO422034  16.483   5.419   9.335 -0.3782 -0.1448  0.2931
 1837POPS   GL122035  16.613   5.602   8.974  0.2997  0.1454 -0.1706
 1837POPS   GL222036  16.781   5.414   8.764 -0.1533 -0.2500 -0.1378
 1837POPS   C1A22037  16.544   5.975   8.726  0.0927 -0.1798 -0.2011
 1837POPS   D2A22038  16.570   6.057   8.237 -0.2388 -0.0367  0.0593
 1837POPS   C3A22039  16.363   6.059   7.798  0.3069  0.4003 -0.2149
 1837POPS   C4A22040  16.397   6.124   7.332 -0.2328 -0.0125  0.2937
 1837POPS   C1B22041  16.719   5.534   8.357 -0.1763  0.1744  0.1012
 1837POPS   C2B22042  16.414   5.599   7.995  0.1326 -0.1520 -0.0172
 1837POPS   C3B22043  16.517   5.617   7.539  0.0589 -0.0559  0.2779
 1837POPS   C4B22044  16.614   5.526   7.083  0.0432 -0.0319 -0.0395
 1838POPS   CNO22045   0.956   7.052   9.756  0.1421  0.0460 -0.2992
 1838POPS   PO422046   0.625   6.921   9.645  0.0955 -0.0958 -0.1478
 1838POPS   GL122047   0.535   6.870   9.237  0.5151 -0.1460 -0.4367
 1838POPS   GL222048   0.239   7.064   9.308  0.1053  0.2194  0.1968
 1838POPS   C1A22049   0.863   6.748   8.966 -0.3654 -0.2224 -0.2813
 1838POPS   D2A22050   1.156   6.866   8.623  0.1132  0.2244 -0.1058
 1838POPS   C3A22051   1.521   6.631   8.588 -0.0096 -0.0624 -0.2387
 1838POPS   C4A22052   1.523   6.340   8.243  0.0101  0.0716  0.1564
 1838POPS   C1B22053   0.076   7.312   8.892 -0.0335 -0.0391 -0.0565
 1838POPS   C2B22054   0.287   7.415   8.522  0.1551  0.0870  0.0001
 1838POPS   C3B22055   0.328   7.456   8.088 -0.0940 -0.2031  0.0733
 1838POPS   C4B22056   0.515   7.557   7.696  0.2153  0.1328  0.2361
 1839POPS   CNO22057  13.015  16.194   8.968  0.0627  0.0140 -0.1490
 1839POPS   PO422058  13.032  16.278   8.603 -0.1365  0.0082  0.0098
 1839POPS   GL122059  13.044  16.320   8.251  0.1217 -0.1537 -0.1699
 1839POPS   GL222060  12.767  16.451   8.227 -0.0219 -0.2468  0.1221
 1839POPS   C1A22061  12.822  16.058   7.959  0.0563 -0.3077  0.0628
 1839POPS   D2A22062  12.940  15.878   7.509  0.0186  0.4031  0.1627
 1839POPS   C3A22063  12.959  15.747   7.072  0.1783 -0.2013 -0.0782
 1839POPS   C4A22064  13.117  15.551   6.667 -0.0363  0.0661  0.3421
 1839POPS   C1B22065  12.513  16.434   7.932 -0.0701  0.0348 -0.1217
 1839POPS   C2B22066  12.363  16.552   7.475  0.0596 -0.1679 -0.0156
 1839POPS   C3B22067  12.050  16.707   7.249  0.1382 -0.0517  0.1189
 1839POPS   C4B22068  11.855  17.144   7.286  0.3456 -0.2078  0.1751
 1840POPS   CNO22069   3.150  11.413   8.457  0.1839  0.2916  0.0196
 1840POPS   PO422070   3.249  11.643   8.173  0.0338 -0.1110 -0.2498
 1840POPS   GL122071   3.177  11.410   7.841 -0.1381  0.1022  0.3128
 1840POPS   GL222072   3.218  11.587   7.641  0.1067  0.0784 -0.1552
 1840POPS   C1A22073   2.995  10.947   7.671  0.0318 -0.1759  0.2212
 1840POPS   D2A22074   2.988  11.015   7.221 -0.0548 -0.2550  0.0728
 1840POPS   C3A22075   3.324  11.007   6.891  0.0927  0.0510  0.2700
 1840POPS   C4A22076   3.286  11.070   6.411 -0.0798  0.1921 -0.1700
 1840POPS   C1B22077   2.979  11.524   7.280  0.0597 -0.1182 -0.1157
 1840POPS   C2B22078   2.938  11.488   6.813  0.2331 -0.0235 -0.1957
 1840POPS   C3B22079   2.841  11.055   6.649  0.2058  0.5884 -0.0988
 1840POPS   C4B22080   2.909  10.787   6.250 -0.1260 -0.0049  0.1988
 1841POPS   CNO22081   6.568  15.065   8.748  0.0655 -0.0818 -0.1523
 1841POPS   PO422082   6.518  15.330   8.488  0.0813  0.2599 -0.1460
 1841POPS   GL122083   6.394  15.422   8.157  0.1831  0.3163  0.0515
 1841POPS   GL222084   6.465  15.143   7.987 -0.2063  0.2224  0.1030
 1841POPS   C1A22085   6.585  15.731   7.906 -0.2692  0.0569  0.1553
 1841POPS   D2A22086   6.817  15.758   7.515 -0.2451  0.3121  0.0344
 1841POPS   C3A22087   6.602  15.711   7.072 -0.3205 -0.2603 -0.0592
 1841POPS   C4A22088   6.369  15.480   6.776  0.0279 -0.1962  0.3062
 1841POPS   C1B22089   6.787  15.289   7.644 -0.0538  0.0187  0.1433
 1841POPS   C2B22090   6.999  15.404   7.236  0.2072 -0.0844 -0.0738
 1841POPS   C3B22091   7.194  15.645   6.943  0.2565  0.1425 -0.0028
 1841POPS   C4B22092   7.625  15.661   6.862  0.0004 -0.1194 -0.0789
 1842POPS   CNO22093   3.413  14.651   8.766  0.0204 -0.3321  0.0405
 1842POPS   PO422094   3.562  14.668   8.418  0.0997  0.1059  0.2850
 1842POPS   GL122095   3.542  14.883   8.121  0.1195 -0.0824  0.0426
 1842POPS   GL222096   3.570  15.189   8.250 -0.2322 -0.0459  0.3774
 1842POPS   C1A22097   3.404  15.191   7.781 -0.1492  0.0244 -0.2697
 1842POPS   D2A22098   3.282  15.408   7.386  0.5111 -0.1508  0.1808
 1842POPS   C3A22099   3.653  15.591   7.195 -0.2290  0.0917 -0.0048
 1842POPS   C4A22100   3.833  15.691   6.759 -0.0881 -0.0272  0.2090
 1842POPS   C1B22101   3.928  15.408   8.035 -0.0501 -0.0195  0.2976
 1842POPS   C2B22102   4.012  15.512   7.590  0.1175  0.3217  0.2797
 1842POPS   C3B22103   4.088  15.273   7.153  0.0063  0.0219 -0.1159
 1842POPS   C4B22104   4.203  15.330   6.650 -0.3515 -0.0354  0.1076
 1843POPS   CNO22105  12.523   1.157  13.655 -0.1685  0.2083  0.0668
 1843POPS   PO422106  12.564   1.405  13.912  0.1396 -0.0115 -0.0525
 1843POPS   GL122107  12.433   1.650  14.189  0.0194  0.4000  0.2682
 1843POPS   GL222108  12.384   1.868  14.052  0.2101  0.3088  0.1840
 1843POPS   C1A22109  12.683   1.875  14.503 -0.0553  0.1298 -0.0080
 1843POPS   D2A22110  12.701   2.197  14.863 -0.1106  0.0194 -0.0611
 1843POPS   C3A22111  12.343   2.509  15.021  0.2610 -0.4500  0.0128
 1843POPS   C4A22112  12.111   2.792  15.320  0.1113  0.0006  0.0493
 1843POPS   C1B22113  12.117   2.216  14.022 -0.0958 -0.0580 -0.0874
 1843POPS   C2B22114  11.875   2.583  14.034 -0.0448  0.4974  0.1099
 1843POPS   C3B22115  11.463   2.690  14.017  0.1727 -0.0435  0.0853
 1843POPS   C4B22116  11.067   2.558  14.173 -0.0152 -0.1315  0.1674
 1844POPS   CNO22117   7.617   5.225   7.910 -0.1894 -0.2163  0.1501
 1844POPS   PO422118   7.629   4.867   7.830  0.0296  0.1816 -0.3091
 1844POPS   GL122119   7.290   4.720   8.073  0.0715  0.1812 -0.0205
 1844POPS   GL222120   7.229   4.463   7.895  0.0851  0.1567  0.0345
 1844POPS   C1A22121   6.940   4.597   8.407  0.2398  0.1670  0.3426
 1844POPS   D2A22122   6.696   4.569   8.815  0.0988  0.0807 -0.0036
 1844POPS   C3A22123   6.490   4.185   8.985  0.3274 -0.2972 -0.1245
 1844POPS   C4A22124   6.221   4.008   9.388 -0.1762  0.1263  0.1095
 1844POPS   C1B22125   6.906   4.213   8.066  0.1055  0.0624 -0.4225
 1844POPS   C2B22126   6.528   4.037   8.053  0.2537 -0.0060 -0.0544
 1844POPS   C3B22127   6.195   3.726   8.092  0.2556 -0.3053 -0.3503
 1844POPS   C4B22128   5.874   3.717   8.431 -0.0095  0.0177  0.0655
 1845POPS   CNO22129  12.458   4.537   6.118 -0.0969  0.2872  0.0275
 1845POPS   PO422130  12.565   4.839   6.299  0.0341  0.0967  0.0839
 1845POPS   GL122131  12.563   4.937   6.686  0.3671  0.4204 -0.1285
 1845POPS   GL222132  12.377   4.796   6.890 -0.3367 -0.0724  0.2283
 1845POPS   C1A22133  12.840   4.675   6.978 -0.0004 -0.0839  0.0041
 1845POPS   D2A22134  12.988   4.394   7.291 -0.0778  0.3505 -0.0355
 1845POPS   C3A22135  13.445   4.312   7.358 -0.1679 -0.1086 -0.1106
 1845POPS   C4A22136  13.808   4.101   7.498  0.1544  0.1331  0.2063
 1845POPS   C1B22137  12.449   4.514   7.270  0.0527  0.0906 -0.3023
 1845POPS   C2B22138  12.581   4.080   7.392 -0.0695 -0.5279  0.1399
 1845POPS   C3B22139  12.598   3.746   7.672  0.3398 -0.1991  0.4223
 1845POPS   C4B22140  12.954   3.516   7.860 -0.2429 -0.2549  0.2250
 1846POPS   CNO22141  14.697   1.489   5.311 -0.0530 -0.0201  0.1971
 1846POPS   PO422142  14.386   1.392   5.172  0.1148 -0.2684  0.0609
 1846POPS   GL122143  14.342   1.078   5.288  0.0534  0.2534 -0.2906
 1846POPS   GL222144  14.682   0.990   5.335  0.4635  0.0966  0.1228
 1846POPS   C1A22145  14.281   0.813   5.682  0.2110  0.0175  0.3399
 1846POPS   D2A22146  14.210   0.639   6.094 -0.1381 -0.2165 -0.0132
 1846POPS   C3A22147  14.517   0.867   6.382 -0.4278  0.3158 -0.2976
 1846POPS   C4A22148  14.802   1.039   6.721 -0.1074 -0.1575  0.1028
 1846POPS   C1B22149  14.770   0.835   5.776  0.1713 -0.1374  0.0512
 1846POPS   C2B22150  14.986   0.816   6.210 -0.1266  0.1003  0.0050
 1846POPS   C3B22151  15.307   0.718   6.505 -0.1096 -0.1403  0.0052
 1846POPS   C4B22152  15.637   0.861   6.809  0.1813  0.4239 -0.3008
 1847POPS   CNO22153   9.520   7.114   8.998 -0.1809  0.0147  0.0588
 1847POPS   PO422154   9.220   7.238   9.138 -0.1354 -0.0221 -0.1730
 1847POPS   GL122155   9.310   7.551   9.397  0.2903  0.0839  0.1816
 1847POPS   GL222156   9.474   7.423   9.619 -0.0820  0.0273  0.2589
 1847POPS   C1A22157   9.010   7.799   9.650  0.1680  0.2221  0.0937
 1847POPS   D2A22158   8.669   7.906   9.870 -0.1160  0.0264  0.1533
 1847POPS   C3A22159   8.289   8.158   9.745 -0.0652  0.1918 -0.1643
 1847POPS   C4A22160   7.932   8.408   9.615  0.0483  0.0748 -0.4830
 1847POPS   C1B22161   9.347   7.611  10.043  0.0588  0.2176  0.1418
 1847POPS   C2B22162   8.954   7.609  10.258  0.1311 -0.0656 -0.2752
 1847POPS   C3B22163   8.480   7.703  10.395 -0.2473 -0.0857 -0.0988
 1847POPS   C4B22164   8.272   8.101  10.378 -0.2472  0.0963  0.0658
 1848POPS   CNO22165  10.711   3.768   7.503 -0.2878  0.2657  0.1798
 1848POPS   PO422166  10.354   3.787   7.455  0.1760 -0.1689  0.1749
 1848POPS   GL122167  10.303   3.530   7.689 -0.3199  0.0776  0.0040
 1848POPS   GL222168  10.155   3.712   7.962  0.1526  0.2281 -0.1191
 1848POPS   C1A22169  10.617   3.237   7.861 -0.3644 -0.1723 -0.2561
 1848POPS   D2A22170  10.829   2.884   7.919 -0.0472  0.2969 -0.2188
 1848POPS   C3A22171  10.741   2.479   8.124 -0.0475 -0.1331  0.3778
 1848POPS   C4A22172  10.891   2.230   8.428  0.0286  0.2672 -0.2246
 1848POPS   C1B22173  10.447   3.520   8.326 -0.2188 -0.2148 -0.0668
 1848POPS   C2B22174  10.402   3.102   8.558  0.2926 -0.2524  0.2036
 1848POPS   C3B22175  10.108   2.848   8.813 -0.0836 -0.2451 -0.2219
 1848POPS   C4B22176  10.159   2.430   9.062 -0.2930  0.3126 -0.1985
 1849POPS   CNO22177  11.634   4.212   6.578 -0.4380  0.1932  0.1522
 1849POPS   PO422178  11.901   3.964   6.728 -0.0877 -0.1192  0.0812
 1849POPS   GL122179  11.950   3.673   7.009  0.0837 -0.3176 -0.0773
 1849POPS   GL222180  12.126   3.389   6.970  0.4852  0.2761 -0.0799
 1849POPS   C1A22181  12.033   3.839   7.432  0.2512  0.0441  0.0949
 1849POPS   D2A22182  12.158   3.742   7.888  0.1103 -0.0539 -0.3857
 1849POPS   C3A22183  12.503   3.522   8.132  0.0393  0.0407 -0.2624
 1849POPS   C4A22184  12.903   3.783   8.327  0.1409  0.0727 -0.0365
 1849POPS   C1B22185  12.234   3.391   7.471  0.0103 -0.3059 -0.0276
 1849POPS   C2B22186  12.583   3.164   7.711  0.0897  0.1270  0.1432
 1849POPS   C3B22187  12.943   2.940   7.566 -0.1683 -0.1065 -0.2659
 1849POPS   C4B22188  13.383   2.772   7.566 -0.1694 -0.0541 -0.0499
 1850POPS   CNO22189   9.392   3.922   6.955 -0.0151 -0.1486  0.1864
 1850POPS   PO422190   9.520   3.627   7.193  0.0658  0.0931 -0.3558
 1850POPS   GL122191   9.497   3.285   7.416 -0.3040 -0.1248 -0.0685
 1850POPS   GL222192   9.159   3.293   7.468 -0.3042  0.3008  0.0354
 1850POPS   C1A22193   9.353   2.849   7.446  0.0739 -0.1368 -0.0093
 1850POPS   D2A22194   9.599   2.505   7.614  0.0358  0.2739 -0.0185
 1850POPS   C3A22195   9.944   2.523   7.855 -0.2122 -0.1953  0.1142
 1850POPS   C4A22196  10.225   2.262   8.133 -0.0077  0.0406  0.0568
 1850POPS   C1B22197   8.954   2.998   7.781  0.0089  0.0101  0.2618
 1850POPS   C2B22198   8.738   2.559   7.920  0.3212 -0.1997 -0.0538
 1850POPS   C3B22199   8.586   2.196   8.159 -0.0908 -0.1730 -0.1628
 1850POPS   C4B22200   8.698   1.802   8.409 -0.3169  0.0565  0.0154
 1851POPS   CNO22201   1.979  12.384   4.055 -0.0096 -0.2543 -0.1266
 1851POPS   PO422202   1.602  12.442   4.124  0.1062  0.0216  0.0090
 1851POPS   GL122203   1.581  12.263   4.467 -0.3079 -0.2481  0.1630
 1851POPS   GL222204   1.300  12.261   4.535 -0.2768  0.1901 -0.0055
 1851POPS   C1A22205   1.672  12.620   4.809  0.0021 -0.2242  0.0987
 1851POPS   D2A22206   1.773  12.834   5.188 -0.0257  0.0847 -0.1398
 1851POPS   C3A22207   1.586  12.920   5.648 -0.1218  0.2919  0.4315
 1851POPS   C4A22208   1.773  13.084   6.071 -0.2091  0.2440  0.1556
 1851POPS   C1B22209   1.445  12.174   4.972 -0.0003  0.1702 -0.0737
 1851POPS   C2B22210   1.763  12.302   5.271  0.1095  0.1087  0.0235
 1851POPS   C3B22211   1.958  12.567   5.611 -0.0431  0.1984 -0.0104
 1851POPS   C4B22212   2.253  12.773   5.890 -0.2605  0.1929 -0.1564
 1852POPS   CNO22213   6.765   5.635   6.645  0.4583  0.0749  0.2998
 1852POPS   PO422214   6.505   5.781   6.863  0.4621  0.1028  0.0199
 1852POPS   GL122215   6.093   5.827   6.979 -0.0831  0.2087 -0.4176
 1852POPS   GL222216   6.020   5.527   6.998  0.2023  0.1779  0.0820
 1852POPS   C1A22217   5.757   5.897   7.301 -0.0505 -0.3234  0.1332
 1852POPS   D2A22218   5.689   6.005   7.775 -0.1760 -0.1447  0.0679
 1852POPS   C3A22219   5.363   6.250   7.975 -0.0013  0.0737  0.0378
 1852POPS   C4A22220   5.116   6.688   7.993  0.3634 -0.0525  0.2414
 1852POPS   C1B22221   5.801   5.246   7.351 -0.1221  0.1100 -0.0029
 1852POPS   C2B22222   5.524   5.164   7.641 -0.0368 -0.0928  0.0364
 1852POPS   C3B22223   5.528   4.908   8.049 -0.2338 -0.5033  0.2741
 1852POPS   C4B22224   5.495   4.544   8.390 -0.0098  0.0038  0.1975
 1853POPS   CNO22225  12.101  12.348   4.243 -0.1796  0.2522  0.0191
 1853POPS   PO422226  12.282  12.301   4.587 -0.1757 -0.0260  0.0197
 1853POPS   GL122227  12.052  12.443   4.966  0.2945 -0.1733 -0.2831
 1853POPS   GL222228  11.875  12.296   5.069  0.1018  0.0503 -0.1908
 1853POPS   C1A22229  11.926  12.833   5.165  0.1673 -0.1067 -0.1046
 1853POPS   D2A22230  11.664  13.210   5.232  0.2747  0.0539 -0.1022
 1853POPS   C3A22231  11.523  13.257   5.667  0.0304  0.0800 -0.0480
 1853POPS   C4A22232  11.556  13.040   6.086  0.0939  0.2691 -0.0856
 1853POPS   C1B22233  12.011  12.411   5.513 -0.3015 -0.1285  0.0866
 1853POPS   C2B22234  12.124  12.366   5.963  0.0078  0.1267  0.0104
 1853POPS   C3B22235  12.184  12.304   6.457 -0.1752  0.0432  0.0334
 1853POPS   C4B22236  12.365  12.466   6.855  0.0190 -0.1410  0.0103
 1854POPS   CNO22237   2.290  15.135   4.067 -0.0291 -0.1709 -0.1076
 1854POPS   PO422238   2.325  15.528   4.020 -0.3222  0.0287 -0.2145
 1854POPS   GL122239   2.423  15.505   4.478  0.3739 -0.2210  0.1536
 1854POPS   GL222240   2.556  15.261   4.539 -0.3185  0.2741 -0.2648
 1854POPS   C1A22241   2.385  15.734   4.885 -0.1726 -0.0111  0.1578
 1854POPS   D2A22242   2.435  16.078   5.132  0.2387  0.1516  0.0388
 1854POPS   C3A22243   2.437  15.972   5.570 -0.1360  0.1254  0.0120
 1854POPS   C4A22244   2.467  15.572   5.756  0.0146 -0.0985 -0.0110
 1854POPS   C1B22245   2.538  15.175   4.999 -0.0828 -0.2056  0.3622
 1854POPS   C2B22246   2.183  14.871   5.176 -0.0466 -0.1448  0.4220
 1854POPS   C3B22247   1.695  14.957   5.384  0.2245  0.1948  0.3647
 1854POPS   C4B22248   1.468  14.930   5.760 -0.2903 -0.1525  0.1046
 1855POPS   CNO22249  10.271  15.259   4.667  0.2688  0.3429 -0.1690
 1855POPS   PO422250  10.454  15.003   4.870 -0.2073 -0.0691 -0.3278
 1855POPS   GL122251  10.491  14.920   5.157 -0.4188  0.0421  0.6436
 1855POPS   GL222252  10.722  14.727   5.167 -0.0571  0.4022 -0.1856
 1855POPS   C1A22253  10.349  14.711   5.535 -0.2770  0.3932 -0.1307
 1855POPS   D2A22254  10.319  14.340   5.762  0.1567  0.2292  0.0495
 1855POPS   C3A22255  10.432  14.387   6.207 -0.4873 -0.1664 -0.0179
 1855POPS   C4A22256  10.830  14.430   6.407  0.1415 -0.1230 -0.0707
 1855POPS   C1B22257  10.830  14.864   5.640  0.1300 -0.1764 -0.0640
 1855POPS   C2B22258  11.330  14.748   5.770 -0.1594 -0.4448  0.1928
 1855POPS   C3B22259  11.708  14.764   6.003 -0.2476  0.0206 -0.0235
 1855POPS   C4B22260  12.071  14.733   6.319 -0.2379 -0.0634 -0.0008
 1856POPS   CNO22261   9.382   5.200  11.511  0.1716  0.0962  0.2403
 1856POPS   PO422262   9.594   5.080  11.188  0.2859  0.1626 -0.2087
 1856POPS   GL122263   9.396   4.779  11.288 -0.0750  0.0888  0.0280
 1856POPS   GL222264   9.505   4.681  11.542  0.0503 -0.0310 -0.0586
 1856POPS   C1A22265   9.047   4.453  11.336  0.1402 -0.0789 -0.4127
 1856POPS   D2A22266   9.072   4.050  11.484 -0.1410  0.0778  0.3273
 1856POPS   C3A22267   8.802   3.731  11.292 -0.1152  0.0649 -0.2609
 1856POPS   C4A22268   8.474   3.687  10.996  0.2196 -0.2695  0.2511
 1856POPS   C1B22269   9.590   4.196  11.507  0.1642  0.2915  0.0199
 1856POPS   C2B22270   9.879   3.801  11.535 -0.0963 -0.0107 -0.3472
 1856POPS   C3B22271   9.966   3.324  11.429 -0.2229  0.2434  0.0475
 1856POPS   C4B22272  10.003   2.877  11.279  0.0505  0.1654 -0.2406
 1857POPS   CNO22273   4.404  10.805   4.637 -0.0872 -0.1210 -0.1724
 1857POPS   PO422274   4.662  11.092   4.656 -0.0204  0.1233  0.2940
 1857POPS   GL122275   4.655  11.268   5.012 -0.0385  0.4075 -0.1835
 1857POPS   GL222276   4.586  11.537   5.024 -0.0314 -0.0316 -0.1803
 1857POPS   C1A22277   4.556  11.159   5.413 -0.2964 -0.0246  0.1117
 1857POPS   D2A22278   4.285  10.832   5.604  0.0847 -0.1121  0.3293
 1857POPS   C3A22279   4.110  10.954   6.025 -0.0718 -0.1393 -0.0404
 1857POPS   C4A22280   4.206  11.097   6.422 -0.1045 -0.2182  0.0174
 1857POPS   C1B22281   4.246  11.794   5.248 -0.0041  0.0004  0.0098
 1857POPS   C2B22282   4.101  12.125   5.464  0.1531 -0.1484  0.2059
 1857POPS   C3B22283   3.873  12.420   5.696  0.2712  0.1649  0.1088
 1857POPS   C4B22284   3.617  12.675   6.037 -0.0142  0.0229  0.4394
 1858POPS   CNO22285   0.496  15.172   4.123 -0.0896  0.1588  0.0839
 1858POPS   PO422286   0.808  14.980   4.076 -0.0518 -0.4616 -0.1344
 1858POPS   GL122287   0.883  14.835   4.559 -0.0046 -0.4529 -0.1584
 1858POPS   GL222288   0.677  15.035   4.666  0.2732  0.0691  0.1807
 1858POPS   C1A22289   1.058  14.854   4.989  0.1413  0.3675  0.2085
 1858POPS   D2A22290   1.167  15.074   5.386  0.2157 -0.0791  0.0471
 1858POPS   C3A22291   1.107  15.534   5.423 -0.1287 -0.2701 -0.3143
 1858POPS   C4A22292   1.145  15.949   5.641  0.0615  0.1855 -0.1247
 1858POPS   C1B22293   0.597  14.832   5.083  0.1437 -0.1278 -0.0342
 1858POPS   C2B22294   0.372  14.872   5.486  0.2329 -0.4293 -0.1236
 1858POPS   C3B22295   0.315  14.973   5.957  0.2571 -0.1783  0.0223
 1858POPS   C4B22296   0.444  14.970   6.415  0.1895 -0.0649 -0.2953
 1859POPS   CNO22297  13.765   5.349   6.123 -0.0326 -0.0376  0.0646
 1859POPS   PO422298  13.684   5.591   6.393 -0.2257  0.0323 -0.2698
 1859POPS   GL122299  13.761   5.364   6.640  0.3487  0.5039 -0.0367
 1859POPS   GL222300  13.518   5.148   6.649 -0.2129 -0.0767 -0.0754
 1859POPS   C1A22301  14.111   5.460   6.952 -0.0394 -0.0585  0.1792
 1859POPS   D2A22302  14.263   5.576   7.336 -0.0886  0.0171 -0.0948
 1859POPS   C3A22303  14.050   5.628   7.754 -0.3059  0.2023 -0.1127
 1859POPS   C4A22304  14.145   5.434   8.131  0.2135 -0.0650  0.2599
 1859POPS   C1B22305  13.793   5.026   6.999  0.3409  0.2249  0.1919
 1859POPS   C2B22306  14.131   5.091   7.280  0.0743 -0.0194  0.0525
 1859POPS   C3B22307  14.225   4.840   7.700 -0.3037  0.1302 -0.0679
 1859POPS   C4B22308  14.472   4.641   8.097  0.0309  0.0798  0.1465
 1860POPS   CNO22309   8.840   5.326  10.743  0.1645 -0.1232 -0.1309
 1860POPS   PO422310   8.639   5.296  11.085  0.0435  0.2295  0.2365
 1860POPS   GL122311   8.471   4.959  11.055 -0.4318  0.0357  0.0406
 1860POPS   GL222312   8.635   4.675  11.118 -0.1140 -0.1559  0.0254
 1860POPS   C1A22313   8.078   4.872  11.174  0.1922 -0.2291 -0.3012
 1860POPS   D2A22314   7.750   4.652  11.380  0.1507 -0.2497  0.2852
 1860POPS   C3A22315   7.455   4.318  11.378 -0.0353 -0.3339 -0.0815
 1860POPS   C4A22316   7.411   3.853  11.501  0.2362  0.3269 -0.1389
 1860POPS   C1B22317   8.551   4.236  11.205  0.0241 -0.2527 -0.0156
 1860POPS   C2B22318   8.474   4.055  11.626 -0.2773  0.1698 -0.0798
 1860POPS   C3B22319   8.387   3.680  11.913  0.1464 -0.1314 -0.0058
 1860POPS   C4B22320   8.093   3.824  12.256  0.2330  0.0576 -0.1259
 1861POPS   CNO22321  15.755   0.533   4.374  0.4121 -0.2857 -0.1063
 1861POPS   PO422322  15.966   0.826   4.356  0.0984  0.1923  0.1149
 1861POPS   GL122323  16.046   0.793   4.719  0.1143  0.2679 -0.5539
 1861POPS   GL222324  16.018   1.002   4.862  0.3282 -0.0152 -0.0721
 1861POPS   C1A22325  15.803   0.567   5.017  0.2042 -0.0056 -0.3061
 1861POPS   D2A22326  15.680   0.747   5.438 -0.2918 -0.1847 -0.3057
 1861POPS   C3A22327  15.682   1.186   5.594  0.2164 -0.3003 -0.1154
 1861POPS   C4A22328  15.562   1.608   5.649  0.0482  0.0625 -0.2547
 1861POPS   C1B22329  16.184   0.755   5.224  0.3299  0.0159  0.1352
 1861POPS   C2B22330  16.155   0.679   5.668  0.1192  0.1251  0.2609
 1861POPS   C3B22331  15.986   0.972   5.967 -0.2853 -0.3851 -0.0256
 1861POPS   C4B22332  15.755   0.833   6.338 -0.0793 -0.0219  0.2039
 1862POPS   CNO22333   6.193   4.025   5.777  0.0005 -0.2326 -0.3175
 1862POPS   PO422334   6.143   3.758   6.056  0.0295  0.1874 -0.0709
 1862POPS   GL122335   5.881   3.757   6.321  0.0597  0.0938  0.2433
 1862POPS   GL222336   5.662   3.648   6.406 -0.0357  0.2376  0.1553
 1862POPS   C1A22337   5.836   3.969   6.714 -0.0465  0.1196 -0.1672
 1862POPS   D2A22338   5.729   3.912   7.144 -0.0470  0.6315 -0.0836
 1862POPS   C3A22339   5.440   3.653   7.448 -0.2079  0.1824 -0.0498
 1862POPS   C4A22340   5.263   3.578   7.846  0.1405  0.0543 -0.2435
 1862POPS   C1B22341   5.339   3.925   6.608  0.0572 -0.0032  0.0145
 1862POPS   C2B22342   5.070   3.851   6.930  0.3186 -0.0396 -0.1315
 1862POPS   C3B22343   4.971   3.719   7.329 -0.3687 -0.2289  0.1264
 1862POPS   C4B22344   4.505   3.671   7.491 -0.0739 -0.0228  0.0346
 1863POPS   CNO22345   1.882   8.434   4.806  0.2048  0.2560  0.2210
 1863POPS   PO422346   1.826   8.016   4.904  0.1375  0.0897 -0.3150
 1863POPS   GL122347   1.810   8.149   5.276  0.2046  0.2335 -0.0542
 1863POPS   GL222348   2.138   8.276   5.248 -0.1865 -0.5235 -0.0591
 1863POPS   C1A22349   1.622   8.278   5.698 -0.1988 -0.1130  0.0461
 1863POPS   D2A22350   1.497   8.561   6.072  0.2418  0.1244  0.0525
 1863POPS   C3A22351   1.248   8.841   6.315 -0.0731 -0.0822  0.5817
 1863POPS   C4A22352   1.047   8.991   6.653 -0.1048 -0.1069 -0.2243
 1863POPS   C1B22353   2.349   8.298   5.617  0.1071 -0.1334  0.0808
 1863POPS   C2B22354   2.637   8.486   5.952 -0.0864 -0.1588 -0.2909
 1863POPS   C3B22355   2.566   8.319   6.319  0.0934  0.5433 -0.1537
 1863POPS   C4B22356   2.394   8.474   6.746  0.0149  0.2719 -0.0466
 1864POPS   CNO22357  15.585  13.858   3.855 -0.0631  0.0275  0.4193
 1864POPS   PO422358  15.921  13.824   4.005  0.0862  0.0777  0.1076
 1864POPS   GL122359  16.032  13.703   4.386 -0.2715 -0.1852  0.1147
 1864POPS   GL222360  16.193  13.849   4.515 -0.0459  0.0088  0.0922
 1864POPS   C1A22361  15.878  13.504   4.765 -0.1199  0.2351  0.0215
 1864POPS   D2A22362  15.641  13.612   5.130  0.0218 -0.4212 -0.0664
 1864POPS   C3A22363  15.833  13.940   5.391  0.0268 -0.0856  0.1703
 1864POPS   C4A22364  16.067  14.289   5.569 -0.3603 -0.4164 -0.4029
 1864POPS   C1B22365  16.125  13.859   4.988 -0.0308 -0.1068 -0.1611
 1864POPS   C2B22366  16.105  13.528   5.353  0.0781 -0.0481  0.1117
 1864POPS   C3B22367  16.207  13.480   5.785  0.1299  0.1891 -0.1013
 1864POPS   C4B22368  16.092  13.331   6.171 -0.0526  0.0149  0.0537
 1865POPS   CNO22369   7.340   5.156   7.115  0.2566  0.0998  0.1266
 1865POPS   PO422370   7.315   5.265   7.474  0.1160  0.0884 -0.2344
 1865POPS   GL122371   7.238   5.088   7.777  0.1655  0.1364 -0.0116
 1865POPS   GL222372   7.105   5.336   7.949 -0.1013 -0.1799  0.1504
 1865POPS   C1A22373   6.858   4.830   7.899  0.2485  0.1165 -0.1319
 1865POPS   D2A22374   6.493   4.799   8.242  0.1200 -0.0529 -0.0249
 1865POPS   C3A22375   6.299   4.399   8.353  0.1621  0.2130  0.1405
 1865POPS   C4A22376   6.284   4.002   8.537 -0.2317  0.0872 -0.1389
 1865POPS   C1B22377   7.020   5.116   8.346 -0.2444  0.2460  0.1415
 1865POPS   C2B22378   6.759   5.031   8.711 -0.0794  0.2325  0.3155
 1865POPS   C3B22379   6.474   5.049   9.042  0.1086 -0.1306 -0.1717
 1865POPS   C4B22380   6.378   5.379   9.377 -0.0846  0.0715 -0.0073
 1866POPS   CNO22381  10.648  10.482   5.612  0.2269 -0.4134  0.0811
 1866POPS   PO422382  10.577  10.715   5.308 -0.0482 -0.1161  0.1956
 1866POPS   GL122383  10.902  10.904   5.493  0.2543 -0.3232 -0.1380
 1866POPS   GL222384  10.700  11.063   5.669 -0.0538  0.0769 -0.0426
 1866POPS   C1A22385  11.110  10.944   5.917  0.0294 -0.0086 -0.0807
 1866POPS   D2A22386  11.472  10.855   6.151  0.0133 -0.0883  0.0865
 1866POPS   C3A22387  11.394  10.914   6.582  0.0360  0.2194 -0.0068
 1866POPS   C4A22388  11.371  11.060   7.035  0.3353  0.0053  0.1463
 1866POPS   C1B22389  10.706  11.380   6.011  0.1464 -0.0111 -0.0918
 1866POPS   C2B22390  11.004  11.676   6.177  0.1702  0.0856 -0.0871
 1866POPS   C3B22391  11.218  12.076   6.147 -0.3378  0.0982  0.0456
 1866POPS   C4B22392  11.180  12.369   6.454 -0.1338  0.0887  0.2170
 1867POPS   CNO22393   5.691  15.441   4.079 -0.1511 -0.0774 -0.1962
 1867POPS   PO422394   5.487  15.270   4.361 -0.0900  0.2960  0.1099
 1867POPS   GL122395   5.527  15.005   4.659  0.1642 -0.4254  0.2606
 1867POPS   GL222396   5.225  14.926   4.733 -0.0785 -0.2658 -0.4007
 1867POPS   C1A22397   5.795  14.629   4.638  0.0188  0.0401  0.2837
 1867POPS   D2A22398   5.997  14.247   4.704 -0.0644 -0.2214  0.3364
 1867POPS   C3A22399   5.621  14.052   4.932 -0.0473  0.1161 -0.0495
 1867POPS   C4A22400   5.289  14.232   5.194  0.4544 -0.1983  0.2139
 1867POPS   C1B22401   5.406  14.991   5.143 -0.0446  0.0970 -0.2222
 1867POPS   C2B22402   5.703  14.806   5.407  0.1390 -0.1062 -0.0549
 1867POPS   C3B22403   5.699  14.667   5.866  0.0701 -0.2206  0.2589
 1867POPS   C4B22404   5.405  14.440   6.150  0.0272 -0.0554 -0.0605
 1868POPS   CNO22405   8.959   9.575   5.400 -0.1581 -0.1382 -0.1484
 1868POPS   PO422406   8.875   9.755   5.759  0.0487 -0.0984  0.0995
 1868POPS   GL122407   8.838   9.863   6.114 -0.0193 -0.2122  0.2636
 1868POPS   GL222408   8.604  10.013   6.125  0.2223  0.0363 -0.1245
 1868POPS   C1A22409   9.078  10.210   6.312  0.4705  0.2800 -0.0643
 1868POPS   D2A22410   9.183  10.644   6.154 -0.6275 -0.4201  0.3806
 1868POPS   C3A22411   9.158  11.022   6.418  0.1095  0.0286  0.0641
 1868POPS   C4A22412   9.071  11.348   6.705  0.1678  0.3689 -0.0078
 1868POPS   C1B22413   8.580  10.180   6.483  0.0460  0.2154 -0.2444
 1868POPS   C2B22414   8.575  10.354   6.894  0.0839  0.0228 -0.1578
 1868POPS   C3B22415   8.796  10.570   7.270  0.0283  0.0328  0.0481
 1868POPS   C4B22416   9.176  10.523   7.534 -0.0174  0.2200  0.0941
 1869POPS   CNO22417  11.059   6.733   9.318  0.3686 -0.1969 -0.1875
 1869POPS   PO422418  10.855   6.574   9.574 -0.1103 -0.0793  0.0809
 1869POPS   GL122419  11.042   6.561   9.786  0.4166  0.1239  0.3189
 1869POPS   GL222420  11.366   6.513   9.768 -0.0568 -0.0302 -0.0807
 1869POPS   C1A22421  11.260   6.773  10.160 -0.0341  0.0095 -0.0611
 1869POPS   D2A22422  11.671   6.699  10.348 -0.0271 -0.0622  0.0987
 1869POPS   C3A22423  12.058   6.989  10.323 -0.1705 -0.1983  0.2094
 1869POPS   C4A22424  12.412   7.239  10.438 -0.1731 -0.1079  0.2066
 1869POPS   C1B22425  11.867   6.507   9.703  0.1925 -0.1301 -0.1842
 1869POPS   C2B22426  12.140   6.873   9.586 -0.1283  0.1745 -0.0628
 1869POPS   C3B22427  12.000   7.256   9.429  0.0459 -0.1845 -0.0114
 1869POPS   C4B22428  12.166   7.565   9.051  0.1773 -0.0121 -0.0874
 1870POPS   CNO22429   1.164  15.597   3.564 -0.2573 -0.2052 -0.1188
 1870POPS   PO422430   1.295  15.350   3.799 -0.1376  0.0948  0.0872
 1870POPS   GL122431   1.374  15.267   4.163  0.3850  0.1343  0.2450
 1870POPS   GL222432   1.229  15.162   4.455  0.1832  0.1794  0.0038
 1870POPS   C1A22433   1.486  15.594   4.551 -0.1149 -0.1372 -0.2261
 1870POPS   D2A22434   1.569  15.801   4.973 -0.0269  0.2027 -0.1979
 1870POPS   C3A22435   1.953  15.802   5.170 -0.1650 -0.0843  0.1313
 1870POPS   C4A22436   1.935  15.777   5.674 -0.1277 -0.4040  0.0422
 1870POPS   C1B22437   1.066  15.418   4.806 -0.0484 -0.0674 -0.0662
 1870POPS   C2B22438   0.876  15.782   5.026  0.1347 -0.0715  0.2187
 1870POPS   C3B22439   0.649  15.790   5.486 -0.0649  0.1377  0.0752
 1870POPS   C4B22440   0.304  16.007   5.747  0.2323 -0.1315  0.1253
 1871POPS   CNO22441  12.787   8.220   6.072 -0.0250  0.1917  0.2734
 1871POPS   PO422442  12.882   8.522   6.284 -0.1433  0.0795  0.3361
 1871POPS   GL122443  13.071   8.544   6.540  0.1524 -0.1626  0.0291
 1871POPS   GL222444  13.377   8.468   6.588  0.0366  0.1093 -0.1384
 1871POPS   C1A22445  13.080   8.778   6.946  0.0537 -0.5498  0.2361
 1871POPS   D2A22446  13.228   8.814   7.376  0.0982  0.0091  0.4131
 1871POPS   C3A22447  13.396   8.691   7.760  0.0784 -0.1239  0.2343
 1871POPS   C4A22448  13.426   8.940   8.146 -0.0072 -0.0147  0.5661
 1871POPS   C1B22449  13.434   8.423   7.067 -0.3242  0.0455  0.1525
 1871POPS   C2B22450  13.740   8.568   7.439  0.0900  0.0997 -0.0844
 1871POPS   C3B22451  13.817   8.712   7.923  0.0172  0.3892 -0.0338
 1871POPS   C4B22452  13.794   8.736   8.376 -0.2411  0.2309 -0.1759
 1872POPS   CNO22453   3.371  13.501   3.777 -0.2090 -0.1354  0.3479
 1872POPS   PO422454   3.195  13.694   4.028  0.1240  0.1828 -0.1520
 1872POPS   GL122455   3.328  13.694   4.419 -0.2025 -0.3062 -0.0502
 1872POPS   GL222456   3.089  13.849   4.591 -0.1397 -0.1251 -0.0023
 1872POPS   C1A22457   3.633  13.517   4.780  0.1888  0.0994  0.1704
 1872POPS   D2A22458   3.639  13.644   5.230 -0.0525  0.2800  0.4297
 1872POPS   C3A22459   3.561  13.412   5.596  0.2988  0.1768 -0.0137
 1872POPS   C4A22460   3.662  13.203   6.033 -0.2349  0.1830  0.0136
 1872POPS   C1B22461   2.760  13.556   4.878  0.0153  0.0866 -0.4130
 1872POPS   C2B22462   2.551  13.143   4.978  0.0276  0.2956  0.0220
 1872POPS   C3B22463   2.298  12.988   5.291  0.0382  0.0936 -0.0735
 1872POPS   C4B22464   2.003  13.196   5.569 -0.2299 -0.0439 -0.1897
 1873POPS   CNO22465   1.388   4.254   4.924  0.1386  0.2394  0.1496
 1873POPS   PO422466   1.010   4.255   5.007  0.1178 -0.0188 -0.2334
 1873POPS   GL122467   1.090   3.918   5.111 -0.0406  0.1238 -0.0208
 1873POPS   GL222468   1.393   3.924   5.279 -0.0478  0.2798 -0.0458
 1873POPS   C1A22469   1.076   3.544   5.356  0.0580  0.1225 -0.2258
 1873POPS   D2A22470   0.850   3.498   5.765 -0.3087  0.0028  0.0373
 1873POPS   C3A22471   0.901   3.367   6.199  0.2247 -0.1181 -0.0090
 1873POPS   C4A22472   0.869   3.096   6.600 -0.1532 -0.0441  0.0405
 1873POPS   C1B22473   1.262   3.982   5.726 -0.5176 -0.1002  0.0070
 1873POPS   C2B22474   1.492   4.025   6.122  0.0822  0.0225  0.2143
 1873POPS   C3B22475   1.879   3.958   6.377  0.1326  0.2413 -0.2921
 1873POPS   C4B22476   2.065   3.533   6.539  0.0625  0.1749 -0.1504
 1874POPS   CNO22477   0.078   4.994   4.949  0.2384  0.0751 -0.0716
 1874POPS   PO422478  -0.101   5.311   5.083  0.4030  0.3050 -0.4140
 1874POPS   GL122479  -0.177   5.155   5.402  0.3752 -0.3560  0.4152
 1874POPS   GL222480  -0.183   4.800   5.377 -0.1153 -0.0891  0.0989
 1874POPS   C1A22481  -0.074   4.979   5.828 -0.0121 -0.1441 -0.3921
 1874POPS   D2A22482   0.048   5.029   6.292 -0.0467  0.2852 -0.0977
 1874POPS   C3A22483  -0.218   4.722   6.396 -0.0258  0.0263  0.0413
 1874POPS   C4A22484  -0.423   4.312   6.389  0.1557  0.1542 -0.0320
 1874POPS   C1B22485  -0.144   4.405   5.636  0.1918 -0.0735  0.0187
 1874POPS   C2B22486  -0.142   4.074   6.027  0.3962  0.1855 -0.1244
 1874POPS   C3B22487  -0.015   3.821   6.408  0.1801 -0.3103  0.0769
 1874POPS   C4B22488   0.007   3.577   6.786  0.0344  0.2651  0.0352
 1875POPS   CNO22489   5.031   4.583   6.069 -0.4920 -0.0104  0.0974
 1875POPS   PO422490   5.423   4.577   6.144 -0.0454  0.1905  0.2335
 1875POPS   GL122491   5.229   4.396   6.466  0.2273 -0.0414  0.0047
 1875POPS   GL222492   5.148   4.644   6.614  0.1070  0.2986  0.2287
 1875POPS   C1A22493   4.878   4.285   6.809 -0.2424  0.0989 -0.3922
 1875POPS   D2A22494   4.583   3.983   7.041 -0.0004 -0.1597 -0.3280
 1875POPS   C3A22495   4.152   3.910   6.840  0.0679  0.0204  0.0805
 1875POPS   C4A22496   3.948   3.475   6.776 -0.0961  0.2118  0.1249
 1875POPS   C1B22497   5.085   4.663   7.063 -0.0186  0.2209 -0.1411
 1875POPS   C2B22498   4.850   4.787   7.430  0.2079  0.0516 -0.2493
 1875POPS   C3B22499   4.644   4.702   7.810  0.2099  0.2690 -0.3765
 1875POPS   C4B22500   4.270   4.425   7.953  0.2283 -0.1386  0.1700
 1876POPS   CNO22501  12.063   7.413   6.981  0.2062 -0.3301  0.1008
 1876POPS   PO422502  12.116   7.490   7.352 -0.0810  0.1484 -0.0534
 1876POPS   GL122503  12.261   7.626   7.743  0.0151 -0.4441 -0.3040
 1876POPS   GL222504  12.172   7.872   7.780 -0.0930  0.1253  0.1143
 1876POPS   C1A22505  12.586   7.604   8.098  0.0524  0.0645 -0.0001
 1876POPS   D2A22506  13.044   7.502   8.211  0.1857  0.0747  0.3408
 1876POPS   C3A22507  13.325   7.138   8.312  0.1338  0.2938 -0.1619
 1876POPS   C4A22508  13.596   7.083   8.633 -0.2011 -0.2464 -0.0404
 1876POPS   C1B22509  12.591   8.070   7.820 -0.1959  0.2776 -0.2436
 1876POPS   C2B22510  12.889   8.004   8.211 -0.2417 -0.0299  0.1201
 1876POPS   C3B22511  13.200   7.999   8.500 -0.0109 -0.1303 -0.1562
 1876POPS   C4B22512  13.254   8.339   8.821 -0.1632 -0.1022 -0.0548
 1877POPS   CNO22513   8.192   8.366   6.244  0.1604  0.0153  0.0622
 1877POPS   PO422514   8.105   8.691   6.060 -0.0421  0.2386  0.0341
 1877POPS   GL122515   8.026   9.090   6.249  0.1033  0.0472  0.1562
 1877POPS   GL222516   8.267   9.218   6.400 -0.0510  0.0679  0.1022
 1877POPS   C1A22517   7.715   9.152   6.569 -0.0226 -0.1420  0.1924
 1877POPS   D2A22518   7.308   9.425   6.696  0.3069 -0.2290  0.0097
 1877POPS   C3A22519   7.169   9.398   7.123  0.0072  0.1392 -0.1875
 1877POPS   C4A22520   7.114   9.324   7.550  0.1122  0.1788 -0.2506
 1877POPS   C1B22521   8.059   9.584   6.663  0.0899  0.3279 -0.0357
 1877POPS   C2B22522   7.929  10.027   6.816  0.3703 -0.2343 -0.0888
 1877POPS   C3B22523   7.800  10.071   7.284 -0.3033  0.0127  0.0867
 1877POPS   C4B22524   7.945  10.249   7.662 -0.0017 -0.1986  0.2185
 1878POPS   CNO22525   0.597   8.335   4.897 -0.0153  0.2645  0.0309
 1878POPS   PO422526   0.816   8.660   4.831  0.0338 -0.0711 -0.1428
 1878POPS   GL122527   0.892   8.670   5.190  0.0017 -0.0106 -0.2360
 1878POPS   GL222528   0.593   8.580   5.296 -0.3195 -0.4393 -0.1592
 1878POPS   C1A22529   0.773   9.046   5.395  0.1150  0.1391  0.0281
 1878POPS   D2A22530   0.766   9.165   5.834  0.1922  0.1341 -0.2008
 1878POPS   C3A22531   0.648   9.615   6.000 -0.1922  0.1995  0.1274
 1878POPS   C4A22532   0.588  10.050   6.229  0.1843 -0.2357  0.0996
 1878POPS   C1B22533   0.467   8.722   5.738  0.0636 -0.0518 -0.0433
 1878POPS   C2B22534   0.214   8.878   6.150  0.1415  0.2099  0.1341
 1878POPS   C3B22535   0.254   8.887   6.589 -0.0216 -0.2536 -0.0278
 1878POPS   C4B22536   0.110   8.908   6.998  0.1529  0.0823  0.0564
 1879POPS   CNO22537   7.778   7.627   6.916  0.0155  0.1544 -0.0599
 1879POPS   PO422538   7.704   8.000   7.002 -0.1168 -0.0884  0.3274
 1879POPS   GL122539   7.487   7.792   7.238 -0.0563  0.0112 -0.0402
 1879POPS   GL222540   7.233   7.712   7.207  0.1388  0.0836  0.0045
 1879POPS   C1A22541   7.278   7.974   7.640  0.5017  0.0422 -0.0373
 1879POPS   D2A22542   6.868   8.152   7.704  0.1182 -0.2763 -0.1068
 1879POPS   C3A22543   6.859   8.458   8.032  0.0103 -0.1054  0.0588
 1879POPS   C4A22544   6.460   8.750   8.197  0.0857  0.0766  0.3523
 1879POPS   C1B22545   6.989   8.119   7.223  0.1382 -0.0246  0.1331
 1879POPS   C2B22546   7.049   8.544   7.495 -0.2886 -0.1343  0.0912
 1879POPS   C3B22547   6.990   8.901   7.747 -0.0724  0.1742  0.3723
 1879POPS   C4B22548   6.552   9.085   7.808 -0.0797  0.1567 -0.0354
 1880POPS   CNO22549  16.286   2.459   5.108 -0.0034  0.1061 -0.2160
 1880POPS   PO422550  16.624   2.347   4.942  0.0508 -0.0323  0.2353
 1880POPS   GL122551  16.583   2.206   5.434 -0.1673  0.2174 -0.1691
 1880POPS   GL222552  16.281   2.216   5.524  0.1620  0.0171  0.1690
 1880POPS   C1A22553  16.495   2.241   5.920  0.1430  0.3659  0.0461
 1880POPS   D2A22554  16.157   2.114   6.245 -0.4177 -0.2295 -0.2289
 1880POPS   C3A22555  16.301   1.830   6.627 -0.2670 -0.2634 -0.2834
 1880POPS   C4A22556  16.339   1.427   6.843 -0.0727  0.0327  0.0484
 1880POPS   C1B22557  15.997   2.059   5.812  0.2920 -0.0146 -0.4054
 1880POPS   C2B22558  15.750   1.785   6.080 -0.0705  0.0643  0.0129
 1880POPS   C3B22559  15.616   1.299   6.126  0.4437 -0.2042  0.1846
 1880POPS   C4B22560  15.330   1.028   5.880  0.1585  0.0211 -0.0065
 1881POPS   CNO22561   9.972   6.261  11.448 -0.1054  0.0480 -0.0244
 1881POPS   PO422562   9.765   6.491  11.704 -0.2356  0.0648 -0.0110
 1881POPS   GL122563   9.767   6.902  11.757  0.1149 -0.1168  0.0904
 1881POPS   GL222564  10.036   6.934  11.881 -0.1824 -0.0687 -0.0872
 1881POPS   C1A22565   9.887   7.251  11.470 -0.2533 -0.2974 -0.1505
 1881POPS   D2A22566  10.222   7.639  11.416  0.0949 -0.1699 -0.3199
 1881POPS   C3A22567  10.438   7.921  11.660  0.1130  0.1854  0.1246
 1881POPS   C4A22568  10.640   8.301  11.600 -0.0302 -0.1004 -0.2265
 1881POPS   C1B22569  10.357   7.306  11.801 -0.1996 -0.1590 -0.1668
 1881POPS   C2B22570  10.741   7.518  11.756  0.0590  0.0562 -0.3656
 1881POPS   C3B22571  10.919   7.900  11.899 -0.1033  0.2549  0.0642
 1881POPS   C4B22572  10.746   8.221  12.112 -0.1781 -0.0543  0.0573
 1882POPS   CNO22573   5.670  10.249   4.734 -0.1749 -0.1066  0.1648
 1882POPS   PO422574   5.317  10.387   4.636  0.2349 -0.0551 -0.2526
 1882POPS   GL122575   5.295  10.800   4.838  0.2902 -0.0480  0.0631
 1882POPS   GL222576   5.399  10.651   5.068 -0.2030 -0.3867  0.0133
 1882POPS   C1A22577   5.094  11.064   5.146  0.1443  0.0125 -0.1292
 1882POPS   D2A22578   4.955  11.446   5.386  0.1186  0.1239 -0.2365
 1882POPS   C3A22579   4.592  11.639   5.574  0.0266 -0.2068 -0.3127
 1882POPS   C4A22580   4.294  11.903   5.856 -0.1387 -0.1566 -0.0168
 1882POPS   C1B22581   5.146  10.654   5.431 -0.0399  0.0362 -0.0309
 1882POPS   C2B22582   5.171  10.541   5.830 -0.1191 -0.0438  0.0907
 1882POPS   C3B22583   5.047  10.851   6.196 -0.1357  0.1163  0.1216
 1882POPS   C4B22584   4.774  11.154   6.402  0.0544 -0.0599 -0.1036
 1883POPS   CNO22585   9.743   6.500  10.837  0.1022 -0.0662 -0.0807
 1883POPS   PO422586   9.543   6.774  11.030  0.4705 -0.2183  0.1045
 1883POPS   GL122587   9.324   7.103  11.001  0.1204  0.1832  0.0675
 1883POPS   GL222588   9.260   7.084  10.742 -0.5009 -0.0416 -0.0597
 1883POPS   C1A22589   9.402   7.308  11.398  0.1792  0.0258 -0.1096
 1883POPS   D2A22590   9.550   7.283  11.828 -0.0719 -0.0349  0.2040
 1883POPS   C3A22591   9.774   7.647  11.748  0.0797  0.1705  0.2808
 1883POPS   C4A22592   9.946   8.037  11.645 -0.1373 -0.0109 -0.0018
 1883POPS   C1B22593   9.334   7.572  10.646 -0.0829 -0.0992  0.1729
 1883POPS   C2B22594   9.125   7.968  10.678 -0.3245 -0.0947  0.2743
 1883POPS   C3B22595   9.078   8.305  10.929  0.3481 -0.1205 -0.0716
 1883POPS   C4B22596   8.923   8.687  10.840 -0.0478 -0.3384  0.0500
 1884POPS   CNO22597   7.495  11.056   4.767  0.2582  0.1994 -0.2221
 1884POPS   PO422598   7.347  11.153   5.089  0.0294 -0.0776  0.1396
 1884POPS   GL122599   7.290  11.317   5.537  0.1236 -0.4073  0.0892
 1884POPS   GL222600   7.079  11.069   5.561  0.0341 -0.0925  0.3229
 1884POPS   C1A22601   7.449  11.567   5.881  0.2928  0.2167 -0.0131
 1884POPS   D2A22602   7.407  11.776   6.265  0.1220  0.3660  0.0662
 1884POPS   C3A22603   7.048  11.771   6.515 -0.1202 -0.1411 -0.1754
 1884POPS   C4A22604   6.706  11.862   6.698  0.3872 -0.1425  0.4347
 1884POPS   C1B22605   6.872  11.043   5.919 -0.1087 -0.1396  0.0865
 1884POPS   C2B22606   6.768  11.059   6.369  0.3032  0.0112  0.1881
 1884POPS   C3B22607   6.685  11.281   6.776  0.1668  0.1520 -0.1247
 1884POPS   C4B22608   6.837  11.562   7.109 -0.1623 -0.0016  0.2014
 1885POPS   CNO22609   5.831  12.330   4.153  0.1907 -0.1809  0.0873
 1885POPS   PO422610   6.050  12.054   4.359  0.1233 -0.0670 -0.0981
 1885POPS   GL122611   6.136  12.250   4.740  0.1627 -0.0843  0.2244
 1885POPS   GL222612   6.307  12.501   4.783 -0.2175 -0.2061 -0.0588
 1885POPS   C1A22613   6.396  12.205   5.161 -0.1433  0.0905  0.1463
 1885POPS   D2A22614   6.553  12.111   5.616 -0.0794 -0.0383 -0.0647
 1885POPS   C3A22615   6.489  11.805   5.959  0.0033  0.2822  0.1282
 1885POPS   C4A22616   6.064  11.756   6.178  0.0459  0.0757 -0.0706
 1885POPS   C1B22617   6.012  12.739   5.090 -0.0696  0.0705 -0.0582
 1885POPS   C2B22618   5.775  12.993   5.394 -0.3792 -0.1391 -0.3657
 1885POPS   C3B22619   5.808  13.162   5.880 -0.0402 -0.1196  0.0240
 1885POPS   C4B22620   5.974  13.350   6.233  0.2456  0.0617  0.0718
 1886POPS   CNO22621  12.718  14.710   4.301  0.2073  0.0926  0.2150
 1886POPS   PO422622  12.751  14.353   4.141 -0.2107 -0.0500  0.1339
 1886POPS   GL122623  12.858  14.306   4.514  0.0420 -0.1284 -0.2221
 1886POPS   GL222624  13.104  14.391   4.587  0.2423  0.1401  0.5079
 1886POPS   C1A22625  12.586  14.304   4.954  0.1029  0.4264 -0.0384
 1886POPS   D2A22626  12.742  14.093   5.384 -0.0486 -0.0496  0.0619
 1886POPS   C3A22627  12.861  14.323   5.726 -0.1490  0.1188  0.2129
 1886POPS   C4A22628  12.996  14.460   6.132 -0.0282  0.2400 -0.1646
 1886POPS   C1B22629  13.129  14.839   4.727  0.2281 -0.1032  0.1111
 1886POPS   C2B22630  13.313  15.180   4.967 -0.0891 -0.1563 -0.1495
 1886POPS   C3B22631  13.416  15.085   5.398 -0.1282  0.2585 -0.1148
 1886POPS   C4B22632  13.387  15.125   5.893  0.2165  0.2077  0.0716
 1887POPS   CNO22633  13.255   9.822   5.110 -0.1152  0.0031  0.0695
 1887POPS   PO422634  12.995   9.719   5.378 -0.2427  0.3400  0.1596
 1887POPS   GL122635  12.888   9.627   5.728 -0.0799 -0.0767 -0.4494
 1887POPS   GL222636  13.147   9.800   5.907  0.1279 -0.0651 -0.3735
 1887POPS   C1A22637  12.581   9.873   5.999 -0.0271  0.1710 -0.1089
 1887POPS   D2A22638  12.399  10.275   6.132 -0.1701  0.1355  0.5073
 1887POPS   C3A22639  12.437  10.497   6.513 -0.0451 -0.1101 -0.1075
 1887POPS   C4A22640  12.571  10.944   6.615 -0.1395  0.0738 -0.3560
 1887POPS   C1B22641  12.994  10.114   6.229  0.0281 -0.4752  0.0916
 1887POPS   C2B22642  12.946  10.508   6.420 -0.1017 -0.0883 -0.3034
 1887POPS   C3B22643  13.113  10.934   6.304  0.0532  0.0488  0.1091
 1887POPS   C4B22644  13.217  11.202   5.862  0.0233  0.0623  0.3499
 1888POPS   CNO22645  10.836   6.258   8.807 -0.1271 -0.1747 -0.0237
 1888POPS   PO422646  11.155   6.300   8.996 -0.2384  0.2905 -0.1365
 1888POPS   GL122647  11.533   6.217   9.153 -0.1684  0.2806 -0.0690
 1888POPS   GL222648  11.701   6.444   9.124  0.0668 -0.3852 -0.1362
 1888POPS   C1A22649  11.638   6.081   9.545 -0.0189 -0.3233 -0.0678
 1888POPS   D2A22650  11.952   5.832   9.774 -0.3394  0.1371  0.0914
 1888POPS   C3A22651  12.061   5.375   9.911 -0.0142 -0.0512 -0.0568
 1888POPS   C4A22652  12.224   4.990  10.175 -0.2395 -0.0400 -0.2569
 1888POPS   C1B22653  12.011   6.774   9.115 -0.2735 -0.0586 -0.0991
 1888POPS   C2B22654  12.397   7.108   9.158 -0.0167 -0.0354  0.0452
 1888POPS   C3B22655  12.624   7.530   9.247  0.2547 -0.2275 -0.0985
 1888POPS   C4B22656  12.460   7.952   9.478 -0.1282 -0.2829  0.1671
 1889POPS   CNO22657   8.023   5.976   8.375 -0.1671 -0.1151 -0.2987
 1889POPS   PO422658   7.995   5.935   8.761 -0.2598  0.1246  0.1906
 1889POPS   GL122659   7.556   5.803   8.733  0.1827 -0.0263 -0.3027
 1889POPS   GL222660   7.550   5.515   8.864  0.1158 -0.0820 -0.0995
 1889POPS   C1A22661   7.295   6.180   8.625  0.1829 -0.2849  0.2707
 1889POPS   D2A22662   7.050   6.539   8.723  0.0015 -0.2237 -0.1532
 1889POPS   C3A22663   7.104   6.729   9.132 -0.1272 -0.0669 -0.1703
 1889POPS   C4A22664   7.185   7.096   9.416  0.0140 -0.2003  0.0738
 1889POPS   C1B22665   7.169   5.299   8.885  0.0898 -0.2398 -0.2697
 1889POPS   C2B22666   6.935   5.134   9.243 -0.3623  0.0021  0.2625
 1889POPS   C3B22667   6.629   4.944   9.510 -0.2022 -0.2542 -0.0922
 1889POPS   C4B22668   6.572   4.475   9.551  0.2055 -0.1180  0.0462
 1890POPS   CNO22669   2.364  32.731   4.525  0.0873 -0.0298 -0.0230
 1890POPS   PO422670   2.039  32.800   4.313 -0.0455  0.0953  0.2760
 1890POPS   GL122671   1.768  32.781   4.668  0.3977 -0.4745  0.1637
 1890POPS   GL222672   1.957  32.822   4.805 -0.2609 -0.0553 -0.0415
 1890POPS   C1A22673   1.453  32.843   5.005  0.2700 -0.1854 -0.0852
 1890POPS   D2A22674   0.995  32.821   5.220 -0.3396  0.1474 -0.0517
 1890POPS   C3A22675   0.965  33.179   5.418  0.2315  0.2414 -0.1488
 1890POPS   C4A22676   1.081  33.570   5.650 -0.2121  0.2778  0.0861
 1890POPS   C1B22677   2.066  32.742   5.285  0.1912  0.0185 -0.0313
 1890POPS   C2B22678   1.852  32.429   5.644 -0.3217  0.0140 -0.0151
 1890POPS   C3B22679   1.429  32.402   5.847 -0.2229  0.2549 -0.4161
 1890POPS   C4B22680   1.107  32.433   6.200 -0.1707 -0.1298  0.1524
 1891POPS   CNO22681  12.156  12.771   4.503 -0.3938  0.0706  0.2419
 1891POPS   PO422682  12.491  12.779   4.420 -0.1267  0.0644 -0.1796
 1891POPS   GL122683  12.556  12.998   4.751 -0.1175 -0.0781  0.1950
 1891POPS   GL222684  12.447  12.766   4.906 -0.0581  0.0430 -0.0938
 1891POPS   C1A22685  12.748  13.142   5.184 -0.0955  0.0496 -0.1469
 1891POPS   D2A22686  12.613  13.292   5.600  0.2589 -0.2654  0.0657
 1891POPS   C3A22687  12.750  13.567   5.897 -0.3335 -0.0300  0.2769
 1891POPS   C4A22688  13.044  13.734   6.178  0.1074 -0.2012  0.1476
 1891POPS   C1B22689  12.386  12.855   5.359 -0.2699 -0.0568  0.3797
 1891POPS   C2B22690  12.527  12.825   5.806 -0.0254  0.1355  0.0509
 1891POPS   C3B22691  12.533  13.094   6.191 -0.4295 -0.4110  0.0464
 1891POPS   C4B22692  12.624  13.480   6.408 -0.1452  0.3083 -0.0040
 1892POPS   CNO22693  14.436   9.327   4.922 -0.1559 -0.2218 -0.4788
 1892POPS   PO422694  14.567   9.226   5.251  0.1215  0.1004 -0.1730
 1892POPS   GL122695  14.419   9.306   5.512  0.2107 -0.4457 -0.1079
 1892POPS   GL222696  14.149   9.413   5.482 -0.2291 -0.1036  0.1249
 1892POPS   C1A22697  14.358   9.450   5.981  0.0893 -0.2505  0.0162
 1892POPS   D2A22698  14.412   9.408   6.475  0.2222  0.2141 -0.1421
 1892POPS   C3A22699  14.575   9.733   6.773  0.1559 -0.0810 -0.1103
 1892POPS   C4A22700  14.621  10.138   6.978  0.1477  0.2824  0.2628
 1892POPS   C1B22701  13.898   9.606   5.849  0.0758  0.1501  0.0423
 1892POPS   C2B22702  13.980   9.720   6.291  0.1173 -0.0089 -0.2640
 1892POPS   C3B22703  13.937  10.142   6.499  0.2432  0.0101  0.1262
 1892POPS   C4B22704  13.966  10.588   6.696  0.0180 -0.1570 -0.2225
 1893POPS   CNO22705   9.410   6.574   9.026  0.1892 -0.2872 -0.1903
 1893POPS   PO422706   9.314   6.777   9.328  0.0566 -0.2091 -0.1542
 1893POPS   GL122707   8.956   6.970   9.432  0.0887 -0.1754  0.0052
 1893POPS   GL222708   8.939   7.240   9.589  0.2414  0.0714  0.0317
 1893POPS   C1A22709   8.572   7.288   9.237  0.0031  0.0723 -0.3176
 1893POPS   D2A22710   8.480   7.629   9.488  0.0102  0.0828 -0.0963
 1893POPS   C3A22711   8.638   8.066   9.387 -0.2521 -0.3902  0.2730
 1893POPS   C4A22712   8.888   8.343   9.520  0.2610 -0.0241  0.0796
 1893POPS   C1B22713   8.641   7.390   9.909  0.0544  0.1505 -0.0739
 1893POPS   C2B22714   8.222   7.537   9.994  0.0902  0.0330 -0.0992
 1893POPS   C3B22715   7.969   7.697  10.308 -0.2248  0.0372  0.0856
 1893POPS   C4B22716   7.817   7.767  10.676  0.2430  0.1087 -0.2051
 1894POPS   CNO22717  10.341   6.600   9.263 -0.2678  0.3400 -0.0192
 1894POPS   PO422718  10.297   6.953   9.206 -0.0673  0.1278  0.0659
 1894POPS   GL122719  10.323   7.298   9.380 -0.1479 -0.0344  0.0922
 1894POPS   GL222720  10.000   7.437   9.394  0.1387 -0.0982 -0.1048
 1894POPS   C1A22721  10.446   7.642   9.723 -0.1960 -0.1417  0.0055
 1894POPS   D2A22722  10.237   7.992   9.996  0.0293  0.0480  0.1078
 1894POPS   C3A22723   9.856   8.244  10.013 -0.2412 -0.1256  0.0892
 1894POPS   C4A22724   9.498   8.493  10.025 -0.0032 -0.2425 -0.0939
 1894POPS   C1B22725   9.715   7.694   9.195  0.2412  0.1613  0.1188
 1894POPS   C2B22726   9.618   8.164   9.343  0.1609  0.0400 -0.2055
 1894POPS   C3B22727   9.616   8.554   9.571  0.1460 -0.0390  0.3948
 1894POPS   C4B22728   9.721   9.008   9.354 -0.0933  0.0796 -0.0207
 1895POPS   CNO22729   4.670   7.159  14.331  0.1342  0.1447 -0.0404
 1895POPS   PO422730   4.773   7.252  13.991 -0.1324 -0.3444  0.0432
 1895POPS   GL122731   5.288   7.279  13.983  0.1107 -0.2126  0.1182
 1895POPS   GL222732   5.368   6.990  14.033 -0.0180 -0.1103  0.2221
 1895POPS   C1A22733   5.766   7.296  14.071 -0.3733  0.2973  0.1662
 1895POPS   D2A22734   6.160   7.240  14.287  0.0515  0.2776 -0.1532
 1895POPS   C3A22735   6.598   7.242  14.169 -0.3250 -0.1687  0.0881
 1895POPS   C4A22736   7.006   6.998  14.072 -0.1509  0.3302 -0.0577
 1895POPS   C1B22737   5.686   6.857  14.320  0.2119 -0.5122 -0.0496
 1895POPS   C2B22738   6.052   6.705  14.544 -0.0932  0.4691 -0.2119
 1895POPS   C3B22739   6.447   6.563  14.649 -0.1349 -0.0094 -0.1385
 1895POPS   C4B22740   6.865   6.433  14.901  0.1278 -0.0251 -0.1149
 1896POPS   CNO22741   2.582   2.090  15.281  0.1857 -0.2888  0.0570
 1896POPS   PO422742   2.937   2.079  15.433  0.1836  0.1196 -0.0521
 1896POPS   GL122743   3.138   1.943  15.651  0.1688 -0.4131  0.0010
 1896POPS   GL222744   3.386   2.142  15.679 -0.2921  0.2951 -0.0599
 1896POPS   C1A22745   3.244   1.918  16.136 -0.1137  0.0776 -0.1958
 1896POPS   D2A22746   3.265   1.891  16.595 -0.0671  0.1482  0.2199
 1896POPS   C3A22747   3.638   1.917  16.845  0.1103 -0.1101  0.0264
 1896POPS   C4A22748   4.078   1.804  16.945  0.2205  0.0460 -0.2595
 1896POPS   C1B22749   3.694   2.194  15.990 -0.1132 -0.1683  0.2418
 1896POPS   C2B22750   3.783   2.160  16.425 -0.1315 -0.0370 -0.0652
 1896POPS   C3B22751   3.974   2.335  16.785  0.1228  0.1961  0.0177
 1896POPS   C4B22752   4.350   2.586  16.890  0.1772  0.0528 -0.2110
 1897POPS   CNO22753  10.804   0.455  12.907  0.2537  0.0678  0.2984
 1897POPS   PO422754  10.606   0.740  13.047 -0.0363 -0.0214  0.1671
 1897POPS   GL122755  10.411   1.132  13.045 -0.1421  0.2502  0.1795
 1897POPS   GL222756  10.363   1.308  12.868 -0.1783  0.3714  0.1940
 1897POPS   C1A22757  10.237   1.423  13.350 -0.3246  0.0136 -0.2959
 1897POPS   D2A22758   9.913   1.526  13.645  0.2870 -0.0079  0.1934
 1897POPS   C3A22759   9.895   1.916  13.835  0.0167 -0.2385 -0.1306
 1897POPS   C4A22760   9.951   2.337  13.954 -0.0635 -0.1797 -0.0580
 1897POPS   C1B22761  10.186   1.667  12.853 -0.1263 -0.0163 -0.1673
 1897POPS   C2B22762  10.374   2.027  12.595  0.0459 -0.1071  0.2942
 1897POPS   C3B22763  10.412   2.522  12.644 -0.2416  0.2045  0.2001
 1897POPS   C4B22764  10.662   2.981  12.648 -0.0678  0.2117 -0.1998
 1898POPS   CNO22765  10.410  13.717  15.779  0.0530 -0.0804  0.0259
 1898POPS   PO422766  10.522  13.839  16.101 -0.3010  0.1143 -0.2439
 1898POPS   GL122767  10.656  14.228  16.310 -0.4084 -0.1896  0.1781
 1898POPS   GL222768  10.373  14.414  16.355 -0.0271  0.1918 -0.2387
 1898POPS   C1A22769  10.672  14.208  16.779  0.0918 -0.2216  0.1657
 1898POPS   D2A22770  10.689  13.856  17.091 -0.1107  0.0425  0.0652
 1898POPS   C3A22771  10.894  13.928  17.436 -0.1983  0.1194 -0.1982
 1898POPS   C4A22772  10.926  13.933  17.893 -0.0928 -0.0008 -0.0759
 1898POPS   C1B22773  10.251  14.673  16.687 -0.0395  0.1076 -0.0450
 1898POPS   C2B22774  10.170  14.749  17.120 -0.3458 -0.1249  0.3069
 1898POPS   C3B22775  10.008  14.859  17.551 -0.1338 -0.0982  0.2200
 1898POPS   C4B22776   9.880  14.615  17.940  0.1082 -0.1775  0.1334
 1899POPS   CNO22777   4.113  14.132  16.495 -0.0057  0.2836 -0.0462
 1899POPS   PO422778   3.994  14.004  16.833 -0.0225 -0.1088 -0.1344
 1899POPS   GL122779   3.949  14.125  17.179  0.3963  0.2683  0.0009
 1899POPS   GL222780   4.074  13.882  17.356 -0.0859 -0.1746  0.1822
 1899POPS   C1A22781   3.752  14.214  17.559  0.1404  0.3008  0.2516
 1899POPS   D2A22782   3.440  14.015  17.835 -0.0191 -0.1780 -0.1055
 1899POPS   C3A22783   3.321  13.828  18.217  0.0425 -0.1075 -0.1857
 1899POPS   C4A22784   3.510  13.522  18.529  0.0410 -0.0541 -0.3078
 1899POPS   C1B22785   4.163  14.052  17.776  0.3537 -0.0381  0.0427
 1899POPS   C2B22786   3.850  14.270  18.073 -0.1690  0.0079 -0.2645
 1899POPS   C3B22787   3.974  14.553  18.442 -0.0129 -0.2295  0.0329
 1899POPS   C4B22788   3.989  14.406  18.857 -0.0092 -0.1461 -0.1315
 1900POPS   CNO22789   5.101  16.558  15.683 -0.2647 -0.6260 -0.1257
 1900POPS   PO422790   5.269  16.528  15.989  0.2574  0.1736  0.2189
 1900POPS   GL122791   5.315  16.655  16.333 -0.2175  0.0367 -0.1825
 1900POPS   GL222792   5.612  16.523  16.399  0.3135 -0.0625 -0.2114
 1900POPS   C1A22793   4.936  16.796  16.606 -0.0749 -0.0196  0.1449
 1900POPS   D2A22794   4.546  16.840  16.859  0.0272 -0.4090 -0.1358
 1900POPS   C3A22795   4.090  16.795  16.950 -0.1241  0.3662  0.0145
 1900POPS   C4A22796   3.687  16.990  17.051  0.2233  0.4332 -0.0282
 1900POPS   C1B22797   5.644  16.900  16.661  0.0582 -0.0365 -0.0558
 1900POPS   C2B22798   5.538  17.089  17.066 -0.0432  0.0843 -0.1024
 1900POPS   C3B22799   5.406  17.446  17.290 -0.2252 -0.0989 -0.2379
 1900POPS   C4B22800   5.048  17.695  17.563  0.1200 -0.1363  0.0125
 1901POPS   CNO22801   6.494   9.670  10.499 -0.1555 -0.0110  0.0916
 1901POPS   PO422802   6.682   9.408  10.676  0.3800  0.1872 -0.0540
 1901POPS   GL122803   6.967   9.056  10.588  0.1584 -0.0454 -0.0152
 1901POPS   GL222804   7.133   9.078  10.367 -0.0055  0.0306 -0.2364
 1901POPS   C1A22805   6.994   8.579  10.696 -0.3144  0.2205 -0.4090
 1901POPS   D2A22806   7.177   8.180  10.646  0.1510  0.2521  0.4882
 1901POPS   C3A22807   7.620   8.192  10.427 -0.0082  0.0384  0.0763
 1901POPS   C4A22808   7.883   8.088   9.999  0.2381 -0.0515  0.1054
 1901POPS   C1B22809   7.411   8.779  10.452 -0.2671  0.3029  0.2845
 1901POPS   C2B22810   7.866   8.642  10.461 -0.2968 -0.1990 -0.1996
 1901POPS   C3B22811   8.160   8.583  10.126 -0.1883  0.0733 -0.0809
 1901POPS   C4B22812   8.593   8.519   9.902  0.0968 -0.0091 -0.0042
 1902POPS   CNO22813  15.817   8.887  10.034 -0.1923 -0.1454  0.1289
 1902POPS   PO422814  15.532   8.718   9.948  0.2223 -0.0712  0.1747
 1902POPS   GL122815  15.222   8.571   9.591 -0.1223  0.0513 -0.0370
 1902POPS   GL222816  15.109   8.316   9.431 -0.1585 -0.1069  0.1631
 1902POPS   C1A22817  15.341   8.671   9.142  0.1913  0.2738  0.1896
 1902POPS   D2A22818  15.364   8.399   8.806 -0.2086  0.3693 -0.1746
 1902POPS   C3A22819  15.030   8.402   8.436 -0.0277 -0.4718  0.3060
 1902POPS   C4A22820  14.778   8.594   8.118  0.1508 -0.1682 -0.0588
 1902POPS   C1B22821  14.824   8.204   9.096 -0.2240  0.1612 -0.1299
 1902POPS   C2B22822  14.585   8.272   8.735  0.2221  0.0145 -0.2748
 1902POPS   C3B22823  14.590   8.159   8.324  0.0733 -0.3573  0.0422
 1902POPS   C4B22824  14.564   8.047   7.869  0.0654  0.1573 -0.2007
 1903POPS   CNO22825  12.169  12.910  16.389  0.1211  0.0708 -0.2175
 1903POPS   PO422826  12.450  12.904  16.617  0.0762 -0.0387  0.2086
 1903POPS   GL122827  12.490  13.214  16.926 -0.0622  0.1240  0.2686
 1903POPS   GL222828  12.813  13.036  16.968  0.0732 -0.1160  0.2910
 1903POPS   C1A22829  12.196  13.392  17.261  0.0703  0.3280 -0.1274
 1903POPS   D2A22830  12.043  13.538  17.666  0.2787 -0.1072 -0.0698
 1903POPS   C3A22831  12.161  13.326  18.069 -0.0399 -0.0335  0.0662
 1903POPS   C4A22832  12.344  13.228  18.470  0.2492  0.0482  0.2450
 1903POPS   C1B22833  12.920  12.881  17.427  0.3853  0.1202  0.1000
 1903POPS   C2B22834  12.800  12.704  17.788  0.0359 -0.3507 -0.2652
 1903POPS   C3B22835  12.733  12.611  18.279  0.1489 -0.2390  0.0730
 1903POPS   C4B22836  12.674  12.717  18.707 -0.0617  0.1181  0.1146
 1904POPS   CNO22837   6.876  10.219  14.923  0.0389  0.0703  0.2114
 1904POPS   PO422838   6.760  10.540  15.068 -0.1131 -0.5416 -0.0202
 1904POPS   GL122839   6.730  10.243  15.379 -0.2559 -0.3848 -0.2059
 1904POPS   GL222840   6.871  10.407  15.508  0.0322  0.3161 -0.1807
 1904POPS   C1A22841   6.757   9.834  15.623 -0.0216  0.0330 -0.0222
 1904POPS   D2A22842   7.053   9.558  15.907 -0.0346  0.0582  0.1208
 1904POPS   C3A22843   7.014   9.282  16.232  0.2181  0.0202 -0.1004
 1904POPS   C4A22844   6.859   8.893  16.413  0.0732  0.1146 -0.0216
 1904POPS   C1B22845   7.057  10.171  15.907 -0.0536  0.1704  0.0636
 1904POPS   C2B22846   7.392  10.219  16.214 -0.1331 -0.0045  0.1464
 1904POPS   C3B22847   7.581  10.325  16.607  0.2491 -0.1328  0.2914
 1904POPS   C4B22848   7.937  10.172  16.819 -0.1249 -0.0325  0.0824
 1905POPS   CNO22849   2.707   0.755  15.862  0.1462 -0.0908 -0.0589
 1905POPS   PO422850   2.323   0.745  15.888  0.1023  0.1651 -0.0617
 1905POPS   GL122851   2.483   0.774  16.313 -0.2442  0.2567 -0.3062
 1905POPS   GL222852   2.676   0.572  16.381  0.1383  0.3196  0.0424
 1905POPS   C1A22853   2.538   1.164  16.604 -0.0696 -0.3252  0.1316
 1905POPS   D2A22854   2.755   1.520  16.816  0.1165  0.2262  0.0919
 1905POPS   C3A22855   2.792   1.525  17.306 -0.0762 -0.2316 -0.0567
 1905POPS   C4A22856   2.674   1.225  17.628  0.1857 -0.2644 -0.0590
 1905POPS   C1B22857   2.584   0.666  16.827 -0.0245  0.0379  0.2731
 1905POPS   C2B22858   2.526   0.725  17.306  0.2425 -0.1742 -0.4029
 1905POPS   C3B22859   2.497   0.737  17.800 -0.0331  0.1560  0.2087
 1905POPS   C4B22860   2.624   0.849  18.221  0.1589 -0.2405 -0.0347
 1906POPS   CNO22861  13.939   9.998  15.812 -0.1186  0.4303  0.1237
 1906POPS   PO422862  14.281   9.956  15.998  0.0151 -0.2793 -0.2558
 1906POPS   GL122863  14.156   9.962  16.413  0.3015  0.0448  0.3213
 1906POPS   GL222864  14.336   9.760  16.564 -0.1112 -0.3232 -0.1173
 1906POPS   C1A22865  13.751   9.868  16.692 -0.0605 -0.2808 -0.1317
 1906POPS   D2A22866  13.437   9.746  17.022 -0.0049  0.1090 -0.2523
 1906POPS   C3A22867  13.472   9.882  17.486 -0.1314 -0.1824  0.1401
 1906POPS   C4A22868  13.752  10.257  17.720 -0.0814  0.0163  0.1439
 1906POPS   C1B22869  14.364   9.798  17.018 -0.1949 -0.1558 -0.0221
 1906POPS   C2B22870  14.597   9.819  17.395  0.1820  0.0283  0.2620
 1906POPS   C3B22871  14.480   9.719  17.852 -0.3602 -0.1204  0.0396
 1906POPS   C4B22872  14.555   9.720  18.294  0.0666  0.0534 -0.0713
 1907POPS   CNO22873   4.426  14.388  16.229  0.4294  0.0251  0.0526
 1907POPS   PO422874   4.568  14.255  16.605  0.0382  0.0498 -0.0764
 1907POPS   GL122875   4.383  14.432  16.915  0.0965  0.2665  0.0746
 1907POPS   GL222876   4.407  14.153  17.103  0.2383  0.0715  0.0523
 1907POPS   C1A22877   4.495  14.777  17.180 -0.1106  0.1495  0.0995
 1907POPS   D2A22878   4.538  14.720  17.577 -0.1106 -0.2738  0.1886
 1907POPS   C3A22879   4.968  14.600  17.603 -0.1905  0.3441 -0.0431
 1907POPS   C4A22880   5.370  14.355  17.726  0.0069 -0.0086 -0.0508
 1907POPS   C1B22881   4.199  14.440  17.386 -0.2462 -0.0394  0.2343
 1907POPS   C2B22882   4.128  14.595  17.761  0.1062 -0.0468  0.3375
 1907POPS   C3B22883   4.087  14.930  18.085  0.1581  0.0728 -0.0353
 1907POPS   C4B22884   4.049  15.400  18.277 -0.1014 -0.1551  0.0433
 1908POPS   CNO22885  15.374   7.126  10.210  0.0806  0.2318  0.0939
 1908POPS   PO422886  15.090   7.149  10.451 -0.1009  0.0051 -0.0435
 1908POPS   GL122887  14.711   7.228  10.228 -0.0854 -0.1528 -0.1262
 1908POPS   GL222888  14.841   7.012  10.006 -0.1802 -0.0551 -0.0411
 1908POPS   C1A22889  14.324   7.112  10.301  0.1377 -0.0814 -0.0296
 1908POPS   D2A22890  13.846   7.056  10.357  0.1098  0.1563 -0.3754
 1908POPS   C3A22891  13.516   6.765  10.191 -0.0333 -0.2836  0.0183
 1908POPS   C4A22892  13.183   6.949   9.831  0.0500  0.0043  0.0934
 1908POPS   C1B22893  14.542   7.300   9.844 -0.1683  0.2075 -0.1194
 1908POPS   C2B22894  14.559   7.656   9.533 -0.1055 -0.0568  0.3111
 1908POPS   C3B22895  14.287   7.888   9.186  0.0911  0.2280 -0.4016
 1908POPS   C4B22896  14.114   8.105   8.891 -0.0416 -0.5032  0.2549
 1909POPS   CNO22897   3.512   6.570  14.920  0.1961  0.1675 -0.2849
 1909POPS   PO422898   3.670   6.316  15.080 -0.1741  0.0047 -0.1785
 1909POPS   GL122899   3.874   6.319  15.414 -0.4483  0.0994  0.1856
 1909POPS   GL222900   4.128   6.107  15.363  0.1418  0.0801 -0.2057
 1909POPS   C1A22901   4.039   6.386  15.829  0.1235  0.0583 -0.1350
 1909POPS   D2A22902   4.015   6.025  16.166  0.1124 -0.1079  0.2190
 1909POPS   C3A22903   4.353   5.762  16.350  0.4205 -0.1492 -0.0577
 1909POPS   C4A22904   4.562   5.370  16.289  0.3462  0.2210  0.1031
 1909POPS   C1B22905   4.583   6.106  15.530 -0.1945  0.1939  0.1014
 1909POPS   C2B22906   4.994   6.154  15.809 -0.0841 -0.1776  0.0902
 1909POPS   C3B22907   5.302   5.890  16.084  0.1174 -0.0283  0.1298
 1909POPS   C4B22908   5.477   5.683  16.434  0.0593 -0.1491  0.0117
 1910POPS   CNO22909  13.591   9.153  11.928  0.1343  0.0448 -0.1237
 1910POPS   PO422910  13.281   9.340  11.816 -0.0078 -0.0995 -0.0150
 1910POPS   GL122911  13.245   8.972  11.646  0.1309  0.0027  0.0523
 1910POPS   GL222912  13.083   9.041  11.442  0.2474 -0.1761 -0.1203
 1910POPS   C1A22913  13.044   8.570  11.809  0.0885 -0.0888 -0.1993
 1910POPS   D2A22914  13.252   8.227  12.090 -0.0041  0.0191  0.2440
 1910POPS   C3A22915  13.163   7.806  12.098 -0.0963  0.0905 -0.0426
 1910POPS   C4A22916  13.240   7.386  12.243 -0.1352 -0.0797 -0.0255
 1910POPS   C1B22917  13.114   9.112  10.954  0.1696  0.2116  0.3641
 1910POPS   C2B22918  12.941   8.825  10.614  0.1450  0.0044  0.1418
 1910POPS   C3B22919  12.773   8.497  10.325 -0.2136  0.0211 -0.2300
 1910POPS   C4B22920  12.747   8.151  10.041  0.0071 -0.1857 -0.2699
 1911POPS   CNO22921   9.474  11.669   9.604 -0.0558  0.1018  0.2352
 1911POPS   PO422922   9.139  11.498   9.674  0.2509 -0.2123 -0.1764
 1911POPS   GL122923   9.174  11.059   9.514 -0.1846  0.0107  0.0889
 1911POPS   GL222924   8.978  10.978   9.656  0.0467  0.2077 -0.3681
 1911POPS   C1A22925   9.413  10.919   9.122  0.0696 -0.0564  0.0843
 1911POPS   D2A22926   9.470  10.571   8.835  0.2365 -0.0893 -0.0113
 1911POPS   C3A22927   9.366  10.520   8.402 -0.1253  0.3622 -0.0813
 1911POPS   C4A22928   9.210  10.267   8.016 -0.0581  0.0083 -0.1871
 1911POPS   C1B22929   9.140  10.600   9.391 -0.1903 -0.1190  0.0842
 1911POPS   C2B22930   9.085  10.273   9.047 -0.1958  0.0785 -0.1599
 1911POPS   C3B22931   8.822  10.226   8.637  0.1360 -0.1811  0.0711
 1911POPS   C4B22932   8.779   9.920   8.246 -0.0672 -0.0707 -0.0474
 1912POPS   CNO22933   6.904   9.811  11.407 -0.0306 -0.2003 -0.2218
 1912POPS   PO422934   6.847   9.656  11.735 -0.1054  0.2096  0.1790
 1912POPS   GL122935   7.182   9.483  11.696  0.2619 -0.0491 -0.0777
 1912POPS   GL222936   7.318   9.574  11.415 -0.2075 -0.2064 -0.2929
 1912POPS   C1A22937   7.326   9.184  12.076 -0.1064  0.2200 -0.0028
 1912POPS   D2A22938   7.517   8.772  12.276  0.2812 -0.1205 -0.1866
 1912POPS   C3A22939   7.807   8.486  12.163  0.0731  0.2546 -0.0859
 1912POPS   C4A22940   8.138   8.221  11.872 -0.1661 -0.0651  0.0179
 1912POPS   C1B22941   7.353   9.125  11.410 -0.3465 -0.1766 -0.0283
 1912POPS   C2B22942   7.561   8.694  11.316 -0.0541 -0.2385 -0.2138
 1912POPS   C3B22943   7.743   8.266  11.305 -0.1068 -0.1672  0.0470
 1912POPS   C4B22944   7.631   7.860  11.126 -0.1279 -0.0364 -0.1810
 1913POPS   CNO22945  11.959   1.071  13.001  0.0885 -0.3018 -0.0416
 1913POPS   PO422946  11.797   1.282  13.284  0.2371  0.1387 -0.2217
 1913POPS   GL122947  11.750   1.428  13.560 -0.1180  0.0110  0.4075
 1913POPS   GL222948  12.020   1.632  13.575  0.0720 -0.0761  0.0411
 1913POPS   C1A22949  11.514   1.398  13.929 -0.0761  0.0290  0.2286
 1913POPS   D2A22950  11.411   1.762  14.257 -0.2032 -0.0165 -0.2696
 1913POPS   C3A22951  11.481   2.242  14.239  0.3132  0.1774  0.0880
 1913POPS   C4A22952  11.641   2.599  14.475  0.0320 -0.0734 -0.1441
 1913POPS   C1B22953  11.931   1.744  13.990  0.0432  0.1663 -0.3192
 1913POPS   C2B22954  11.872   1.974  14.437 -0.2238 -0.0744 -0.0918
 1913POPS   C3B22955  11.879   2.268  14.814 -0.3031 -0.3247 -0.1418
 1913POPS   C4B22956  11.836   2.352  15.258 -0.0488  0.2977  0.1138
 1914POPS   CNO22957   3.029  14.402  16.819 -0.0115 -0.1395  0.2747
 1914POPS   PO422958   2.880  14.089  16.772 -0.0920  0.2089  0.1580
 1914POPS   GL122959   2.802  14.040  17.092 -0.0718 -0.0930  0.0913
 1914POPS   GL222960   3.063  14.129  17.228  0.3111 -0.1214 -0.0952
 1914POPS   C1A22961   2.758  13.818  17.543  0.2338  0.0872  0.0158
 1914POPS   D2A22962   2.783  13.641  18.021  0.1271 -0.1265 -0.0665
 1914POPS   C3A22963   2.858  13.819  18.452 -0.0407 -0.0062 -0.1277
 1914POPS   C4A22964   2.810  13.864  18.907 -0.0846 -0.2301 -0.0265
 1914POPS   C1B22965   3.190  14.439  17.533 -0.0409 -0.2587  0.0276
 1914POPS   C2B22966   3.203  14.500  17.963 -0.1897  0.1229 -0.2241
 1914POPS   C3B22967   3.385  14.345  18.347  0.0462  0.4435 -0.0476
 1914POPS   C4B22968   3.486  14.503  18.785 -0.0355 -0.2082 -0.1033
 1915POPS   CNO22969   4.469  14.924  16.109  0.3165 -0.1498 -0.0469
 1915POPS   PO422970   4.829  15.022  16.169 -0.0555 -0.1076  0.0492
 1915POPS   GL122971   4.873  15.225  16.633 -0.2666  0.4227  0.0787
 1915POPS   GL222972   5.073  15.405  16.650 -0.1110  0.4548  0.3548
 1915POPS   C1A22973   4.702  15.354  17.067  0.0130 -0.1416  0.2047
 1915POPS   D2A22974   4.919  15.580  17.453 -0.2199 -0.2920  0.0230
 1915POPS   C3A22975   4.659  15.824  17.756  0.0016 -0.2909  0.3356
 1915POPS   C4A22976   4.310  15.786  18.052 -0.0173  0.0501 -0.2054
 1915POPS   C1B22977   5.205  15.351  17.084  0.1190  0.1777  0.1919
 1915POPS   C2B22978   5.408  15.364  17.512  0.1283  0.2013 -0.3969
 1915POPS   C3B22979   5.487  15.253  17.994 -0.2059  0.1518  0.1573
 1915POPS   C4B22980   5.284  15.201  18.387 -0.1829  0.1587 -0.1551
 1916POPS   CNO22981   0.566   4.082  15.414  0.2957 -0.3255 -0.0155
 1916POPS   PO422982   0.215   3.975  15.526 -0.2917 -0.2510  0.2007
 1916POPS   GL122983  -0.160   3.938  15.639 -0.0100  0.1437  0.0741
 1916POPS   GL222984  -0.182   3.688  15.691 -0.2051  0.3761 -0.1721
 1916POPS   C1A22985  -0.387   4.213  15.935 -0.1586 -0.2068  0.3254
 1916POPS   D2A22986  -0.515   4.176  16.370 -0.1336  0.0781  0.0474
 1916POPS   C3A22987  -0.555   4.449  16.688 -0.5598  0.0477  0.1955
 1916POPS   C4A22988  -0.300   4.567  17.057  0.1156 -0.1667 -0.2016
 1916POPS   C1B22989  -0.370   3.625  16.112 -0.1686  0.0230 -0.1264
 1916POPS   C2B22990  -0.495   3.595  16.533 -0.1478 -0.0873 -0.1777
 1916POPS   C3B22991  -0.587   3.510  16.927 -0.1018  0.1256 -0.0453
 1916POPS   C4B22992  -0.678   3.652  17.355  0.3000 -0.0681 -0.2803
 1917POPS   CNO22993  16.257  11.327  16.171 -0.3778 -0.1098 -0.1719
 1917POPS   PO422994  16.607  11.296  16.350 -0.0726  0.1337 -0.1338
 1917POPS   GL122995  16.715  11.241  16.768  0.0291  0.1411 -0.0636
 1917POPS   GL222996  16.494  10.999  16.891 -0.4583 -0.0016  0.0300
 1917POPS   C1A22997  16.856  11.520  17.098  0.0640 -0.0498 -0.0589
 1917POPS   D2A22998  17.170  11.848  17.131  0.0914 -0.3092  0.0095
 1917POPS   C3A22999  17.144  11.825  17.617 -0.2216 -0.1563  0.0572
 1917POPS   C4A23000  16.918  11.892  18.039  0.0855  0.0181  0.1751
 1917POPS   C1B23001  16.410  11.030  17.325  0.0822 -0.1833  0.2818
 1917POPS   C2B23002  16.095  10.817  17.582  0.1765  0.1591 -0.1960
 1917POPS   C3B23003  16.101  10.668  18.013  0.1195  0.1398 -0.4169
 1917POPS   C4B23004  16.212  10.834  18.406 -0.1501 -0.1811  0.0351
 1918POPS   CNO23005   5.198   8.262  14.140 -0.1776 -0.0491  0.0307
 1918POPS   PO423006   5.298   8.033  13.858  0.2120 -0.1355  0.4173
 1918POPS   GL123007   5.672   7.987  13.610 -0.0295 -0.2929  0.1254
 1918POPS   GL223008   5.773   8.158  13.444 -0.1834 -0.1588 -0.2924
 1918POPS   C1A23009   6.063   7.683  13.603 -0.0890  0.0309 -0.2081
 1918POPS   D2A23010   6.228   7.297  13.775 -0.0251  0.2220 -0.0091
 1918POPS   C3A23011   6.655   7.070  13.723  0.0904  0.0501 -0.1216
 1918POPS   C4A23012   7.027   6.854  13.590 -0.2147 -0.0911 -0.0930
 1918POPS   C1B23013   6.236   8.112  13.553 -0.0095  0.0351  0.1324
 1918POPS   C2B23014   6.471   7.874  13.877  0.0995 -0.2106 -0.2627
 1918POPS   C3B23015   6.863   7.709  14.109 -0.0421  0.2745  0.0507
 1918POPS   C4B23016   7.239   7.424  14.198  0.0661  0.1904 -0.6574
 1919POPS   CNO23017   3.684   4.974  14.158  0.2556 -0.0024 -0.0600
 1919POPS   PO423018   3.924   4.837  14.400  0.1128 -0.1451 -0.0975
 1919POPS   GL123019   4.247   4.788  14.649  0.4475 -0.0346  0.2118
 1919POPS   GL223020   4.217   5.005  14.755 -0.0221  0.0065 -0.0866
 1919POPS   C1A23021   4.699   4.780  14.819  0.0127 -0.1556  0.3801
 1919POPS   D2A23022   5.072   4.536  14.931  0.2574 -0.0241  0.0470
 1919POPS   C3A23023   5.215   4.658  15.366 -0.1359  0.0694  0.0432
 1919POPS   C4A23024   5.214   4.898  15.685  0.4647  0.1018  0.1014
 1919POPS   C1B23025   4.454   5.090  15.125  0.0098  0.1406 -0.1493
 1919POPS   C2B23026   4.779   5.119  15.466  0.3185  0.0493  0.1359
 1919POPS   C3B23027   4.797   5.059  15.902 -0.0364  0.4243 -0.0657
 1919POPS   C4B23028   4.570   4.873  16.297  0.3742 -0.0364 -0.0573
 1920POPS   CNO23029  10.416  12.531   9.550 -0.2271 -0.0534 -0.1340
 1920POPS   PO423030  10.448  12.195   9.684  0.2876  0.3515 -0.1770
 1920POPS   GL123031  10.463  11.871   9.364 -0.0938  0.0333 -0.3472
 1920POPS   GL223032  10.651  12.041   9.142  0.0741  0.0003  0.2900
 1920POPS   C1A23033  10.232  11.546   9.088 -0.2607 -0.3516 -0.3167
 1920POPS   D2A23034  10.352  11.232   8.767 -0.0921 -0.0111  0.1318
 1920POPS   C3A23035  10.484  11.172   8.307 -0.2105 -0.1756 -0.3488
 1920POPS   C4A23036  10.545  10.952   7.886  0.1972  0.2324 -0.1170
 1920POPS   C1B23037  10.338  11.908   8.776 -0.0960 -0.3693 -0.0771
 1920POPS   C2B23038  10.194  11.905   8.337  0.1650 -0.1174 -0.3284
 1920POPS   C3B23039  10.312  12.041   7.942 -0.2769 -0.1637  0.2231
 1920POPS   C4B23040  10.153  12.128   7.592 -0.0611  0.2654  0.1117
 1921POPS   CNO23041   3.998  12.676  16.249  0.2415  0.1158  0.0774
 1921POPS   PO423042   3.917  12.753  16.603  0.1163 -0.1079  0.1741
 1921POPS   GL123043   4.054  12.653  17.016  0.0604 -0.0648 -0.3111
 1921POPS   GL223044   4.272  12.779  17.044  0.0361  0.0245  0.4372
 1921POPS   C1A23045   4.003  12.728  17.499 -0.1364 -0.0199 -0.3779
 1921POPS   D2A23046   3.934  12.684  18.014  0.1691  0.1541 -0.0128
 1921POPS   C3A23047   4.232  12.688  18.392 -0.1265  0.2264  0.1132
 1921POPS   C4A23048   4.690  12.571  18.385  0.1698 -0.2038 -0.0599
 1921POPS   C1B23049   4.132  13.166  17.191  0.2035 -0.0103  0.1506
 1921POPS   C2B23050   4.013  13.385  17.571 -0.3777 -0.1319  0.0691
 1921POPS   C3B23051   4.245  13.577  17.902  0.0478 -0.7202  0.0744
 1921POPS   C4B23052   4.597  13.794  17.940 -0.0805  0.1896 -0.0798
 1922POPS   CNO23053   0.142   0.546  15.852  0.0563 -0.1184  0.0664
 1922POPS   PO423054   0.346   0.840  15.745 -0.0280 -0.3314  0.0145
 1922POPS   GL123055   0.307   0.862  16.158 -0.1114 -0.2987 -0.1031
 1922POPS   GL223056   0.263   1.132  16.271  0.2423  0.1561  0.0062
 1922POPS   C1A23057   0.577   0.833  16.550  0.1503 -0.0013  0.1413
 1922POPS   D2A23058   0.629   0.963  17.000  0.0047  0.1702 -0.0050
 1922POPS   C3A23059   0.549   0.849  17.422 -0.2736 -0.2275  0.2337
 1922POPS   C4A23060   0.610   0.896  17.870 -0.0126 -0.0453 -0.0334
 1922POPS   C1B23061   0.424   1.275  16.662 -0.2088  0.2707 -0.1371
 1922POPS   C2B23062   0.367   1.476  17.083  0.1032 -0.1727 -0.2491
 1922POPS   C3B23063   0.234   1.729  17.480  0.2981 -0.0818 -0.0159
 1922POPS   C4B23064   0.082   1.813  17.911  0.1366  0.0866  0.0971
 1923POPS   CNO23065   3.138  15.663  16.222  0.0943 -0.2088  0.3506
 1923POPS   PO423066   2.740  15.732  16.158 -0.0233 -0.0093 -0.0691
 1923POPS   GL123067   2.723  15.746  16.651 -0.0176  0.0704 -0.0680
 1923POPS   GL223068   2.509  15.543  16.762  0.1679 -0.0760  0.1764
 1923POPS   C1A23069   2.705  15.760  17.135  0.0151 -0.2624 -0.1420
 1923POPS   D2A23070   2.503  15.770  17.551  0.0740  0.3530  0.0092
 1923POPS   C3A23071   2.737  15.718  17.988  0.0007  0.2106  0.2785
 1923POPS   C4A23072   2.752  15.355  18.267  0.0531 -0.2379  0.0297
 1923POPS   C1B23073   2.324  15.480  17.215  0.3944  0.1394  0.1407
 1923POPS   C2B23074   2.072  15.423  17.638 -0.0358 -0.1371 -0.0218
 1923POPS   C3B23075   1.816  15.343  18.018  0.2361  0.3497 -0.2466
 1923POPS   C4B23076   1.818  15.257  18.456  0.0919  0.0226  0.1397
 1924POPS   CNO23077   8.132  10.920  15.184 -0.1824  0.1791  0.0639
 1924POPS   PO423078   7.935  11.032  15.462 -0.2850  0.1335  0.1762
 1924POPS   GL123079   8.045  10.715  15.711 -0.2242 -0.1159 -0.3414
 1924POPS   GL223080   8.266  10.626  15.723  0.1056 -0.2828  0.1339
 1924POPS   C1A23081   7.812  10.391  15.764  0.0760  0.0982  0.0838
 1924POPS   D2A23082   7.899  10.019  15.499 -0.0655 -0.1669  0.1298
 1924POPS   C3A23083   8.123   9.678  15.667  0.3270  0.4156 -0.1286
 1924POPS   C4A23084   7.952   9.426  16.081 -0.0115  0.1029  0.1121
 1924POPS   C1B23085   8.395  10.607  16.134  0.1836  0.1906  0.1097
 1924POPS   C2B23086   8.649  10.562  16.548 -0.1873  0.1648  0.2687
 1924POPS   C3B23087   8.821  10.428  16.995 -0.0692  0.0747  0.5183
 1924POPS   C4B23088   8.754  10.585  17.424  0.1754 -0.0908 -0.0239
 1925POPS   CNO23089   8.760  12.931  16.146  0.0855 -0.2908  0.1422
 1925POPS   PO423090   8.450  12.934  16.332 -0.0003  0.1273  0.0032
 1925POPS   GL123091   8.248  13.247  16.579 -0.2812  0.2451 -0.0967
 1925POPS   GL223092   7.967  13.184  16.644  0.0649 -0.0190  0.1003
 1925POPS   C1A23093   8.422  13.313  17.031  0.0085  0.1339 -0.1525
 1925POPS   D2A23094   8.417  13.219  17.431  0.2144  0.2149 -0.2840
 1925POPS   C3A23095   8.445  13.637  17.717 -0.0283 -0.0457  0.0054
 1925POPS   C4A23096   8.723  13.995  17.739 -0.0906  0.0755 -0.2555
 1925POPS   C1B23097   7.955  13.435  17.045  0.1461  0.0524  0.0948
 1925POPS   C2B23098   8.014  13.511  17.467  0.3647 -0.0337 -0.1402
 1925POPS   C3B23099   8.058  13.344  17.883  0.1992  0.0055  0.2162
 1925POPS   C4B23100   8.244  13.609  18.174  0.0833  0.1751 -0.2099
 1926POPS   CNO23101  12.619   1.572  12.401  0.0279 -0.1623 -0.0809
 1926POPS   PO423102  12.649   1.846  12.163  0.0878  0.0615  0.3775
 1926POPS   GL123103  12.353   2.225  12.208  0.0769 -0.1924 -0.0374
 1926POPS   GL223104  12.084   2.078  12.058  0.0058 -0.0458  0.0495
 1926POPS   C1A23105  11.954   2.333  12.470  0.1406  0.2511 -0.0712
 1926POPS   D2A23106  11.634   2.584  12.727 -0.2092 -0.2761 -0.3569
 1926POPS   C3A23107  11.504   2.926  12.986  0.1324 -0.1115 -0.1347
 1926POPS   C4A23108  11.147   3.263  12.999  0.3615 -0.1320 -0.1693
 1926POPS   C1B23109  11.833   2.440  11.965 -0.1289 -0.0801  0.2053
 1926POPS   C2B23110  11.631   2.853  11.871  0.2062 -0.2606  0.1464
 1926POPS   C3B23111  11.246   3.103  11.688  0.2802  0.1283  0.0658
 1926POPS   C4B23112  10.826   3.347  11.737 -0.2092 -0.0967  0.0603
 1927POPS   CNO23113   0.834   7.113  15.792  0.0058 -0.5075  0.1613
 1927POPS   PO423114   0.789   6.954  16.093 -0.2168  0.2249  0.1442
 1927POPS   GL123115   0.612   7.211  16.294  0.1123  0.1288 -0.3303
 1927POPS   GL223116   0.323   7.076  16.261 -0.0886 -0.1381 -0.0395
 1927POPS   C1A23117   0.620   7.582  16.525  0.1733  0.1825 -0.0622
 1927POPS   D2A23118   0.958   7.911  16.649 -0.0337  0.4024  0.2534
 1927POPS   C3A23119   1.087   8.060  17.053 -0.0946  0.1366  0.2331
 1927POPS   C4A23120   1.219   8.224  17.476  0.0656 -0.0429 -0.0332
 1927POPS   C1B23121   0.195   7.086  16.657  0.1137 -0.1103 -0.0060
 1927POPS   C2B23122   0.126   6.821  17.013 -0.1492 -0.0507 -0.1440
 1927POPS   C3B23123  -0.193   6.675  17.283 -0.1074 -0.0768  0.1483
 1927POPS   C4B23124  -0.359   6.594  17.732  0.0078  0.0292 -0.0334
 1928POPS   CNO23125  14.558  11.673  16.299 -0.0538  0.2187  0.0601
 1928POPS   PO423126  14.591  11.638  16.671  0.1425 -0.3243 -0.1445
 1928POPS   GL123127  14.617  11.738  17.030 -0.0852 -0.0436  0.0049
 1928POPS   GL223128  14.489  11.559  17.192 -0.1287  0.0202  0.0697
 1928POPS   C1A23129  14.749  11.943  17.429  0.1883 -0.1810  0.0415
 1928POPS   D2A23130  14.951  11.898  17.804  0.0098  0.1103 -0.3075
 1928POPS   C3A23131  15.259  11.985  18.163 -0.1617 -0.1898  0.2254
 1928POPS   C4A23132  15.493  12.056  18.511  0.0025  0.0436  0.0553
 1928POPS   C1B23133  14.494  11.560  17.651  0.0998 -0.0165 -0.2716
 1928POPS   C2B23134  14.303  11.514  18.042  0.3540  0.1783 -0.2058
 1928POPS   C3B23135  14.474  11.329  18.443 -0.2600  0.1466 -0.1401
 1928POPS   C4B23136  14.465  10.858  18.549  0.0542  0.0748  0.1999
 1929POPS   CNO23137  14.997   8.222  10.485  0.3266 -0.1817 -0.1247
 1929POPS   PO423138  14.981   7.932  10.256  0.1459 -0.1453  0.2081
 1929POPS   GL123139  14.664   7.903  10.041 -0.1745  0.2611 -0.4866
 1929POPS   GL223140  14.512   7.709  10.123  0.0955  0.1294  0.1615
 1929POPS   C1A23141  14.582   8.158   9.695  0.1966 -0.0764 -0.0016
 1929POPS   D2A23142  14.448   8.396   9.328 -0.0969  0.2185 -0.1821
 1929POPS   C3A23143  14.262   8.596   8.959  0.0505  0.1224 -0.0934
 1929POPS   C4A23144  14.154   8.471   8.530 -0.0755 -0.0234  0.0596
 1929POPS   C1B23145  14.108   7.475   9.988 -0.0347  0.4390 -0.0120
 1929POPS   C2B23146  13.674   7.340   9.927 -0.1217  0.0378  0.3575
 1929POPS   C3B23147  13.206   7.428   9.892 -0.2630 -0.0147  0.3969
 1929POPS   C4B23148  12.782   7.267   9.726 -0.1174 -0.0931  0.2193
 1930POPS   CNO23149  12.495  13.355  16.486 -0.1324 -0.0758 -0.0593
 1930POPS   PO423150  12.699  13.647  16.360 -0.1687 -0.2916 -0.1659
 1930POPS   GL123151  12.861  13.731  16.742 -0.1905 -0.1031 -0.0119
 1930POPS   GL223152  12.644  13.636  16.873 -0.0383 -0.2370 -0.0374
 1930POPS   C1A23153  12.690  14.087  17.071 -0.1239 -0.0753 -0.0042
 1930POPS   D2A23154  12.425  14.322  17.290  0.1068 -0.1788 -0.1592
 1930POPS   C3A23155  12.195  14.370  17.691 -0.0314  0.0755  0.0848
 1930POPS   C4A23156  12.142  14.456  18.191 -0.1189  0.3300 -0.0153
 1930POPS   C1B23157  12.843  13.555  17.306  0.1747  0.0906 -0.0581
 1930POPS   C2B23158  12.995  13.871  17.675  0.3259 -0.0365  0.1020
 1930POPS   C3B23159  12.961  14.123  17.998 -0.4271 -0.0755 -0.1010
 1930POPS   C4B23160  12.997  14.291  18.426  0.1248  0.2136  0.1141
 1931POPS   CNO23161   1.004   6.312  15.698  0.0901  0.1016 -0.1354
 1931POPS   PO423162   1.054   5.929  15.591  0.2011 -0.1643 -0.0623
 1931POPS   GL123163   0.977   6.016  16.016  0.4395  0.0271 -0.1065
 1931POPS   GL223164   0.796   6.300  16.179 -0.1158  0.0911  0.1673
 1931POPS   C1A23165   0.704   5.814  16.375 -0.1737  0.0971 -0.0831
 1931POPS   D2A23166   0.505   5.919  16.756 -0.0886  0.1177  0.0602
 1931POPS   C3A23167   0.812   6.047  17.018  0.0441  0.2815 -0.0440
 1931POPS   C4A23168   1.032   6.246  17.365  0.5364  0.2643  0.0336
 1931POPS   C1B23169   0.796   6.326  16.583 -0.3200  0.0109  0.1469
 1931POPS   C2B23170   0.698   6.550  16.994  0.0306 -0.0395 -0.1803
 1931POPS   C3B23171   0.568   6.799  17.343 -0.0050  0.1173 -0.0918
 1931POPS   C4B23172   0.438   6.814  17.791 -0.5948 -0.2412  0.0175
 1932POPS   CNO23173   7.365  11.725  15.585  0.0152  0.1868  0.2353
 1932POPS   PO423174   7.144  11.472  15.748  0.0238 -0.1633 -0.0572
 1932POPS   GL123175   7.298  11.227  15.999  0.0252 -0.1916 -0.0070
 1932POPS   GL223176   7.608  11.174  16.141 -0.0158  0.0992  0.1065
 1932POPS   C1A23177   7.187  11.156  16.445 -0.1657 -0.1903  0.1297
 1932POPS   D2A23178   7.136  10.741  16.694 -0.2096  0.0501  0.3825
 1932POPS   C3A23179   7.147  10.665  17.179 -0.2678  0.0553  0.2607
 1932POPS   C4A23180   7.442  10.430  17.456  0.2829 -0.0197  0.2097
 1932POPS   C1B23181   7.903  10.783  16.118  0.0378 -0.1130 -0.2704
 1932POPS   C2B23182   7.952  10.373  16.295 -0.0412  0.1834 -0.2662
 1932POPS   C3B23183   8.314  10.104  16.463  0.0068  0.0485  0.2520
 1932POPS   C4B23184   8.505   9.998  16.861  0.3428 -0.2955  0.1089
 1933POPS   CNO23185  12.502  10.819  15.791  0.4911  0.0226  0.1967
 1933POPS   PO423186  12.584  10.797  16.151  0.0918  0.0973 -0.3304
 1933POPS   GL123187  12.458  10.486  16.482 -0.1050  0.1387  0.4899
 1933POPS   GL223188  12.669  10.285  16.558  0.0727 -0.0257  0.2067
 1933POPS   C1A23189  12.154  10.210  16.573 -0.0530  0.0432 -0.0522
 1933POPS   D2A23190  11.856   9.930  16.805  0.0073 -0.5120  0.0500
 1933POPS   C3A23191  11.843   9.443  17.013  0.0246  0.3872  0.2605
 1933POPS   C4A23192  11.632   9.253  17.406 -0.0945  0.1072  0.3074
 1933POPS   C1B23193  12.523  10.055  16.908  0.2889  0.1451  0.1886
 1933POPS   C2B23194  12.238   9.741  17.106  0.1147  0.0786  0.0807
 1933POPS   C3B23195  12.115   9.464  17.459 -0.0438 -0.1623  0.3114
 1933POPS   C4B23196  12.276   9.159  17.754 -0.2626  0.0315 -0.2536
 1934POPS   CNO23197  14.665  14.418  15.798  0.0938 -0.1728  0.4230
 1934POPS   PO423198  14.751  14.779  15.685  0.1665  0.1091 -0.1487
 1934POPS   GL123199  14.794  14.799  16.098 -0.0297 -0.0608 -0.2729
 1934POPS   GL223200  14.663  14.940  16.301 -0.1711  0.1808 -0.1824
 1934POPS   C1A23201  14.987  14.658  16.512  0.0471 -0.1456 -0.1512
 1934POPS   D2A23202  14.860  14.854  16.959 -0.2617 -0.1083  0.1172
 1934POPS   C3A23203  15.231  14.943  17.260 -0.0934  0.3111  0.2229
 1934POPS   C4A23204  15.594  14.885  17.569  0.0560  0.0642 -0.1482
 1934POPS   C1B23205  14.536  15.116  16.696  0.3764  0.1623  0.1421
 1934POPS   C2B23206  14.436  15.158  17.132 -0.1779 -0.2770 -0.0233
 1934POPS   C3B23207  14.228  14.938  17.480  0.0759  0.1465  0.1334
 1934POPS   C4B23208  13.814  14.887  17.431  0.1092 -0.0460  0.2379
 1935POPS   CNO23209   3.297  14.766  16.623 -0.0221 -0.0174  0.0447
 1935POPS   PO423210   3.289  14.952  16.966 -0.2832  0.0721  0.0886
 1935POPS   GL123211   2.969  14.934  17.169  0.3243  0.1803  0.0357
 1935POPS   GL223212   2.815  15.267  17.131 -0.2212  0.1268 -0.0559
 1935POPS   C1A23213   2.934  14.861  17.660 -0.0560  0.0769 -0.1908
 1935POPS   D2A23214   2.707  14.683  18.031 -0.1282  0.2986  0.2818
 1935POPS   C3A23215   2.691  14.815  18.438 -0.4972 -0.2017  0.1321
 1935POPS   C4A23216   2.522  14.805  18.884  0.2294 -0.0162  0.0967
 1935POPS   C1B23217   2.847  15.325  17.562  0.0782 -0.0912 -0.0075
 1935POPS   C2B23218   3.133  15.413  17.813 -0.2302 -0.1644 -0.0116
 1935POPS   C3B23219   3.288  15.684  18.197  0.0208  0.3206  0.1797
 1935POPS   C4B23220   3.019  15.677  18.550 -0.1565  0.1884 -0.0141
 1936POPS   CNO23221   9.774  10.997  14.780  0.0355  0.1276  0.1389
 1936POPS   PO423222   9.562  11.261  14.982 -0.1907  0.0177 -0.1749
 1936POPS   GL123223   9.301  10.975  15.145  0.1975 -0.2386  0.0248
 1936POPS   GL223224   8.996  10.954  15.227 -0.1568  0.0683  0.1391
 1936POPS   C1A23225   9.497  10.604  15.293  0.2322 -0.2847 -0.0884
 1936POPS   D2A23226   9.375  10.192  15.457  0.1119 -0.0217  0.0314
 1936POPS   C3A23227   9.190  10.008  15.838 -0.0509 -0.1539 -0.1784
 1936POPS   C4A23228   8.949   9.715  16.119  0.2145 -0.0455  0.0411
 1936POPS   C1B23229   9.039  10.590  15.504  0.0736 -0.0728 -0.0659
 1936POPS   C2B23230   8.726  10.254  15.648  0.1093  0.2558 -0.0281
 1936POPS   C3B23231   8.304  10.184  15.885  0.2633 -0.0031  0.0557
 1936POPS   C4B23232   7.925   9.954  16.037 -0.1541  0.0755 -0.1428
 1937POPS   CNO23233   1.315   7.563  15.990 -0.0706 -0.3331 -0.2339
 1937POPS   PO423234   1.302   7.244  15.843 -0.0891  0.0654  0.1750
 1937POPS   GL123235   1.138   7.173  16.280 -0.3540 -0.1994 -0.1008
 1937POPS   GL223236   1.109   7.406  16.416  0.5061  0.1969 -0.0552
 1937POPS   C1A23237   1.360   7.091  16.665 -0.2762 -0.0814 -0.0053
 1937POPS   D2A23238   1.476   7.188  17.086  0.3197  0.0425 -0.0769
 1937POPS   C3A23239   1.652   7.016  17.491  0.0404 -0.4563 -0.1341
 1937POPS   C4A23240   1.388   6.897  17.796 -0.0610 -0.1736 -0.2149
 1937POPS   C1B23241   1.259   7.557  16.830 -0.2571  0.1304  0.1206
 1937POPS   C2B23242   1.304   7.657  17.329  0.2645  0.1521 -0.1467
 1937POPS   C3B23243   1.277   7.339  17.679 -0.0414 -0.1676  0.0185
 1937POPS   C4B23244   1.196   7.398  18.111 -0.0703  0.1208  0.3535
 1938POPS   CNO23245  10.847   0.136  13.560 -0.3530  0.0149 -0.0539
 1938POPS   PO423246  10.810   0.403  13.821  0.3646  0.1685 -0.0733
 1938POPS   GL123247  10.846   0.833  13.824 -0.0008  0.1208 -0.0335
 1938POPS   GL223248  11.065   0.993  13.968 -0.1506  0.0998  0.2512
 1938POPS   C1A23249  10.628   1.220  13.956  0.0899  0.1828 -0.0900
 1938POPS   D2A23250  10.518   1.594  13.724  0.1190 -0.0838 -0.2831
 1938POPS   C3A23251  10.610   2.032  13.802 -0.0538 -0.1156 -0.0008
 1938POPS   C4A23252  10.623   2.452  14.055 -0.0339  0.0160 -0.0216
 1938POPS   C1B23253  11.017   1.317  14.327  0.0310  0.1148 -0.1208
 1938POPS   C2B23254  11.079   1.676  14.604 -0.1707 -0.1619 -0.1274
 1938POPS   C3B23255  11.154   2.098  14.611 -0.1011 -0.0566  0.0527
 1938POPS   C4B23256  11.183   2.543  14.712  0.1238 -0.2079  0.0240
 1939POPS   CNO23257  13.708   9.023  15.567  0.3861 -0.1029  0.2547
 1939POPS   PO423258  13.525   9.052  15.238 -0.1739  0.0953 -0.0780
 1939POPS   GL123259  13.259   9.092  15.472  0.1892  0.0680 -0.1700
 1939POPS   GL223260  13.075   8.875  15.430  0.1522 -0.2569  0.0718
 1939POPS   C1A23261  13.284   8.931  15.899  0.0003  0.0739 -0.1398
 1939POPS   D2A23262  13.111   8.736  16.316  0.2407 -0.1995  0.0101
 1939POPS   C3A23263  12.865   8.485  16.598 -0.1727 -0.4651 -0.1462
 1939POPS   C4A23264  12.632   8.159  16.771 -0.0650 -0.1518 -0.0363
 1939POPS   C1B23265  12.986   8.529  15.772  0.1143 -0.0170 -0.0984
 1939POPS   C2B23266  12.927   8.273  16.122  0.0629  0.1327 -0.0106
 1939POPS   C3B23267  12.614   7.976  16.329  0.0637 -0.0348  0.0674
 1939POPS   C4B23268  12.203   7.961  16.403 -0.1844 -0.1019  0.1013
 1940POPS   CNO23269  15.863   0.678  15.633 -0.0391  0.2531 -0.3292
 1940POPS   PO423270  15.731   1.028  15.725  0.1550 -0.0620 -0.1778
 1940POPS   GL123271  15.733   1.253  16.008  0.1085  0.1554  0.1662
 1940POPS   GL223272  16.043   1.289  16.056  0.0677  0.4291  0.2997
 1940POPS   C1A23273  15.586   1.127  16.423  0.2508 -0.1656  0.0574
 1940POPS   D2A23274  15.571   1.137  16.869 -0.2036 -0.0918  0.3086
 1940POPS   C3A23275  15.587   0.926  17.269 -0.1959  0.1098  0.1197
 1940POPS   C4A23276  15.426   0.599  17.619 -0.1389  0.2495  0.1082
 1940POPS   C1B23277  15.973   1.445  16.484 -0.0654 -0.0130  0.1433
 1940POPS   C2B23278  15.841   1.556  16.902  0.0899  0.0007 -0.0217
 1940POPS   C3B23279  15.771   1.823  17.286 -0.1207 -0.0820  0.1176
 1940POPS   C4B23280  15.748   2.103  17.658 -0.0191  0.0321  0.1880
 1941POPS   CNO23281   0.482  15.684  15.907  0.0260 -0.1401  0.1474
 1941POPS   PO423282   0.635  15.500  16.194  0.1710 -0.2413  0.3270
 1941POPS   GL123283   0.564  15.673  16.558  0.1566 -0.0437 -0.4963
 1941POPS   GL223284   0.287  15.477  16.596 -0.2641  0.0030  0.1104
 1941POPS   C1A23285   0.723  15.568  16.974 -0.0809 -0.1439 -0.2743
 1941POPS   D2A23286   0.591  15.759  17.353  0.2626 -0.0549 -0.1121
 1941POPS   C3A23287   0.893  15.929  17.708 -0.0015  0.1869  0.0408
 1941POPS   C4A23288   0.776  16.149  18.072  0.2670 -0.0944  0.0603
 1941POPS   C1B23289   0.204  15.453  17.039  0.0570  0.0052  0.2237
 1941POPS   C2B23290   0.173  15.503  17.464 -0.1214  0.0713  0.0587
 1941POPS   C3B23291  -0.014  15.492  17.875  0.4201 -0.0946  0.0578
 1941POPS   C4B23292  -0.321  15.559  18.245 -0.1794 -0.1970  0.3935
 1942POPS   CNO23293   5.412  10.270  15.533 -0.0252  0.0734 -0.3457
 1942POPS   PO423294   5.297  10.273  15.881 -0.2114  0.2332  0.1593
 1942POPS   GL123295   5.384  10.244  16.195  0.1270  0.1623 -0.1118
 1942POPS   GL223296   5.502   9.880  16.189  0.2310  0.0226 -0.0148
 1942POPS   C1A23297   5.689  10.138  16.557 -0.1258 -0.1994  0.1002
 1942POPS   D2A23298   5.989  10.367  16.822  0.2324 -0.2297  0.1161
 1942POPS   C3A23299   6.241  10.053  17.038  0.0351 -0.0499 -0.1907
 1942POPS   C4A23300   6.619   9.744  17.108  0.0274 -0.0184  0.1166
 1942POPS   C1B23301   5.290   9.616  16.482 -0.2677 -0.0368 -0.0176
 1942POPS   C2B23302   5.077   9.211  16.621 -0.1834  0.0916 -0.0868
 1942POPS   C3B23303   5.120   9.041  17.048 -0.1277  0.2434 -0.0631
 1942POPS   C4B23304   4.959   8.953  17.458 -0.0173  0.2066 -0.1332
 1943POPS   CNO23305  12.168   9.873  14.302  0.0000 -0.0927 -0.0455
 1943POPS   PO423306  12.184   9.583  14.556 -0.1042 -0.1231  0.1302
 1943POPS   GL123307  11.963   9.267  14.415  0.0235  0.0896  0.1213
 1943POPS   GL223308  11.713   9.358  14.635  0.3158  0.1173 -0.0703
 1943POPS   C1A23309  11.683   8.995  14.158  0.3514 -0.5450 -0.2465
 1943POPS   D2A23310  11.232   8.856  14.107  0.0711  0.0206 -0.0378
 1943POPS   C3A23311  11.003   8.604  14.457 -0.1632  0.0808 -0.1826
 1943POPS   C4A23312  11.148   8.190  14.693 -0.0702  0.1607 -0.1484
 1943POPS   C1B23313  11.577   9.021  14.942 -0.1263  0.0083  0.0263
 1943POPS   C2B23314  11.495   8.815  15.378  0.1428 -0.0853  0.3049
 1943POPS   C3B23315  11.292   8.441  15.501 -0.1034  0.0825 -0.2184
 1943POPS   C4B23316  11.141   7.997  15.646  0.0110 -0.3342 -0.0851
 1944POPS   CNO23317   6.723   9.594  14.300 -0.2065  0.0783 -0.0318
 1944POPS   PO423318   6.508   9.317  14.219 -0.1745 -0.2607 -0.3363
 1944POPS   GL123319   6.754   8.961  14.322 -0.0538 -0.0109 -0.2977
 1944POPS   GL223320   7.034   9.148  14.282  0.1389  0.1722 -0.2230
 1944POPS   C1A23321   7.021   8.588  14.297 -0.1683  0.1273 -0.3088
 1944POPS   D2A23322   7.419   8.419  14.409  0.0221 -0.1190  0.0250
 1944POPS   C3A23323   7.540   8.690  14.758 -0.1697  0.1849 -0.0306
 1944POPS   C4A23324   7.595   9.071  15.026 -0.0892  0.1244 -0.1008
 1944POPS   C1B23325   7.102   8.953  14.683 -0.0964 -0.0794  0.0293
 1944POPS   C2B23326   7.167   8.805  15.088 -0.0702  0.0762  0.1617
 1944POPS   C3B23327   7.511   8.692  15.428 -0.0657 -0.0799  0.2368
 1944POPS   C4B23328   7.905   8.514  15.620 -0.1973 -0.3750  0.2764
 1945POPS   CNO23329   1.699   2.211  15.151 -0.2010  0.0057 -0.1657
 1945POPS   PO423330   2.084   2.116  15.240  0.3526 -0.0299 -0.1174
 1945POPS   GL123331   2.025   2.078  15.634 -0.0156  0.2828 -0.0139
 1945POPS   GL223332   2.284   2.222  15.746 -0.1497  0.3436 -0.1451
 1945POPS   C1A23333   1.867   2.332  16.011  0.2875  0.0301 -0.2991
 1945POPS   D2A23334   1.661   2.403  16.405 -0.0512  0.0826  0.3160
 1945POPS   C3A23335   1.653   2.634  16.764  0.1840 -0.2866  0.0004
 1945POPS   C4A23336   1.650   2.912  17.116 -0.1287  0.1727 -0.0827
 1945POPS   C1B23337   2.401   2.422  16.139 -0.1064 -0.0887 -0.1756
 1945POPS   C2B23338   2.366   2.520  16.617  0.0365  0.0291  0.1119
 1945POPS   C3B23339   2.113   2.739  16.931 -0.0038  0.2443  0.0429
 1945POPS   C4B23340   2.116   2.816  17.405  0.1186  0.0377 -0.0440
 1946POPS   CNO23341   1.111   4.354  19.873  0.1775  0.1336  0.0128
 1946POPS   PO423342   0.781   4.325  19.674  0.0886 -0.1450 -0.0648
 1946POPS   GL123343   0.825   4.260  19.256 -0.2738 -0.2677  0.5203
 1946POPS   GL223344   0.875   4.565  19.255 -0.1551  0.2829 -0.0779
 1946POPS   C1A23345   0.945   4.198  18.824 -0.0261 -0.2678  0.1080
 1946POPS   D2A23346   0.949   3.983  18.403 -0.2104 -0.1121  0.1193
 1946POPS   C3A23347   0.888   3.539  18.232  0.1936  0.0595  0.0782
 1946POPS   C4A23348   0.956   3.242  17.849  0.3710  0.0455 -0.0568
 1946POPS   C1B23349   0.654   4.700  18.839 -0.0491  0.1138 -0.0198
 1946POPS   C2B23350   0.618   4.538  18.398  0.1096  0.3585  0.2794
 1946POPS   C3B23351   0.743   4.250  18.058 -0.0704 -0.2511 -0.1015
 1946POPS   C4B23352   0.884   3.968  17.684 -0.0298  0.0299  0.3645
 1947POPS   CNO23353  13.928  16.213  20.070 -0.1159 -0.1790 -0.0944
 1947POPS   PO423354  14.299  16.258  20.098 -0.1041  0.0019 -0.0745
 1947POPS   GL123355  14.329  16.116  19.742 -0.0002 -0.0828  0.0541
 1947POPS   GL223356  14.421  16.396  19.636 -0.1045  0.0385  0.1412
 1947POPS   C1A23357  14.186  16.018  19.348  0.0811  0.0324 -0.1953
 1947POPS   D2A23358  13.864  15.875  19.026 -0.2932 -0.1570  0.1050
 1947POPS   C3A23359  13.830  15.818  18.616 -0.0191  0.0141 -0.2614
 1947POPS   C4A23360  14.020  15.628  18.218  0.1172  0.2145  0.1811
 1947POPS   C1B23361  14.633  16.211  19.250  0.0191 -0.0685  0.1860
 1947POPS   C2B23362  15.002  16.313  18.994 -0.0515  0.0999  0.0469
 1947POPS   C3B23363  15.032  16.652  18.689  0.2951 -0.4026 -0.1033
 1947POPS   C4B23364  15.168  16.662  18.275  0.0303 -0.0831 -0.2431
 1948POPS   CNO23365   8.434   3.379  17.632 -0.1327  0.2423  0.2473
 1948POPS   PO423366   8.078   3.474  17.557  0.2200 -0.1903  0.0163
 1948POPS   GL123367   7.929   3.112  17.292  0.0677  0.0732  0.0229
 1948POPS   GL223368   7.997   2.868  17.314 -0.2599 -0.1487 -0.2160
 1948POPS   C1A23369   7.835   3.125  16.857 -0.0465  0.0499  0.2767
 1948POPS   D2A23370   8.117   3.297  16.520 -0.0583  0.0659 -0.0995
 1948POPS   C3A23371   8.349   2.952  16.272 -0.1043  0.1061  0.0150
 1948POPS   C4A23372   8.378   2.595  16.000 -0.1144  0.0086  0.2690
 1948POPS   C1B23373   7.730   2.653  17.008  0.3582  0.2952 -0.0700
 1948POPS   C2B23374   7.564   2.343  16.712  0.0989 -0.1947  0.2044
 1948POPS   C3B23375   7.546   1.915  16.642  0.0508 -0.2635 -0.1379
 1948POPS   C4B23376   7.806   1.518  16.629 -0.0378  0.0365 -0.0527
 1949POPS   CNO23377   4.951  11.932  20.953  0.0730  0.0457 -0.1492
 1949POPS   PO423378   4.962  11.997  20.573 -0.1908 -0.2728 -0.1703
 1949POPS   GL123379   4.783  12.131  20.278 -0.5366  0.0224 -0.0500
 1949POPS   GL223380   4.524  12.280  20.162  0.2634 -0.1610 -0.1271
 1949POPS   C1A23381   4.759  12.004  19.796 -0.0371 -0.2176  0.3016
 1949POPS   D2A23382   4.697  11.561  19.654  0.1321 -0.1146 -0.0747
 1949POPS   C3A23383   4.910  11.184  19.520  0.1012 -0.0312  0.2312
 1949POPS   C4A23384   4.927  10.797  19.276  0.1678 -0.0325  0.1583
 1949POPS   C1B23385   4.426  12.506  19.791 -0.0095  0.1339 -0.0894
 1949POPS   C2B23386   4.423  12.479  19.312 -0.0865 -0.1851 -0.0979
 1949POPS   C3B23387   4.312  12.391  18.877  0.1629 -0.0159  0.0307
 1949POPS   C4B23388   4.152  12.094  18.557  0.2819  0.0249 -0.1551
 1950POPS   CNO23389  13.815   5.906  19.385  0.0689  0.3321  0.0368
 1950POPS   PO423390  14.060   5.814  19.084  0.1248  0.1016  0.2212
 1950POPS   GL123391  13.996   5.732  18.728 -0.0801  0.1360 -0.0962
 1950POPS   GL223392  14.321   5.647  18.662  0.0297  0.1123  0.0085
 1950POPS   C1A23393  13.702   5.477  18.475  0.2949 -0.2371  0.1674
 1950POPS   D2A23394  13.307   5.389  18.178  0.1611 -0.1393 -0.2655
 1950POPS   C3A23395  13.135   5.612  17.867  0.1962 -0.2441  0.0256
 1950POPS   C4A23396  13.199   5.874  17.606 -0.0886  0.0282  0.0283
 1950POPS   C1B23397  14.110   5.694  18.172  0.2632  0.2699 -0.4739
 1950POPS   C2B23398  14.145   5.698  17.734 -0.0956 -0.0621 -0.1740
 1950POPS   C3B23399  14.220   5.884  17.380 -0.0080  0.2186 -0.0668
 1950POPS   C4B23400  14.067   5.835  16.996  0.2939 -0.2825  0.0916
 1951POPS   CNO23401  16.162   5.557  19.673 -0.1111  0.0163 -0.1358
 1951POPS   PO423402  15.856   5.431  19.543  0.1708  0.1044 -0.0717
 1951POPS   GL123403  16.007   5.400  19.221 -0.2386  0.0305  0.1194
 1951POPS   GL223404  16.105   5.649  19.080  0.2740  0.0633 -0.1089
 1951POPS   C1A23405  16.055   5.130  18.793 -0.0407  0.1600  0.0144
 1951POPS   D2A23406  15.928   4.990  18.363  0.0089  0.1464 -0.3129
 1951POPS   C3A23407  16.257   4.883  18.064  0.1911 -0.1829  0.0126
 1951POPS   C4A23408  16.530   4.776  17.676 -0.1031  0.0570 -0.2838
 1951POPS   C1B23409  15.951   5.714  18.685 -0.2056 -0.0468  0.0482
 1951POPS   C2B23410  15.997   5.644  18.243 -0.3107  0.1097  0.1340
 1951POPS   C3B23411  16.133   5.361  17.838  0.0248 -0.3052  0.1105
 1951POPS   C4B23412  16.428   5.302  17.460  0.0762  0.2436 -0.0107
 1952POPS   CNO23413   3.328   0.343  20.504 -0.1968 -0.1726 -0.1777
 1952POPS   PO423414   3.047   0.506  20.308 -0.1459 -0.1396  0.0829
 1952POPS   GL123415   3.081   0.558  19.970  0.1109  0.2072 -0.1712
 1952POPS   GL223416   3.314   0.420  19.827 -0.0482  0.0231  0.2124
 1952POPS   C1A23417   2.936   0.131  19.778  0.0919 -0.0259 -0.0310
 1952POPS   D2A23418   3.157  -0.148  19.446 -0.0238 -0.1054 -0.3384
 1952POPS   C3A23419   3.037  -0.045  19.021 -0.3503 -0.1560 -0.1303
 1952POPS   C4A23420   3.120  -0.148  18.547  0.1706 -0.0995 -0.0426
 1952POPS   C1B23421   3.329   0.451  19.372  0.3453  0.0331 -0.1074
 1952POPS   C2B23422   3.515   0.262  18.955 -0.2060  0.1550 -0.1278
 1952POPS   C3B23423   3.551   0.066  18.532 -0.0470 -0.1621 -0.0361
 1952POPS   C4B23424   3.809  -0.268  18.328  0.1461  0.2000  0.0084
 1953POPS   CNO23425   4.833  32.697  20.426  0.3306 -0.0999  0.1070
 1953POPS   PO423426   4.456  32.708  20.382 -0.0865  0.0252  0.2201
 1953POPS   GL123427   4.291  32.731  20.046 -0.1653 -0.3041 -0.2862
 1953POPS   GL223428   4.042  32.864  20.028  0.0512 -0.2183 -0.1278
 1953POPS   C1A23429   4.445  32.624  19.617  0.3485  0.2143 -0.2709
 1953POPS   D2A23430   4.651  32.480  19.253 -0.0622  0.1098 -0.2299
 1953POPS   C3A23431   4.412  32.135  18.987 -0.1284 -0.1722  0.2140
 1953POPS   C4A23432   4.227  31.869  18.645 -0.2072  0.1904  0.3502
 1953POPS   C1B23433   3.973  32.511  19.718  0.0403 -0.3911 -0.0809
 1953POPS   C2B23434   3.671  32.337  19.390  0.0079 -0.1966  0.1259
 1953POPS   C3B23435   3.578  32.076  19.008 -0.0717  0.3082  0.1168
 1953POPS   C4B23436   3.577  31.756  18.660 -0.2001  0.0751 -0.1311
 1954POPS   CNO23437  13.622   1.097  20.422  0.2038  0.0385 -0.0149
 1954POPS   PO423438  13.656   0.762  20.272  0.1322  0.1486 -0.0855
 1954POPS   GL123439  13.647   0.663  19.845 -0.0335 -0.1517  0.3067
 1954POPS   GL223440  13.460   0.435  19.753  0.0582  0.0869  0.0175
 1954POPS   C1A23441  13.777   0.788  19.361 -0.4007  0.0791 -0.0243
 1954POPS   D2A23442  13.570   0.831  18.921 -0.0233  0.3032  0.1818
 1954POPS   C3A23443  13.809   0.987  18.516  0.0303 -0.0953  0.2107
 1954POPS   C4A23444  14.037   1.258  18.225  0.4504 -0.2651  0.2681
 1954POPS   C1B23445  13.742   0.173  19.520  0.0702 -0.3808 -0.1280
 1954POPS   C2B23446  13.826  -0.071  19.147  0.0281  0.1145  0.2931
 1954POPS   C3B23447  13.827  -0.082  18.696  0.0702  0.1118 -0.0970
 1954POPS   C4B23448  13.850   0.167  18.340 -0.1322  0.0037  0.0216
 1955POPS   CNO23449   3.664   4.192  19.642  0.4040  0.0004  0.0400
 1955POPS   PO423450   3.318   4.141  19.509 -0.0743  0.0468 -0.0523
 1955POPS   GL123451   3.285   4.173  19.173  0.0923 -0.1693 -0.0403
 1955POPS   GL223452   3.279   4.470  19.058  0.0132 -0.0433 -0.2434
 1955POPS   C1A23453   3.496   3.926  18.826 -0.2257 -0.0577  0.2603
 1955POPS   D2A23454   3.765   3.600  18.715  0.0815  0.1299  0.1221
 1955POPS   C3A23455   3.786   3.473  18.291  0.0911  0.0230 -0.2556
 1955POPS   C4A23456   3.881   3.412  17.836 -0.0346 -0.1505  0.0267
 1955POPS   C1B23457   3.039   4.326  18.700 -0.1648 -0.2193 -0.1189
 1955POPS   C2B23458   2.604   4.384  18.523 -0.2294 -0.0376  0.1955
 1955POPS   C3B23459   2.410   4.502  18.090 -0.0724 -0.1391  0.1292
 1955POPS   C4B23460   2.101   4.742  17.820 -0.2281  0.4291 -0.0866
 1956POPS   CNO23461  11.879  15.016  20.188 -0.2916 -0.1630 -0.0501
 1956POPS   PO423462  12.272  14.983  20.079  0.0883 -0.1892  0.1095
 1956POPS   GL123463  12.153  14.860  19.628  0.1782  0.1580  0.0860
 1956POPS   GL223464  11.917  14.905  19.695 -0.0738  0.1222  0.3172
 1956POPS   C1A23465  12.106  14.705  19.152  0.2465 -0.0526  0.2550
 1956POPS   D2A23466  12.143  14.528  18.699  0.0553  0.2741  0.1949
 1956POPS   C3A23467  11.682  14.721  18.715 -0.1026 -0.0123  0.3570
 1956POPS   C4A23468  11.460  15.054  18.929  0.1811  0.0321  0.0780
 1956POPS   C1B23469  11.582  15.066  19.449 -0.0144  0.1335 -0.1729
 1956POPS   C2B23470  11.115  15.013  19.352 -0.0833 -0.0584  0.2667
 1956POPS   C3B23471  10.749  15.114  19.088  0.0949  0.2063  0.1787
 1956POPS   C4B23472  10.329  15.248  18.881  0.3260  0.1694  0.0673
 1957POPS   CNO23473  10.741  11.616  21.101 -0.0918  0.1868  0.0374
 1957POPS   PO423474  10.892  11.672  20.762  0.2057 -0.0788  0.0118
 1957POPS   GL123475  10.936  11.557  20.325  0.2699 -0.0977 -0.0409
 1957POPS   GL223476  10.660  11.648  20.206 -0.0271  0.0587 -0.0784
 1957POPS   C1A23477  11.055  11.931  20.001  0.0020  0.1789  0.0855
 1957POPS   D2A23478  11.113  12.159  19.622 -0.2234  0.2408  0.0156
 1957POPS   C3A23479  10.959  12.561  19.644  0.1530  0.1392 -0.2767
 1957POPS   C4A23480  10.908  12.904  19.915  0.3422 -0.2478 -0.2071
 1957POPS   C1B23481  10.742  11.620  19.752  0.0210  0.0905  0.0609
 1957POPS   C2B23482  10.870  11.547  19.300 -0.0788 -0.1302  0.2344
 1957POPS   C3B23483  10.913  11.958  19.098  0.0408  0.1614 -0.2601
 1957POPS   C4B23484  10.802  12.441  19.042  0.0675  0.1690 -0.1425
 1958POPS   CNO23485   9.862   4.816  12.477 -0.0658  0.1789 -0.0412
 1958POPS   PO423486   9.519   4.674  12.509 -0.2361  0.0874  0.1736
 1958POPS   GL123487   9.562   4.287  12.528  0.0286  0.0888  0.1331
 1958POPS   GL223488   9.748   4.226  12.364  0.2249  0.3098 -0.1800
 1958POPS   C1A23489   9.905   4.012  12.760  0.3362  0.3602  0.1405
 1958POPS   D2A23490  10.195   3.860  13.100  0.1730  0.1421  0.0743
 1958POPS   C3A23491  10.301   3.472  12.923  0.2979  0.1684  0.0015
 1958POPS   C4A23492  10.229   3.032  12.959 -0.0209 -0.1248  0.0198
 1958POPS   C1B23493   9.948   4.034  12.055  0.0566  0.0201  0.0812
 1958POPS   C2B23494   9.983   3.529  11.966 -0.1123  0.2208 -0.0768
 1958POPS   C3B23495   9.604   3.280  12.191  0.1264 -0.0137 -0.0557
 1958POPS   C4B23496   9.175   3.196  12.427 -0.1093 -0.0831  0.2930
 1959POPS   CNO23497  13.442  10.229  20.641  0.1987  0.1320 -0.0076
 1959POPS   PO423498  13.806  10.196  20.672 -0.2127  0.1268  0.0595
 1959POPS   GL123499  14.007  10.053  20.342  0.2454 -0.1242 -0.2085
 1959POPS   GL223500  13.853   9.759  20.346 -0.0354 -0.0518  0.0269
 1959POPS   C1A23501  13.935   9.957  19.912  0.1074  0.4665  0.0968
 1959POPS   D2A23502  14.129  10.001  19.457  0.3126 -0.0204 -0.1431
 1959POPS   C3A23503  14.080   9.619  19.170 -0.0782  0.0054 -0.0901
 1959POPS   C4A23504  14.224   9.522  18.744  0.3939  0.2042 -0.1415
 1959POPS   C1B23505  13.440   9.797  20.097 -0.1014  0.0590  0.2517
 1959POPS   C2B23506  13.095   9.967  19.876 -0.2567 -0.2563  0.0153
 1959POPS   C3B23507  12.753  10.110  19.646 -0.1945  0.0691  0.0900
 1959POPS   C4B23508  12.330   9.984  19.709  0.1304 -0.1775  0.0437
 1960POPS   CNO23509   0.303   1.460  20.311  0.0925 -0.1219  0.2722
 1960POPS   PO423510  -0.073   1.358  20.312  0.1496  0.2227 -0.2074
 1960POPS   GL123511  -0.054   1.430  19.947  0.0325 -0.3464 -0.0230
 1960POPS   GL223512  -0.158   1.613  19.774  0.1376 -0.0932  0.0638
 1960POPS   C1A23513  -0.007   1.188  19.557 -0.1608 -0.2316  0.0151
 1960POPS   D2A23514   0.073   1.126  19.078  0.0654 -0.2302  0.1441
 1960POPS   C3A23515  -0.158   1.433  18.754  0.1122 -0.2361 -0.2669
 1960POPS   C4A23516  -0.150   1.570  18.299  0.1355 -0.0258  0.1943
 1960POPS   C1B23517  -0.472   1.330  19.751  0.2311  0.0697 -0.1518
 1960POPS   C2B23518  -0.753   1.027  19.498 -0.0831  0.1221 -0.1062
 1960POPS   C3B23519  -0.742   0.741  19.171  0.0766  0.0864  0.0248
 1960POPS   C4B23520  -0.733   0.589  18.737  0.0413  0.1612  0.0724
 1961POPS   CNO23521   2.900  11.366  21.005 -0.3402  0.2474 -0.1067
 1961POPS   PO423522   2.895  11.738  20.916 -0.1415 -0.3046  0.1747
 1961POPS   GL123523   2.813  11.888  20.620 -0.1992 -0.0563  0.0689
 1961POPS   GL223524   2.933  11.783  20.421  0.0990  0.0056 -0.0947
 1961POPS   C1A23525   2.399  11.738  20.335 -0.1966  0.2546 -0.0795
 1961POPS   D2A23526   2.294  11.893  19.946 -0.0577 -0.0272  0.1466
 1961POPS   C3A23527   2.440  11.571  19.749 -0.1480 -0.1744  0.2002
 1961POPS   C4A23528   2.556  11.252  19.454 -0.3123  0.3347  0.3991
 1961POPS   C1B23529   2.737  11.399  20.152 -0.1898 -0.0095 -0.0928
 1961POPS   C2B23530   2.914  11.239  19.774  0.0792  0.2484  0.1014
 1961POPS   C3B23531   3.250  11.358  19.476 -0.2446  0.0308  0.1212
 1961POPS   C4B23532   3.587  11.705  19.452  0.0537  0.0439 -0.3421
 1962POPS   CNO23533  10.777   4.964  11.529 -0.0194 -0.0789 -0.2886
 1962POPS   PO423534  11.023   5.002  11.266  0.2096 -0.1136 -0.2780
 1962POPS   GL123535  11.369   5.057  11.422 -0.2637 -0.0150 -0.2351
 1962POPS   GL223536  11.585   5.233  11.277 -0.2683 -0.0586 -0.0054
 1962POPS   C1A23537  11.645   4.730  11.444 -0.0620  0.2016 -0.1252
 1962POPS   D2A23538  11.600   4.406  11.728  0.2530  0.3825  0.2010
 1962POPS   C3A23539  11.271   4.164  11.904 -0.0437 -0.2203  0.0345
 1962POPS   C4A23540  10.947   3.822  11.861 -0.2541  0.0748  0.3835
 1962POPS   C1B23541  11.772   5.542  10.998  0.1279 -0.1587 -0.1091
 1962POPS   C2B23542  12.043   5.890  10.854 -0.1634 -0.3465  0.1175
 1962POPS   C3B23543  12.223   6.219  11.076  0.0661  0.3420 -0.3033
 1962POPS   C4B23544  12.498   6.332  11.450  0.1477  0.1040  0.2209
 1963POPS   CNO23545   2.702  14.286  21.036  0.0296  0.1881 -0.0152
 1963POPS   PO423546   2.634  14.420  20.663  0.2522 -0.0798 -0.0466
 1963POPS   GL123547   2.745  14.463  20.295 -0.2927  0.0347 -0.1385
 1963POPS   GL223548   2.516  14.580  20.175 -0.0921  0.2231  0.1122
 1963POPS   C1A23549   2.879  14.397  19.880 -0.0861 -0.0279 -0.0433
 1963POPS   D2A23550   3.188  14.398  19.547  0.0943  0.1354 -0.1860
 1963POPS   C3A23551   3.194  14.255  19.103  0.4282 -0.2086  0.0816
 1963POPS   C4A23552   3.301  13.975  18.741  0.3405 -0.2500 -0.2884
 1963POPS   C1B23553   2.098  14.675  20.072 -0.0927 -0.2831 -0.0330
 1963POPS   C2B23554   1.829  14.673  19.717 -0.0185 -0.1777 -0.3521
 1963POPS   C3B23555   1.718  14.322  19.485 -0.3448  0.0440  0.1998
 1963POPS   C4B23556   1.563  13.988  19.212  0.0429  0.2844 -0.2469
 1964POPS   CNO23557   8.659   4.695  15.724  0.1957 -0.2102 -0.0916
 1964POPS   PO423558   8.434   4.386  15.822 -0.0324 -0.0983 -0.2051
 1964POPS   GL123559   8.239   4.086  15.549  0.3633  0.2167 -0.1638
 1964POPS   GL223560   8.280   3.922  15.722 -0.2414 -0.1310  0.0338
 1964POPS   C1A23561   7.814   4.020  15.358  0.3076 -0.0490  0.0483
 1964POPS   D2A23562   7.390   4.041  15.573 -0.4484 -0.1116  0.0339
 1964POPS   C3A23563   7.096   3.667  15.689 -0.2051  0.0351 -0.1165
 1964POPS   C4A23564   6.747   3.415  15.844  0.1087  0.0061  0.0251
 1964POPS   C1B23565   8.064   3.556  15.500  0.1283 -0.1163  0.1147
 1964POPS   C2B23566   8.230   3.221  15.286 -0.0709 -0.1366 -0.2009
 1964POPS   C3B23567   8.379   3.051  14.917  0.0025  0.3324  0.2129
 1964POPS   C4B23568   8.643   2.775  14.683 -0.0170 -0.0456  0.2140
 1965POPS   CNO23569  10.248   5.727  15.173 -0.0023 -0.1400 -0.1657
 1965POPS   PO423570  10.562   5.645  15.413  0.1135 -0.0528  0.1615
 1965POPS   GL123571  10.976   5.631  15.293  0.0275 -0.1157  0.0554
 1965POPS   GL223572  11.025   5.363  15.339  0.3644  0.0543  0.1141
 1965POPS   C1A23573  11.144   6.065  15.342  0.2099 -0.2069 -0.2230
 1965POPS   D2A23574  11.602   6.200  15.283 -0.1851  0.1384 -0.0505
 1965POPS   C3A23575  11.819   6.246  14.858 -0.2920  0.1252  0.1112
 1965POPS   C4A23576  12.098   6.105  14.542 -0.1742 -0.1121 -0.0325
 1965POPS   C1B23577  11.519   5.328  15.219 -0.0052  0.3850  0.0540
 1965POPS   C2B23578  11.891   5.340  14.940 -0.0437  0.2767 -0.2705
 1965POPS   C3B23579  12.154   5.013  14.814 -0.3051  0.0889 -0.1199
 1965POPS   C4B23580  12.457   4.631  14.609 -0.0652  0.0524 -0.1293
 1966POPS   CNO23581   5.071   2.656  19.280 -0.5473  0.0125  0.0677
 1966POPS   PO423582   5.053   2.630  18.888 -0.1925 -0.0532  0.1019
 1966POPS   GL123583   4.871   2.446  18.603  0.0901 -0.0628  0.0850
 1966POPS   GL223584   4.779   2.567  18.373  0.1654 -0.0307 -0.1182
 1966POPS   C1A23585   4.955   2.133  18.306  0.0566  0.1690 -0.1409
 1966POPS   D2A23586   4.860   2.088  17.929 -0.0736  0.1440  0.0511
 1966POPS   C3A23587   4.588   2.189  17.547 -0.0297  0.1483 -0.2724
 1966POPS   C4A23588   4.259   2.184  17.223 -0.1606 -0.2684  0.1055
 1966POPS   C1B23589   4.308   2.657  18.432 -0.1040 -0.2061  0.1241
 1966POPS   C2B23590   3.857   2.510  18.324 -0.0164  0.1074  0.0517
 1966POPS   C3B23591   3.497   2.511  17.985 -0.1090  0.0898 -0.2147
 1966POPS   C4B23592   3.237   2.776  17.668  0.5104 -0.1024 -0.0677
 1967POPS   CNO23593   1.698   4.934  19.813 -0.2987 -0.0643  0.1420
 1967POPS   PO423594   1.479   4.652  19.682 -0.1392  0.0658 -0.0741
 1967POPS   GL123595   1.305   4.480  19.411  0.0793  0.0293  0.1717
 1967POPS   GL223596   1.322   4.743  19.257  0.0934 -0.0982 -0.0059
 1967POPS   C1A23597   1.416   4.162  19.099  0.0362 -0.1714  0.1091
 1967POPS   D2A23598   1.416   3.925  18.687  0.0846  0.0558  0.1204
 1967POPS   C3A23599   1.441   3.864  18.222 -0.0766  0.0860  0.0339
 1967POPS   C4A23600   1.415   3.521  17.900 -0.1923 -0.1100 -0.1935
 1967POPS   C1B23601   1.160   4.636  18.787 -0.0785 -0.0870 -0.0098
 1967POPS   C2B23602   1.198   4.396  18.388  0.2132 -0.1721 -0.0571
 1967POPS   C3B23603   1.234   4.306  17.968 -0.0597  0.1347  0.3774
 1967POPS   C4B23604   1.448   3.968  17.734 -0.0863 -0.1828  0.0880
 1968POPS   CNO23605   8.964  11.787  20.534 -0.4662  0.1450  0.4242
 1968POPS   PO423606   9.140  12.071  20.304 -0.2344 -0.0500 -0.3892
 1968POPS   GL123607   9.160  12.082  19.838  0.0379 -0.6674  0.2512
 1968POPS   GL223608   9.208  12.370  19.780  0.2278  0.3178  0.0191
 1968POPS   C1A23609   9.074  11.804  19.483  0.1920  0.2805 -0.4554
 1968POPS   D2A23610   9.199  11.586  19.089 -0.2200  0.0811 -0.0213
 1968POPS   C3A23611   9.451  11.936  18.842  0.1532  0.3039  0.1428
 1968POPS   C4A23612   9.267  12.221  18.610  0.0127 -0.0610 -0.2283
 1968POPS   C1B23613   9.050  12.313  19.370 -0.1333 -0.0708 -0.0684
 1968POPS   C2B23614   8.939  12.008  19.027 -0.3125 -0.0289 -0.0762
 1968POPS   C3B23615   9.019  11.823  18.653 -0.1178  0.0411  0.0478
 1968POPS   C4B23616   9.083  11.980  18.216  0.1164 -0.2232 -0.3965
 1969POPS   CNO23617   0.791   6.062  20.061 -0.1700 -0.0222 -0.0855
 1969POPS   PO423618   0.981   6.193  19.800 -0.0872  0.1102 -0.2236
 1969POPS   GL123619   1.127   6.291  19.403 -0.1425 -0.1695 -0.1160
 1969POPS   GL223620   1.378   6.447  19.392  0.0540 -0.1340  0.3914
 1969POPS   C1A23621   1.029   6.506  19.054 -0.1503  0.0586 -0.0725
 1969POPS   D2A23622   0.898   6.960  19.020  0.2164 -0.4344 -0.1066
 1969POPS   C3A23623   0.869   6.943  18.553  0.1529  0.0073  0.1258
 1969POPS   C4A23624   0.736   7.045  18.118 -0.0791  0.1122  0.1115
 1969POPS   C1B23625   1.517   6.166  19.002  0.0226 -0.2414 -0.3673
 1969POPS   C2B23626   1.678   6.374  18.613  0.2296  0.2428 -0.1309
 1969POPS   C3B23627   1.953   6.254  18.228 -0.2834 -0.0839  0.1833
 1969POPS   C4B23628   1.891   5.965  17.802 -0.0495 -0.0032 -0.0384
 1970POPS   CNO23629  10.800   9.677  19.401  0.1914 -0.0822  0.2110
 1970POPS   PO423630  10.804   9.321  19.545  0.1845 -0.2431 -0.3248
 1970POPS   GL123631  10.744   9.314  19.170 -0.0206  0.0610  0.1118
 1970POPS   GL223632  10.529   9.429  19.018  0.0266 -0.1191 -0.2536
 1970POPS   C1A23633  10.783   9.121  18.695  0.3159  0.0782 -0.0810
 1970POPS   D2A23634  11.028   9.369  18.314  0.1911  0.0615  0.0421
 1970POPS   C3A23635  11.279   9.497  17.919 -0.1508 -0.1087  0.0480
 1970POPS   C4A23636  11.224   9.701  17.508 -0.1752 -0.0318 -0.1875
 1970POPS   C1B23637  10.657   9.612  18.602 -0.0383  0.1762 -0.2385
 1970POPS   C2B23638  10.578   9.920  18.335 -0.1209  0.1641  0.1589
 1970POPS   C3B23639  10.411  10.152  17.943 -0.2584 -0.1963 -0.1445
 1970POPS   C4B23640  10.227  10.605  17.936 -0.2802  0.2163  0.0505
 1971POPS   CNO23641  14.350   3.939  18.935  0.3267  0.0132  0.0941
 1971POPS   PO423642  14.452   3.757  19.261  0.0040 -0.0388 -0.1651
 1971POPS   GL123643  14.405   3.489  18.916 -0.0241  0.0153 -0.0466
 1971POPS   GL223644  14.631   3.532  18.663 -0.0842  0.2212 -0.1137
 1971POPS   C1A23645  14.196   3.224  18.623 -0.0237  0.0498 -0.0739
 1971POPS   D2A23646  14.050   2.824  18.346 -0.1043  0.1524 -0.2453
 1971POPS   C3A23647  14.312   2.563  18.051  0.1926  0.2540 -0.4312
 1971POPS   C4A23648  14.638   2.278  17.867  0.1073  0.0033  0.2035
 1971POPS   C1B23649  14.657   3.463  18.258 -0.1098 -0.0016  0.0445
 1971POPS   C2B23650  14.518   3.824  17.973 -0.1995  0.0677 -0.1018
 1971POPS   C3B23651  14.364   4.026  17.580 -0.1323  0.1657  0.0310
 1971POPS   C4B23652  14.510   3.820  17.189  0.0549 -0.2444  0.2991
 1972POPS   CNO23653  15.970  13.924  21.089 -0.3587  0.1534 -0.2298
 1972POPS   PO423654  16.336  14.054  21.110  0.0175 -0.0440  0.1211
 1972POPS   GL123655  16.258  13.869  20.713  0.2187 -0.4370 -0.0754
 1972POPS   GL223656  16.398  13.695  20.598 -0.0433  0.0118 -0.2672
 1972POPS   C1A23657  16.301  14.129  20.341  0.0458  0.3369  0.0423
 1972POPS   D2A23658  16.622  14.023  20.050  0.0099 -0.0327  0.3052
 1972POPS   C3A23659  16.925  14.326  19.903  0.0871 -0.0808 -0.0818
 1972POPS   C4A23660  17.281  14.433  19.681 -0.0938 -0.0432 -0.1518
 1972POPS   C1B23661  16.710  13.509  20.310  0.1020 -0.0428  0.0188
 1972POPS   C2B23662  16.817  13.380  19.872  0.3018 -0.1153 -0.3075
 1972POPS   C3B23663  16.847  13.393  19.382  0.2403 -0.2836 -0.2986
 1972POPS   C4B23664  16.913  13.644  18.966 -0.0947  0.2209 -0.0578
 1973POPS   CNO23665   8.326   8.266  19.079  0.1144  0.0091 -0.0525
 1973POPS   PO423666   8.167   8.588  19.055 -0.3372 -0.3786  0.4799
 1973POPS   GL123667   8.195   8.831  18.815  0.2742 -0.1501  0.1657
 1973POPS   GL223668   8.393   8.797  18.556  0.0621  0.1066  0.2932
 1973POPS   C1A23669   7.903   8.989  18.471 -0.1008  0.0414  0.1124
 1973POPS   D2A23670   7.736   8.967  18.081  0.3374  0.2326 -0.2218
 1973POPS   C3A23671   7.742   9.195  17.740 -0.0393 -0.4091  0.5213
 1973POPS   C4A23672   7.786   9.466  17.367 -0.0436  0.1886 -0.1315
 1973POPS   C1B23673   8.370   8.925  18.121  0.3659  0.0180 -0.0736
 1973POPS   C2B23674   8.362   9.118  17.706  0.1292 -0.3188 -0.2865
 1973POPS   C3B23675   8.269   9.427  17.401  0.0036  0.1532 -0.0953
 1973POPS   C4B23676   8.117   9.754  17.099  0.0171  0.3114 -0.0239
 1974POPS   CNO23677   7.680   3.191  17.610 -0.0765 -0.0815 -0.1140
 1974POPS   PO423678   7.350   3.301  17.419  0.1182  0.2968  0.1915
 1974POPS   GL123679   7.020   2.957  17.314 -0.1328 -0.2472  0.5281
 1974POPS   GL223680   7.224   2.761  17.229 -0.2110 -0.0498  0.1915
 1974POPS   C1A23681   6.854   2.851  16.904  0.2026 -0.2588 -0.1852
 1974POPS   D2A23682   6.897   2.699  16.464  0.0523  0.0382  0.4036
 1974POPS   C3A23683   6.853   2.427  16.097 -0.1270 -0.0828  0.0551
 1974POPS   C4A23684   6.688   2.435  15.703  0.2691 -0.0696  0.0180
 1974POPS   C1B23685   7.327   2.826  16.731  0.2781 -0.2463  0.3233
 1974POPS   C2B23686   7.378   2.601  16.298 -0.0649  0.2049 -0.0628
 1974POPS   C3B23687   7.661   2.254  16.201  0.3826 -0.3455 -0.2144
 1974POPS   C4B23688   7.796   1.830  16.097  0.1719  0.1685  0.2267
 1975POPS   CNO23689   8.922   3.527  16.842  0.0433 -0.0842 -0.1907
 1975POPS   PO423690   8.547   3.616  16.715 -0.0456  0.0372 -0.0151
 1975POPS   GL123691   8.614   3.334  16.425 -0.0070 -0.3622  0.0777
 1975POPS   GL223692   8.642   3.343  16.123 -0.1491 -0.2805 -0.5691
 1975POPS   C1A23693   8.812   2.895  16.319  0.0329  0.0337 -0.0306
 1975POPS   D2A23694   8.801   2.430  16.191 -0.0510 -0.2124  0.3176
 1975POPS   C3A23695   9.060   2.237  15.964 -0.0830  0.1289 -0.0639
 1975POPS   C4A23696   9.065   1.897  15.640 -0.1701  0.2596 -0.2353
 1975POPS   C1B23697   8.695   3.050  15.834 -0.0510  0.0349  0.2459
 1975POPS   C2B23698   8.495   2.841  15.482 -0.1116  0.1076  0.1942
 1975POPS   C3B23699   8.343   2.412  15.393  0.5790  0.1070  0.1948
 1975POPS   C4B23700   8.243   1.973  15.432 -0.0341  0.1198  0.0019
 1976POPS   CNO23701  11.215  13.569  20.628  0.0603  0.0469  0.2457
 1976POPS   PO423702  11.438  13.851  20.517 -0.1892 -0.0374 -0.0239
 1976POPS   GL123703  11.654  13.882  20.154  0.2019  0.0029  0.0898
 1976POPS   GL223704  11.908  13.877  20.290  0.3553 -0.2385 -0.2754
 1976POPS   C1A23705  11.765  13.501  19.926 -0.2461  0.1923 -0.1400
 1976POPS   D2A23706  11.733  13.028  19.924  0.1991 -0.1949 -0.2509
 1976POPS   C3A23707  11.354  12.778  19.969 -0.2595  0.1164  0.3326
 1976POPS   C4A23708  11.106  12.428  20.116  0.1924 -0.1274 -0.0681
 1976POPS   C1B23709  11.860  13.988  19.827 -0.2276  0.2580  0.1185
 1976POPS   C2B23710  11.820  13.965  19.423 -0.2077  0.0465 -0.0098
 1976POPS   C3B23711  11.757  14.223  19.051 -0.2560  0.0670  0.1611
 1976POPS   C4B23712  11.791  14.191  18.615 -0.5419  0.0296 -0.1812
 1977POPS   CNO23713   0.167  10.279  20.783  0.0191  0.0270  0.0737
 1977POPS   PO423714   0.367  10.354  20.490  0.1655  0.3556 -0.1070
 1977POPS   GL123715   0.260  10.493  20.100 -0.1055  0.0918  0.2362
 1977POPS   GL223716   0.235  10.188  20.001 -0.1309 -0.0858 -0.0173
 1977POPS   C1A23717   0.392  10.770  19.793  0.0158 -0.0877 -0.2838
 1977POPS   D2A23718   0.480  11.047  19.435  0.2256  0.2221 -0.0251
 1977POPS   C3A23719   0.378  11.498  19.446  0.0946 -0.0799  0.1617
 1977POPS   C4A23720   0.308  11.960  19.288  0.1134  0.1969 -0.1076
 1977POPS   C1B23721   0.176  10.287  19.567 -0.1636 -0.0093 -0.0613
 1977POPS   C2B23722   0.244  10.195  19.131  0.2694 -0.0795 -0.0462
 1977POPS   C3B23723   0.437   9.972  18.787  0.1585 -0.1992 -0.2555
 1977POPS   C4B23724   0.239   9.659  18.516  0.0425  0.0463  0.3542
 1978POPS   CNO23725   0.468   0.996  20.467  0.0358 -0.1100 -0.0538
 1978POPS   PO423726   0.666   0.691  20.399 -0.0118  0.3090  0.0505
 1978POPS   GL123727   0.595   0.681  20.072  0.0521  0.0642  0.2379
 1978POPS   GL223728   0.373   0.584  19.981 -0.1103 -0.0037  0.0293
 1978POPS   C1A23729   0.717   0.815  19.623 -0.1832  0.0959 -0.0164
 1978POPS   D2A23730   0.533   1.177  19.387 -0.1948 -0.2343  0.2688
 1978POPS   C3A23731   0.605   1.092  18.955 -0.1336 -0.1093  0.5237
 1978POPS   C4A23732   0.721   1.167  18.503 -0.1445 -0.0552 -0.0593
 1978POPS   C1B23733  -0.005   0.707  19.736 -0.1717 -0.0754 -0.0307
 1978POPS   C2B23734  -0.315   0.736  19.419 -0.1377  0.0032 -0.0616
 1978POPS   C3B23735  -0.320   0.526  19.025  0.2659  0.3419  0.2408
 1978POPS   C4B23736  -0.226   0.352  18.609 -0.3272  0.0117  0.0925
 1979POPS   CNO23737  12.569   0.191  19.874 -0.1906  0.2739 -0.2563
 1979POPS   PO423738  12.430   0.514  19.834  0.2979  0.3646  0.0334
 1979POPS   GL123739  12.553   0.333  19.449  0.3431 -0.0519  0.3664
 1979POPS   GL223740  12.397   0.453  19.269 -0.0771  0.2105  0.2460
 1979POPS   C1A23741  12.565   0.056  19.078  0.1061 -0.1613  0.2431
 1979POPS   D2A23742  12.346  -0.055  18.715 -0.2913 -0.2404  0.1946
 1979POPS   C3A23743  12.418  -0.321  18.350 -0.0310 -0.3633  0.0736
 1979POPS   C4A23744  12.419  -0.596  17.974 -0.0571 -0.0122  0.2647
 1979POPS   C1B23745  12.111   0.180  19.127  0.2465 -0.1314  0.1123
 1979POPS   C2B23746  11.737  -0.062  18.908 -0.0039 -0.1172  0.3979
 1979POPS   C3B23747  11.745  -0.224  18.494 -0.0133 -0.0419  0.2509
 1979POPS   C4B23748  11.750  -0.339  18.031 -0.1502 -0.3530 -0.0709
 1980POPS   CNO23749   8.176   0.551  20.025  0.0519  0.1491 -0.0693
 1980POPS   PO423750   8.337   0.390  19.725 -0.1981  0.0884  0.0419
 1980POPS   GL123751   8.198   0.196  19.327 -0.2635  0.0683 -0.0725
 1980POPS   GL223752   8.478   0.344  19.221 -0.0361 -0.1676 -0.1027
 1980POPS   C1A23753   7.922  -0.125  19.118  0.0354  0.1071  0.2443
 1980POPS   D2A23754   7.774  -0.372  18.746  0.0411 -0.0656  0.0822
 1980POPS   C3A23755   8.003  -0.628  18.456 -0.2374  0.1221  0.0268
 1980POPS   C4A23756   8.231  -0.975  18.247 -0.1899 -0.3521  0.1115
 1980POPS   C1B23757   8.652   0.039  18.891  0.0959  0.1262 -0.2137
 1980POPS   C2B23758   8.771  -0.202  18.543 -0.3262  0.0071  0.2722
 1980POPS   C3B23759   8.988  -0.333  18.062 -0.1277  0.2972 -0.1522
 1980POPS   C4B23760   8.800  -0.382  17.650 -0.0779  0.4381 -0.2456
 1981POPS   CNO23761   0.389   9.503  20.458  0.2162 -0.0873 -0.0371
 1981POPS   PO423762   0.758   9.522  20.517  0.0773 -0.0467  0.1722
 1981POPS   GL123763   0.790   9.534  20.059 -0.2225  0.0103  0.1249
 1981POPS   GL223764   0.499   9.457  20.025  0.2927 -0.0101  0.0483
 1981POPS   C1A23765   1.004   9.845  19.768  0.0510  0.0573 -0.1136
 1981POPS   D2A23766   1.153  10.198  19.509  0.1251  0.3416  0.1826
 1981POPS   C3A23767   1.434   9.992  19.178 -0.1038 -0.2952 -0.0168
 1981POPS   C4A23768   1.602   9.565  19.013 -0.1085  0.1238  0.2669
 1981POPS   C1B23769   0.463   9.811  19.695 -0.0855 -0.0424  0.1713
 1981POPS   C2B23770   0.686  10.027  19.386 -0.0684  0.2668  0.2095
 1981POPS   C3B23771   0.832  10.254  18.967  0.1148  0.0811 -0.1297
 1981POPS   C4B23772   1.078  10.270  18.615 -0.1146  0.1412 -0.1306
 1982POPS   CNO23773  12.608   5.545  19.158  0.2066 -0.1685  0.3166
 1982POPS   PO423774  12.679   5.678  18.811  0.1367  0.1233 -0.2915
 1982POPS   GL123775  12.773   5.664  18.477  0.1402  0.1015 -0.0217
 1982POPS   GL223776  12.507   5.617  18.340 -0.3487 -0.0913 -0.0272
 1982POPS   C1A23777  13.118   5.868  18.303  0.0899  0.3766  0.1029
 1982POPS   D2A23778  13.468   5.965  18.040  0.1191 -0.1260  0.5358
 1982POPS   C3A23779  13.657   5.580  17.935  0.1079  0.1252  0.0516
 1982POPS   C4A23780  13.900   5.234  17.702  0.2291 -0.0063  0.1715
 1982POPS   C1B23781  12.694   5.878  18.004 -0.2179  0.1737 -0.0285
 1982POPS   C2B23782  12.731   6.038  17.636  0.4516 -0.0396  0.1698
 1982POPS   C3B23783  12.933   6.155  17.265 -0.0301 -0.0258  0.2468
 1982POPS   C4B23784  13.081   6.082  16.757  0.1722 -0.1328 -0.1498
 1983POPS   CNO23785   9.277   6.038  14.618 -0.1683 -0.0945  0.2356
 1983POPS   PO423786   8.964   6.268  14.668  0.0367  0.3127  0.2581
 1983POPS   GL123787   8.837   6.655  14.566 -0.2520  0.1447  0.1214
 1983POPS   GL223788   8.653   6.667  14.371 -0.0708 -0.0690 -0.0228
 1983POPS   C1A23789   8.625   7.004  14.810 -0.0654 -0.3249  0.1326
 1983POPS   D2A23790   8.976   7.289  14.767  0.1263  0.3614  0.2225
 1983POPS   C3A23791   8.985   7.641  14.410  0.1835  0.2218  0.1738
 1983POPS   C4A23792   8.749   8.027  14.394  0.3733  0.0384  0.2689
 1983POPS   C1B23793   8.315   6.884  14.274  0.1954 -0.1029  0.2092
 1983POPS   C2B23794   7.907   6.862  14.118 -0.0682  0.1645  0.1295
 1983POPS   C3B23795   7.476   6.957  13.932 -0.0399  0.3428 -0.2311
 1983POPS   C4B23796   7.201   7.332  13.738  0.0066 -0.0923 -0.1763
 1984POPS   CNO23797   6.551  11.486  20.579  0.0293 -0.2095  0.0664
 1984POPS   PO423798   6.415  11.538  20.249 -0.0709 -0.0045  0.1711
 1984POPS   GL123799   6.561  11.462  19.949  0.0952 -0.1007 -0.0223
 1984POPS   GL223800   6.833  11.345  20.026 -0.2296 -0.2041  0.1509
 1984POPS   C1A23801   6.513  11.455  19.486 -0.0952  0.1515 -0.0889
 1984POPS   D2A23802   6.438  11.613  19.048 -0.0870 -0.1356  0.3737
 1984POPS   C3A23803   6.657  11.671  18.626 -0.2040 -0.2845  0.0124
 1984POPS   C4A23804   6.834  12.033  18.409 -0.2084 -0.1207  0.2873
 1984POPS   C1B23805   6.978  11.400  19.618 -0.0737 -0.4065  0.3850
 1984POPS   C2B23806   7.083  11.577  19.175  0.2339 -0.2073 -0.0112
 1984POPS   C3B23807   7.175  11.465  18.744  0.0637  0.1228 -0.2137
 1984POPS   C4B23808   7.170  11.688  18.311 -0.2897 -0.1564 -0.1133
 1985POPS   CNO23809   7.594   7.802  18.231  0.1063 -0.1461  0.1395
 1985POPS   PO423810   7.643   7.565  17.950  0.2137  0.2395  0.0268
 1985POPS   GL123811   7.596   7.843  17.751 -0.2413 -0.4222  0.2829
 1985POPS   GL223812   7.483   8.076  17.811  0.1525  0.0601 -0.1934
 1985POPS   C1A23813   7.743   8.042  17.387  0.2244  0.3229  0.0874
 1985POPS   D2A23814   7.683   8.135  16.964 -0.1875 -0.2445 -0.1987
 1985POPS   C3A23815   7.369   8.291  16.724  0.3593  0.2031 -0.0252
 1985POPS   C4A23816   7.134   8.360  16.348 -0.1753 -0.2966 -0.0894
 1985POPS   C1B23817   7.269   8.409  17.581  0.0692 -0.2085 -0.1725
 1985POPS   C2B23818   7.609   8.673  17.376  0.0609  0.0864 -0.0191
 1985POPS   C3B23819   7.594   9.080  17.104  0.0582  0.0649 -0.0622
 1985POPS   C4B23820   7.650   9.552  16.935 -0.2063 -0.0686 -0.0313
 1986POPS   CNO23821  11.729  10.921  20.428 -0.0645 -0.1341  0.5199
 1986POPS   PO423822  11.963  10.671  20.324  0.1617 -0.0500 -0.0878
 1986POPS   GL123823  11.854  10.611  19.982 -0.1775  0.0446 -0.0080
 1986POPS   GL223824  11.946  10.856  19.729 -0.3636  0.1764  0.0604
 1986POPS   C1A23825  11.868  10.397  19.615 -0.1028 -0.3075 -0.0910
 1986POPS   D2A23826  11.487  10.368  19.313 -0.2472 -0.0440  0.3823
 1986POPS   C3A23827  11.328  10.333  18.846  0.2006 -0.0955 -0.0347
 1986POPS   C4A23828  11.318  10.373  18.371 -0.3699  0.0588  0.1331
 1986POPS   C1B23829  11.836  10.906  19.360  0.1441  0.1747  0.1929
 1986POPS   C2B23830  11.863  11.126  18.888 -0.0473  0.3425 -0.3777
 1986POPS   C3B23831  11.640  11.421  18.622 -0.0887 -0.1708  0.2063
 1986POPS   C4B23832  11.216  11.471  18.407  0.1118  0.2367  0.1722
 1987POPS   CNO23833   2.619   1.331  20.373 -0.1965 -0.2826 -0.2895
 1987POPS   PO423834   2.633   1.366  19.997 -0.0059  0.1495  0.0795
 1987POPS   GL123835   2.635   1.301  19.596 -0.2791 -0.0407 -0.1488
 1987POPS   GL223836   2.435   1.073  19.602  0.2882 -0.0049  0.2937
 1987POPS   C1A23837   2.442   1.468  19.226  0.1277  0.2385  0.2004
 1987POPS   D2A23838   2.107   1.622  18.951 -0.4288 -0.0211  0.0631
 1987POPS   C3A23839   1.833   1.634  18.597 -0.0021 -0.4081  0.2373
 1987POPS   C4A23840   1.919   1.546  18.099 -0.1913  0.0010  0.1202
 1987POPS   C1B23841   2.592   0.987  19.234 -0.1500  0.2269 -0.0397
 1987POPS   C2B23842   2.650   0.778  18.827  0.0229  0.2156  0.3688
 1987POPS   C3B23843   2.361   0.486  18.566 -0.3217  0.2941  0.1769
 1987POPS   C4B23844   2.048   0.305  18.249  0.2992 -0.0092  0.1249
 1988POPS   CNO23845   9.973   4.115  15.977  0.2334 -0.0103  0.1823
 1988POPS   PO423846  10.012   3.743  16.109  0.0112 -0.4354  0.0113
 1988POPS   GL123847  10.220   3.551  15.831  0.2966  0.0885 -0.5130
 1988POPS   GL223848  10.473   3.568  15.922  0.1647 -0.0420 -0.0958
 1988POPS   C1A23849  10.100   3.431  15.381  0.2178  0.0902  0.0728
 1988POPS   D2A23850   9.842   3.364  15.003 -0.0685 -0.1372  0.0467
 1988POPS   C3A23851   9.423   3.158  15.011  0.1296 -0.1856  0.1043
 1988POPS   C4A23852   9.452   2.696  14.950  0.0782  0.1011 -0.2446
 1988POPS   C1B23853  10.395   3.161  15.681 -0.0229  0.2633  0.0780
 1988POPS   C2B23854  10.150   2.772  15.723  0.0819  0.1800 -0.2632
 1988POPS   C3B23855  10.116   2.393  15.960 -0.5156  0.0407 -0.2494
 1988POPS   C4B23856  10.072   2.004  16.223  0.2804  0.1957 -0.0971
 1989POPS   CNO23857  14.689  12.124  20.486  0.0476 -0.1012  0.2118
 1989POPS   PO423858  14.900  12.465  20.498 -0.2668  0.2791  0.1144
 1989POPS   GL123859  14.802  12.616  20.158  0.1068  0.2920  0.0324
 1989POPS   GL223860  14.757  12.261  20.029 -0.1898 -0.0134  0.1871
 1989POPS   C1A23861  15.059  12.781  19.795 -0.2478 -0.2303 -0.1656
 1989POPS   D2A23862  15.032  12.894  19.358  0.1771 -0.0336  0.0418
 1989POPS   C3A23863  15.245  13.066  19.019 -0.1021  0.0396 -0.1869
 1989POPS   C4A23864  15.185  13.041  18.583 -0.0913  0.0131 -0.2089
 1989POPS   C1B23865  14.792  12.168  19.538  0.3094 -0.1244  0.0319
 1989POPS   C2B23866  14.760  12.185  19.092  0.0737  0.2295 -0.0953
 1989POPS   C3B23867  14.511  12.323  18.688 -0.0394  0.2511 -0.2793
 1989POPS   C4B23868  14.377  12.398  18.254  0.1098 -0.0978  0.0754
 1990POPS   CNO23869   9.863   2.503  18.166  0.0438 -0.1537  0.1301
 1990POPS   PO423870   9.811   2.636  17.835 -0.0884 -0.0522  0.1810
 1990POPS   GL123871   9.897   2.307  17.587 -0.0746 -0.2459  0.2077
 1990POPS   GL223872   9.712   2.137  17.609  0.0449  0.3329 -0.0007
 1990POPS   C1A23873   9.943   2.134  17.128  0.0975 -0.2579  0.1559
 1990POPS   D2A23874   9.756   2.017  16.718 -0.1755  0.1087  0.0807
 1990POPS   C3A23875   9.531   1.686  16.503  0.2038  0.0028  0.1148
 1990POPS   C4A23876   9.516   1.319  16.256  0.1414  0.3506  0.0764
 1990POPS   C1B23877   9.713   1.710  17.399  0.1270 -0.1266  0.1832
 1990POPS   C2B23878   9.754   1.519  16.980  0.1821 -0.1555 -0.2078
 1990POPS   C3B23879   9.710   1.218  16.685 -0.1553 -0.3502  0.0510
 1990POPS   C4B23880   9.643   0.792  16.582  0.1377 -0.1961 -0.2953
 1991POPS   CNO23881   9.405   4.582  13.692 -0.0681 -0.1074  0.3554
 1991POPS   PO423882   9.170   4.365  13.924  0.0093 -0.0453 -0.1113
 1991POPS   GL123883   8.790   4.283  13.837 -0.1899 -0.1087  0.1063
 1991POPS   GL223884   8.744   4.143  14.095 -0.0812 -0.2367  0.0439
 1991POPS   C1A23885   8.562   3.895  13.696 -0.0871  0.1445  0.1392
 1991POPS   D2A23886   8.722   3.446  13.630  0.1979 -0.0006 -0.2744
 1991POPS   C3A23887   8.280   3.239  13.560 -0.0097  0.0828 -0.3634
 1991POPS   C4A23888   8.098   2.874  13.722 -0.2478  0.0444 -0.1570
 1991POPS   C1B23889   8.872   3.704  14.091 -0.2985  0.0847  0.0502
 1991POPS   C2B23890   9.030   3.301  14.238  0.2496  0.1050 -0.1356
 1991POPS   C3B23891   9.309   2.987  14.141 -0.1046 -0.1193  0.0451
 1991POPS   C4B23892   9.538   2.616  14.029  0.0898  0.3733 -0.1567
 1992POPS   CNO23893   4.053  13.808  21.106  0.1602  0.1020  0.0280
 1992POPS   PO423894   4.039  13.982  20.798  0.2473 -0.0186 -0.0567
 1992POPS   GL123895   3.998  13.772  20.482  0.0089 -0.0369  0.1704
 1992POPS   GL223896   3.992  13.902  20.255 -0.0202  0.1042  0.0827
 1992POPS   C1A23897   4.095  13.383  20.256  0.2708  0.1058  0.0418
 1992POPS   D2A23898   4.189  13.315  19.810 -0.0557 -0.0900 -0.0242
 1992POPS   C3A23899   4.512  13.632  19.678 -0.1175 -0.0110 -0.1365
 1992POPS   C4A23900   4.880  13.857  19.857 -0.2310  0.2237  0.1080
 1992POPS   C1B23901   3.757  13.608  19.996  0.0570  0.1706  0.0927
 1992POPS   C2B23902   3.566  13.492  19.593 -0.1026 -0.1606  0.0421
 1992POPS   C3B23903   3.771  13.202  19.247 -0.0047 -0.1903 -0.3631
 1992POPS   C4B23904   4.066  13.336  18.960  0.1448  0.0332  0.3180
 1993POPS   CNO23905  14.323  13.989  20.824 -0.3692  0.2648  0.0955
 1993POPS   PO423906  14.286  14.107  20.470 -0.1133  0.4267  0.1735
 1993POPS   GL123907  14.501  14.130  20.074 -0.2287 -0.0064 -0.1175
 1993POPS   GL223908  14.783  13.928  20.092  0.2453 -0.3460 -0.1131
 1993POPS   C1A23909  14.527  14.052  19.598  0.2119  0.3767  0.2738
 1993POPS   D2A23910  14.398  14.226  19.157  0.0423  0.0277  0.0652
 1993POPS   C3A23911  14.510  14.588  18.949 -0.3561  0.0045 -0.1976
 1993POPS   C4A23912  14.777  14.747  18.607  0.2347 -0.1260 -0.1295
 1993POPS   C1B23913  14.957  14.099  19.684 -0.2412 -0.0021 -0.0981
 1993POPS   C2B23914  15.047  14.036  19.229  0.0152 -0.1248 -0.2596
 1993POPS   C3B23915  15.150  14.006  18.794 -0.0213  0.2371  0.4769
 1993POPS   C4B23916  14.986  14.180  18.435  0.2037 -0.0603 -0.5575
 1994POPS   CNO23917  11.416   6.298  18.443 -0.1757 -0.0265  0.2803
 1994POPS   PO423918  11.571   6.663  18.468 -0.1244  0.1680 -0.2353
 1994POPS   GL123919  11.752   6.675  18.096 -0.2440  0.0682 -0.0102
 1994POPS   GL223920  11.699   6.790  17.824  0.1479 -0.1554  0.2125
 1994POPS   C1A23921  12.045   7.067  18.018 -0.1803 -0.0560 -0.4565
 1994POPS   D2A23922  12.301   7.473  17.912  0.3242  0.0327  0.2452
 1994POPS   C3A23923  12.436   7.613  18.276  0.3865  0.0565  0.0110
 1994POPS   C4A23924  12.472   7.920  18.636 -0.0007 -0.0342 -0.0214
 1994POPS   C1B23925  11.830   7.182  17.622  0.0214 -0.2439 -0.2396
 1994POPS   C2B23926  12.189   7.339  17.363 -0.2367 -0.0149  0.1211
 1994POPS   C3B23927  12.536   7.379  17.129  0.2502 -0.0722 -0.1538
 1994POPS   C4B23928  12.627   7.645  16.761  0.4245 -0.1290 -0.2702
 1995POPS   CNO23929   2.062   5.322  19.855  0.0493 -0.5262  0.0890
 1995POPS   PO423930   2.062   5.090  19.555 -0.3314  0.0729  0.0527
 1995POPS   GL123931   1.746   4.897  19.332  0.2826 -0.1261  0.0019
 1995POPS   GL223932   1.850   4.624  19.283 -0.1699  0.0980  0.1283
 1995POPS   C1A23933   1.521   5.040  18.956  0.0042 -0.0576  0.1912
 1995POPS   D2A23934   1.326   5.271  18.583 -0.1326 -0.0700  0.1148
 1995POPS   C3A23935   1.369   5.286  18.143 -0.0917 -0.0626  0.1890
 1995POPS   C4A23936   1.482   4.935  17.923  0.0852  0.0808  0.1164
 1995POPS   C1B23937   1.690   4.552  18.847  0.1356 -0.4649 -0.0526
 1995POPS   C2B23938   1.698   4.330  18.504 -0.1592  0.0767  0.1071
 1995POPS   C3B23939   1.768   4.392  18.096 -0.1117  0.2707  0.4242
 1995POPS   C4B23940   1.972   4.187  17.741 -0.0859 -0.2842 -0.0564
 1996POPS   CNO23941   5.401   8.194  19.349  0.1433  0.0718 -0.0536
 1996POPS   PO423942   5.076   8.016  19.449  0.0076  0.0624  0.2622
 1996POPS   GL123943   5.081   8.203  19.051  0.1118  0.2113 -0.1510
 1996POPS   GL223944   4.823   8.355  19.113 -0.2886 -0.1106  0.1482
 1996POPS   C1A23945   5.046   8.512  18.733  0.2753 -0.0879  0.2049
 1996POPS   D2A23946   4.705   8.635  18.462 -0.3839 -0.0514 -0.0298
 1996POPS   C3A23947   4.517   8.450  18.034  0.2006  0.4101 -0.0527
 1996POPS   C4A23948   4.325   8.175  17.688 -0.0870 -0.1062 -0.0399
 1996POPS   C1B23949   4.551   8.058  18.943  0.2407  0.3918 -0.0186
 1996POPS   C2B23950   4.549   7.646  18.749 -0.1711  0.1673 -0.2787
 1996POPS   C3B23951   4.588   7.529  18.283 -0.0302  0.1779  0.0079
 1996POPS   C4B23952   4.782   7.379  17.914  0.0003  0.1380 -0.5927
 1997SAP2    C123953   5.259   1.608  10.281  0.1260  0.3773 -0.0478
 1997SAP2    C223954   5.147   1.611  10.534 -0.1247  0.0166 -0.1463
 1997SAP2    C323955   5.381   1.395  10.428 -0.1269  0.0720 -0.2661
 1997SAP2    C423956   5.262   1.538  10.414  0.3969  0.1218 -0.7394
 1997SAP2   PO423957   5.350   1.902  10.174  0.0939  0.3512 -0.4226
 1997SAP2    P423958   5.535   1.229  10.622  0.2016  0.2522 -0.0770
 1997SAP2    P523959   5.115   1.333  10.756 -0.1302  0.0590  0.1569
 1997SAP2   GL123960   5.390   1.927   9.815 -0.4761 -0.1646  0.1093
 1997SAP2   GL223961   5.503   2.172   9.825  0.0987  0.2719  0.1138
 1997SAP2   D1A23962   5.484   2.037   9.358 -0.0758 -0.2264  0.1738
 1997SAP2   D2A23963   5.819   2.334   9.363 -0.0266  0.1639  0.2078
 1997SAP2   D3A23964   6.165   2.161   9.169 -0.0106  0.1196 -0.0328
 1997SAP2   D4A23965   5.969   2.310   8.736 -0.0764  0.0086  0.2676
 1997SAP2   C5A23966   6.218   2.299   8.373 -0.3963  0.1676 -0.2582
 1997SAP2   C1B23967   5.400   2.547   9.818 -0.1605 -0.1182 -0.1575
 1997SAP2   C2B23968   5.635   2.949   9.897 -0.1849 -0.0540  0.0842
 1997SAP2   C3B23969   5.985   3.233   9.806 -0.2510 -0.0724 -0.3609
 1997SAP2   C4B23970   6.255   3.550   9.673 -0.0064  0.0237 -0.2932
 1998SAP2    C123971  15.124   5.541  10.033 -0.0073 -0.0792 -0.0672
 1998SAP2    C223972  15.156   5.592  10.303 -0.0958  0.1301 -0.0943
 1998SAP2    C323973  15.388   5.648  10.066 -0.0029 -0.0929 -0.0582
 1998SAP2    C423974  15.222   5.594  10.134  0.3650  0.5195 -0.8131
 1998SAP2   PO423975  14.809   5.697  10.053 -0.3341  0.0522 -0.2086
 1998SAP2    P423976  15.611   5.745  10.233 -0.1243 -0.1331 -0.0927
 1998SAP2    P523977  15.422   5.509  10.483  0.2664 -0.0701 -0.3306
 1998SAP2   GL123978  14.609   5.579   9.899  0.0158  0.1230  0.1469
 1998SAP2   GL223979  14.333   5.531   9.969 -0.1679 -0.2026  0.2822
 1998SAP2   D1A23980  14.619   5.918   9.564  0.2761 -0.0069  0.2600
 1998SAP2   D2A23981  14.739   5.724   9.128  0.1880  0.1677  0.1146
 1998SAP2   D3A23982  14.266   5.714   9.229  0.1660  0.0459 -0.2401
 1998SAP2   D4A23983  14.105   5.657   8.761 -0.0835  0.0986  0.0278
 1998SAP2   C5A23984  14.013   5.272   9.059 -0.0389  0.1411 -0.2313
 1998SAP2   C1B23985  14.105   5.433   9.595 -0.0620 -0.0342  0.0933
 1998SAP2   C2B23986  13.648   5.387   9.503  0.0307 -0.0357 -0.1654
 1998SAP2   C3B23987  13.182   5.523   9.456 -0.3003 -0.0006  0.2327
 1998SAP2   C4B23988  12.762   5.317   9.393  0.3952 -0.2498  0.1081
 1999SAP2    C123989  13.863   2.719  11.306 -0.0785 -0.0312 -0.1171
 1999SAP2    C223990  14.123   2.721  11.211 -0.1465  0.1865 -0.3084
 1999SAP2    C323991  13.917   2.456  11.207  0.0908 -0.0071 -0.0926
 1999SAP2    C423992  13.967   2.632  11.242  0.2522  0.0050  1.0820
 1999SAP2   PO423993  13.763   3.071  11.286  0.5670 -0.0983 -0.2218
 1999SAP2    P423994  14.122   2.216  11.107 -0.0886 -0.0572 -0.0083
 1999SAP2    P523995  14.334   2.537  11.429  0.1298  0.0574 -0.0790
 1999SAP2   GL123996  13.524   3.265  11.196 -0.0722  0.0001 -0.2711
 1999SAP2   GL223997  13.457   3.516  11.402 -0.2517  0.2028 -0.0816
 1999SAP2   D1A23998  13.048   3.287  11.336 -0.1822 -0.0164 -0.2463
 1999SAP2   D2A23999  12.800   3.352  11.770 -0.0857 -0.1339 -0.0543
 1999SAP2   D3A24000  12.557   3.740  11.829 -0.0518 -0.2192 -0.1178
 1999SAP2   D4A24001  12.374   4.025  11.495 -0.1770  0.0698  0.1906
 1999SAP2   C5A24002  12.819   4.189  11.414  0.0524 -0.1906 -0.0583
 1999SAP2   C1B24003  13.185   3.894  11.242  0.1297 -0.1789 -0.1243
 1999SAP2   C2B24004  12.936   3.955  10.890 -0.0856  0.0537  0.1277
 1999SAP2   C3B24005  12.504   4.151  10.902 -0.2476 -0.0732 -0.1875
 1999SAP2   C4B24006  12.316   4.551  10.688 -0.2141  0.0764  0.1467
 2000SAP2    C124007   3.432   2.163   9.817 -0.2796 -0.0395  0.5261
 2000SAP2    C224008   3.549   2.030  10.030  0.0359 -0.0731  0.3380
 2000SAP2    C324009   3.462   1.889   9.738 -0.1032  0.0343  0.3267
 2000SAP2    C424010   3.481   2.027   9.862  0.6417  0.3598 -0.2870
 2000SAP2   PO424011   3.612   2.427   9.777 -0.1035 -0.0051  0.2802
 2000SAP2    P424012   3.477   1.610   9.816 -0.1676 -0.0018  0.0670
 2000SAP2    P524013   3.349   1.950  10.276 -0.1046 -0.0810 -0.0288
 2000SAP2   GL124014   3.772   2.538   9.534 -0.0715  0.2071 -0.0443
 2000SAP2   GL224015   3.967   2.277   9.457  0.0385 -0.0007  0.0104
 2000SAP2   D1A24016   3.841   2.797   9.175 -0.1350  0.0388  0.1276
 2000SAP2   D2A24017   4.250   2.782   9.005  0.2121  0.0286  0.0208
 2000SAP2   D3A24018   4.250   2.800   8.560 -0.1077 -0.1603  0.0683
 2000SAP2   D4A24019   4.470   3.031   8.205 -0.3326 -0.0944  0.2924
 2000SAP2   C5A24020   4.709   2.763   7.868 -0.1631  0.2148  0.0682
 2000SAP2   C1B24021   4.380   2.350   9.249  0.1802  0.5515 -0.1910
 2000SAP2   C2B24022   4.573   2.395   8.799 -0.0390  0.0223 -0.0194
 2000SAP2   C3B24023   4.756   2.684   8.500  0.0705 -0.0718  0.2161
 2000SAP2   C4B24024   5.054   2.599   8.201  0.0580  0.2312  0.0688
 2001SAP2    C124025   3.317   0.698   9.428 -0.0008  0.0160  0.1284
 2001SAP2    C224026   3.467   0.726   9.658  0.0086  0.1720  0.1041
 2001SAP2    C324027   3.370   0.433   9.525  0.3035  0.0671  0.1110
 2001SAP2    C424028   3.384   0.619   9.537 -0.2489  0.2594 -0.4597
 2001SAP2   PO424029   3.454   0.929   9.268 -0.0005 -0.1369  0.0628
 2001SAP2    P424030   3.495   0.230   9.667 -0.2939 -0.1905 -0.1042
 2001SAP2    P524031   3.290   0.624   9.899  0.1906  0.0479 -0.1791
 2001SAP2   GL124032   3.360   1.043   9.070  0.1002  0.0037  0.4031
 2001SAP2   GL224033   3.609   1.312   9.020 -0.1634  0.0364  0.0125
 2001SAP2   D1A24034   3.363   1.133   8.585 -0.0745  0.1226 -0.0622
 2001SAP2   D2A24035   2.982   1.031   8.405 -0.0184  0.3346 -0.0464
 2001SAP2   D3A24036   3.014   1.542   8.445 -0.1144 -0.1069  0.1912
 2001SAP2   D4A24037   2.871   1.635   8.067 -0.0383  0.3535  0.5004
 2001SAP2   C5A24038   3.169   1.262   7.997 -0.2231  0.0500  0.1116
 2001SAP2   C1B24039   3.835   1.337   8.617 -0.0615 -0.0732 -0.4005
 2001SAP2   C2B24040   3.643   1.393   8.211 -0.0446 -0.0077  0.0123
 2001SAP2   C3B24041   3.923   1.459   7.861  0.1279  0.0594 -0.0232
 2001SAP2   C4B24042   4.184   1.816   7.690 -0.1848  0.2188 -0.2562
 2002SAP2    C124043   7.372   0.388  10.041  0.1258 -0.2123 -0.3441
 2002SAP2    C224044   7.158   0.325  10.205  0.1781 -0.0474 -0.2092
 2002SAP2    C324045   7.481   0.313  10.296  0.2089  0.0261 -0.3067
 2002SAP2    C424046   7.337   0.342  10.181  0.0104 -0.3753  0.2538
 2002SAP2   PO424047   7.216   0.651   9.882  0.0132 -0.0457  0.1647
 2002SAP2    P424048   7.468   0.268  10.606 -0.1140 -0.4815 -0.2256
 2002SAP2    P524049   7.018   0.053  10.369  0.1299 -0.1173 -0.1488
 2002SAP2   GL124050   7.366   0.787   9.510 -0.0636 -0.0135 -0.2516
 2002SAP2   GL224051   7.174   0.669   9.411  0.0855 -0.0005  0.0751
 2002SAP2   D1A24052   7.473   1.214   9.507 -0.2614 -0.1754  0.3727
 2002SAP2   D2A24053   7.718   1.566   9.720 -0.0884 -0.0063 -0.4447
 2002SAP2   D3A24054   7.369   1.797   9.475  0.2727  0.2451 -0.2065
 2002SAP2   D4A24055   7.695   1.937   9.252  0.1893 -0.0851 -0.5708
 2002SAP2   C5A24056   7.905   2.171   8.957 -0.0833  0.0992 -0.0795
 2002SAP2   C1B24057   7.283   0.891   9.031  0.1933 -0.1410 -0.3244
 2002SAP2   C2B24058   7.225   0.970   8.585  0.0843 -0.0500  0.1684
 2002SAP2   C3B24059   7.336   1.246   8.221  0.2392  0.0409 -0.3731
 2002SAP2   C4B24060   7.146   1.635   8.150 -0.1172  0.1113 -0.2789
 2003SAP2    C124061   2.795   1.576   9.315  0.0677 -0.1224  0.0933
 2003SAP2    C224062   2.751   1.304   9.282  0.0633 -0.1018 -0.0758
 2003SAP2    C324063   2.603   1.499   9.513  0.1150 -0.2552  0.0886
 2003SAP2    C424064   2.716   1.460   9.370 -0.6747  0.2186 -0.4135
 2003SAP2   PO424065   2.765   1.742   9.059 -0.3045 -0.3102 -0.0982
 2003SAP2    P424066   2.447   1.371   9.728  0.0710  0.0852  0.2414
 2003SAP2    P524067   2.675   1.034   9.474 -0.0129 -0.2797 -0.3485
 2003SAP2   GL124068   3.037   1.937   9.078 -0.0125  0.2024 -0.0209
 2003SAP2   GL224069   2.961   2.003   8.829  0.0553  0.2919  0.1987
 2003SAP2   D1A24070   3.359   1.746   8.827 -0.2329  0.1029  0.0769
 2003SAP2   D2A24071   3.330   1.916   8.424 -0.0678  0.1470 -0.0544
 2003SAP2   D3A24072   3.337   1.731   8.021  0.3237  0.0653  0.1965
 2003SAP2   D4A24073   3.493   1.513   7.616  0.1379  0.0668  0.0667
 2003SAP2   C5A24074   3.037   1.462   7.580 -0.1717  0.4384 -0.2719
 2003SAP2   C1B24075   3.115   2.367   8.536  0.1773  0.0078  0.0236
 2003SAP2   C2B24076   3.344   2.706   8.272 -0.0212  0.2807  0.1787
 2003SAP2   C3B24077   3.690   2.851   7.964 -0.2432  0.0738 -0.0673
 2003SAP2   C4B24078   3.949   2.841   7.585  0.3340  0.0221  0.1321
 2004SAP2    C124079   2.894  11.248   8.932 -0.1238  0.2080  0.2057
 2004SAP2    C224080   2.793  11.047   9.094 -0.2744  0.3020  0.2311
 2004SAP2    C324081   3.075  11.221   9.152  0.2046 -0.3174 -0.1062
 2004SAP2    C424082   2.921  11.172   9.059 -0.1013 -0.9913 -0.2658
 2004SAP2   PO424083   2.643  11.379   8.756 -0.0571  0.0235  0.0401
 2004SAP2    P424084   3.125  11.134   9.412 -0.2951  0.0434 -0.0984
 2004SAP2    P524085   2.949  10.784   9.152  0.0300  0.1768 -0.2564
 2004SAP2   GL124086   2.595  11.332   8.449 -0.2222 -0.0888  0.1287
 2004SAP2   GL224087   2.712  11.322   8.207  0.0986  0.2056 -0.3008
 2004SAP2   D1A24088   2.457  10.890   8.271  0.1078  0.1383 -0.0009
 2004SAP2   D2A24089   2.103  10.862   7.967 -0.2523  0.0512  0.5793
 2004SAP2   D3A24090   1.792  10.653   7.675 -0.0167  0.2594  0.2379
 2004SAP2   D4A24091   2.182  10.826   7.431 -0.1368 -0.0897  0.1345
 2004SAP2   C5A24092   2.521  10.783   7.749 -0.0262 -0.1946 -0.1667
 2004SAP2   C1B24093   2.717  11.359   7.763 -0.0635 -0.0496  0.0970
 2004SAP2   C2B24094   2.524  11.169   7.377 -0.0202  0.3009  0.0815
 2004SAP2   C3B24095   2.463  10.990   6.960 -0.2243 -0.0112  0.0406
 2004SAP2   C4B24096   2.293  10.910   6.560  0.2139  0.0181 -0.2091
 2005SAP2    C124097   5.937   9.752  10.545 -0.0329 -0.3888  0.3807
 2005SAP2    C224098   6.023  10.014  10.573 -0.3417 -0.2756  0.3123
 2005SAP2    C324099   6.060   9.772  10.803  0.0214 -0.1990  0.3416
 2005SAP2    C424100   6.007   9.846  10.640  0.5902  0.3357  0.2426
 2005SAP2   PO424101   6.042   9.659  10.264 -0.1748 -0.0152 -0.0563
 2005SAP2    P424102   6.088   9.910  11.068  0.1442 -0.1635  0.0167
 2005SAP2    P524103   5.947  10.299  10.730  0.3046 -0.0976 -0.0054
 2005SAP2   GL124104   6.155   9.432  10.143 -0.0186  0.1033  0.2779
 2005SAP2   GL224105   5.965   9.338   9.895  0.1359 -0.0672  0.1227
 2005SAP2   D1A24106   6.362   9.020  10.059 -0.1976 -0.1404  0.0604
 2005SAP2   D2A24107   6.729   9.253  10.169  0.2861 -0.1462  0.0350
 2005SAP2   D3A24108   6.562   8.922  10.470  0.0396 -0.0272  0.1852
 2005SAP2   D4A24109   6.683   8.525  10.324 -0.0972  0.2893  0.2269
 2005SAP2   C5A24110   6.735   8.623   9.893  0.1393  0.2793 -0.3551
 2005SAP2   C1B24111   6.135   8.987   9.662 -0.2165 -0.0085 -0.1926
 2005SAP2   C2B24112   6.360   8.663   9.381 -0.0322 -0.1178 -0.0660
 2005SAP2   C3B24113   6.269   8.425   9.002  0.0408 -0.0557 -0.2599
 2005SAP2   C4B24114   6.308   8.370   8.565  0.0071 -0.1307  0.1680
 2006SAP2    C124115  10.807  14.370   9.311  0.2210 -0.0618  0.0447
 2006SAP2    C224116  10.603  14.292   9.481  0.3299 -0.0631  0.1772
 2006SAP2    C324117  10.728  14.603   9.458  0.2042 -0.0254 -0.0219
 2006SAP2    C424118  10.713  14.421   9.416  0.1733 -0.6054 -0.2191
 2006SAP2   PO424119  10.728  14.139   9.043 -0.2290  0.0440 -0.0054
 2006SAP2    P424120  10.592  14.704   9.712 -0.1529 -0.0454 -0.1338
 2006SAP2    P524121  10.599  14.242   9.798 -0.1953  0.2332  0.0920
 2006SAP2   GL124122  10.815  14.103   8.680 -0.0491  0.1412 -0.4198
 2006SAP2   GL224123  10.647  14.249   8.507 -0.1450 -0.0381 -0.3484
 2006SAP2   D1A24124  10.806  13.740   8.429 -0.2406 -0.0222 -0.0751
 2006SAP2   D2A24125  10.749  13.386   8.127 -0.1042  0.0582 -0.0909
 2006SAP2   D3A24126  10.750  13.482   7.676  0.0859  0.0190  0.0194
 2006SAP2   D4A24127  10.580  13.147   7.515  0.0550  0.0136 -0.1662
 2006SAP2   C5A24128  10.877  12.841   7.599  0.0884  0.1080 -0.1393
 2006SAP2   C1B24129  10.621  14.295   8.049  0.2935  0.2992 -0.0674
 2006SAP2   C2B24130  10.526  14.442   7.633 -0.0880  0.3630  0.2276
 2006SAP2   C3B24131  10.353  14.738   7.316 -0.0694 -0.1465  0.0122
 2006SAP2   C4B24132  10.301  14.868   6.906 -0.3011  0.1887 -0.1833
 2007SAP2    C124133   3.608   2.831  10.033 -0.3731 -0.5201 -0.0623
 2007SAP2    C224134   3.387   2.921   9.892 -0.0763  0.4074 -0.0065
 2007SAP2    C324135   3.418   2.925  10.227  0.0174  0.2397 -0.0116
 2007SAP2    C424136   3.471   2.892  10.051 -0.6512 -0.9016  0.1709
 2007SAP2   PO424137   3.891   2.870   9.965 -0.1525 -0.0144  0.1589
 2007SAP2    P424138   3.151   2.976  10.352  0.2255  0.0633 -0.0960
 2007SAP2    P524139   3.113   2.752   9.895  0.1039  0.1652 -0.2074
 2007SAP2   GL124140   4.004   2.926   9.698  0.2291 -0.2237  0.1301
 2007SAP2   GL224141   4.229   2.755   9.535  0.3768  0.0200 -0.0000
 2007SAP2   D1A24142   4.085   3.198   9.303  0.2363 -0.0057  0.1508
 2007SAP2   D2A24143   3.966   3.154   8.839  0.3085 -0.2415 -0.0776
 2007SAP2   D3A24144   4.059   3.602   8.860  0.0053  0.2857 -0.1729
 2007SAP2   D4A24145   4.319   3.344   8.562  0.2324  0.0454 -0.3228
 2007SAP2   C5A24146   4.228   3.706   8.234  0.2074  0.1114 -0.0517
 2007SAP2   C1B24147   4.543   3.077   9.576 -0.2809 -0.1486 -0.0404
 2007SAP2   C2B24148   4.878   3.197   9.295  0.0553 -0.1922  0.0271
 2007SAP2   C3B24149   5.036   3.468   8.911 -0.0454 -0.0203  0.0199
 2007SAP2   C4B24150   5.146   3.613   8.475 -0.1976 -0.0349  0.1399
 2008SAP2    C124151   4.528   1.665   9.998 -0.0561 -0.0857  0.1271
 2008SAP2    C224152   4.285   1.692  10.128 -0.1119  0.2583 -0.0359
 2008SAP2    C324153   4.562   1.870  10.195  0.0996 -0.1237  0.1411
 2008SAP2    C424154   4.458   1.742  10.107 -0.1469 -0.3136 -0.4780
 2008SAP2   PO424155   4.341   1.605   9.689  0.3408 -0.0762 -0.3020
 2008SAP2    P424156   4.405   2.046  10.465 -0.0113  0.1972 -0.0881
 2008SAP2    P524157   4.161   1.596  10.320  0.0250  0.3301 -0.2087
 2008SAP2   GL124158   4.327   1.735   9.426 -0.1529 -0.0262 -0.1022
 2008SAP2   GL224159   4.079   1.732   9.323  0.1360 -0.0394  0.2845
 2008SAP2   D1A24160   4.390   1.922   8.955  0.0883 -0.5303 -0.2771
 2008SAP2   D2A24161   4.327   1.565   8.621  0.3270 -0.0524  0.0384
 2008SAP2   D3A24162   4.297   1.584   8.156 -0.2201  0.0492  0.0742
 2008SAP2   D4A24163   4.432   1.281   7.884  0.3971  0.1932  0.0442
 2008SAP2   C5A24164   4.583   1.559   7.541 -0.1766  0.2407 -0.2985
 2008SAP2   C1B24165   3.931   1.741   8.864  0.0590  0.0142 -0.4256
 2008SAP2   C2B24166   3.821   1.854   8.474 -0.1436  0.2502  0.1879
 2008SAP2   C3B24167   3.839   1.896   8.092 -0.0586  0.1704  0.0269
 2008SAP2   C4B24168   3.667   1.938   7.675 -0.0392  0.1104  0.1912
 2009SAP2    C124169   4.835   8.205  10.504  0.1709  0.5171  0.0853
 2009SAP2    C224170   4.676   8.176  10.729  0.1102  0.0808 -0.0034
 2009SAP2    C324171   4.585   8.331  10.444  0.0312  0.2617  0.1184
 2009SAP2    C424172   4.699   8.237  10.559 -0.2816  0.5782  0.6210
 2009SAP2   PO424173   4.984   7.909  10.512  0.1683 -0.0632  0.0458
 2009SAP2    P424174   4.360   8.461  10.601  0.0705  0.0319 -0.2268
 2009SAP2    P524175   4.573   8.373  10.922 -0.1809  0.0045  0.2768
 2009SAP2   GL124176   5.098   7.771  10.227 -0.0903  0.0863  0.0371
 2009SAP2   GL224177   5.181   8.051  10.107 -0.1924  0.1260 -0.2345
 2009SAP2   D1A24178   5.263   7.348  10.102  0.0206 -0.2813  0.1366
 2009SAP2   D2A24179   5.367   7.323   9.626 -0.3453 -0.0117 -0.0961
 2009SAP2   D3A24180   5.506   6.929   9.713  0.0577 -0.0113 -0.1884
 2009SAP2   D4A24181   5.806   6.674   9.733  0.0708 -0.0617 -0.2488
 2009SAP2   C5A24182   5.915   6.582   9.338 -0.0417 -0.0467  0.0297
 2009SAP2   C1B24183   5.509   7.766   9.850  0.0399 -0.3244  0.0210
 2009SAP2   C2B24184   5.695   7.943   9.503 -0.0696 -0.0654 -0.3692
 2009SAP2   C3B24185   6.035   8.020   9.254 -0.1494  0.2362 -0.2291
 2009SAP2   C4B24186   6.462   7.815   9.252  0.0496  0.1806  0.0277
 2010SAP2    C124187   6.950  13.607   3.941 -0.0004  0.6064 -0.2591
 2010SAP2    C224188   6.917  13.454   3.712 -0.1948 -0.1561  0.2406
 2010SAP2    C324189   7.210  13.573   3.825  0.0082 -0.3723 -0.0426
 2010SAP2    C424190   7.025  13.545   3.826  0.2325 -0.1456 -0.0569
 2010SAP2   PO424191   6.806  13.470   4.173 -0.0848 -0.3688  0.3537
 2010SAP2    P424192   7.384  13.418   3.544  0.0468  0.1960  0.2048
 2010SAP2    P524193   6.949  13.531   3.429 -0.1510  0.0023  0.1325
 2010SAP2   GL124194   6.967  13.535   4.357  0.1404 -0.2018 -0.1168
 2010SAP2   GL224195   7.093  13.702   4.544  0.1567 -0.2857 -0.1657
 2010SAP2   D1A24196   6.527  13.461   4.566 -0.1987  0.1431  0.1412
 2010SAP2   D2A24197   6.190  13.825   4.535 -0.2429  0.3623 -0.1846
 2010SAP2   D3A24198   6.322  13.941   4.993  0.3573  0.1038 -0.0142
 2010SAP2   D4A24199   6.159  14.111   5.388  0.0224  0.0314  0.2791
 2010SAP2   C5A24200   5.864  14.357   5.244 -0.0777 -0.1007  0.0611
 2010SAP2   C1B24201   7.234  13.747   4.997  0.1340  0.1893  0.0905
 2010SAP2   C2B24202   7.021  13.796   5.415  0.0622 -0.1137 -0.0857
 2010SAP2   C3B24203   7.156  13.974   5.786  0.1707  0.1871  0.1668
 2010SAP2   C4B24204   6.985  14.257   6.136 -0.1247  0.4007  0.1061
 2011SAP2    C124205  11.410  12.443   4.477 -0.3482 -0.0340 -0.0358
 2011SAP2    C224206  11.207  12.312   4.342 -0.2791 -0.0777 -0.0983
 2011SAP2    C324207  11.521  12.352   4.229 -0.3025  0.1542 -0.0854
 2011SAP2    C424208  11.379  12.369   4.349 -0.6126 -0.3959 -0.2641
 2011SAP2   PO424209  11.393  12.374   4.810  0.3094 -0.0514 -0.0616
 2011SAP2    P424210  11.577  12.133   4.008 -0.2339  0.0246  0.0595
 2011SAP2    P524211  11.075  12.284   4.124  0.0352 -0.0960  0.2171
 2011SAP2   GL124212  11.516  12.670   5.073 -0.1712 -0.3868 -0.1026
 2011SAP2   GL224213  11.443  12.465   5.266  0.1330 -0.0531 -0.0814
 2011SAP2   D1A24214  11.214  12.894   5.393  0.3515 -0.1545 -0.0519
 2011SAP2   D2A24215  11.030  13.271   5.487  0.1189 -0.2910  0.2336
 2011SAP2   D3A24216  11.004  13.043   5.868  0.3790 -0.0466  0.3586
 2011SAP2   D4A24217  10.830  13.447   5.922 -0.1748 -0.0519 -0.3331
 2011SAP2   C5A24218  10.721  13.561   6.388  0.0985  0.1521 -0.0438
 2011SAP2   C1B24219  11.618  12.655   5.604 -0.0658 -0.1977  0.1460
 2011SAP2   C2B24220  11.977  12.931   5.785  0.2111 -0.3297  0.3264
 2011SAP2   C3B24221  12.119  12.816   6.203  0.0867  0.1630 -0.2138
 2011SAP2   C4B24222  12.006  12.917   6.660 -0.1212  0.0728  0.0643
 2012SAP2    C124223   7.398   4.468   7.149  0.1377  0.0630  0.1938
 2012SAP2    C224224   7.531   4.364   6.930  0.2979  0.2390  0.2046
 2012SAP2    C324225   7.601   4.657   7.079 -0.1052  0.3387  0.2107
 2012SAP2    C424226   7.510   4.496   7.053  0.1343  0.1096 -0.2152
 2012SAP2   PO424227   7.264   4.285   7.448 -0.2968  0.0580  0.2408
 2012SAP2    P424228   7.815   4.736   6.830  0.0871 -0.4275  0.1154
 2012SAP2    P524229   7.547   4.330   6.602  0.0751  0.0611 -0.1587
 2012SAP2   GL124230   7.004   4.321   7.298  0.0117 -0.1043 -0.0504
 2012SAP2   GL224231   6.823   4.446   7.565  0.1411  0.0504 -0.1833
 2012SAP2   D1A24232   6.915   3.911   7.557 -0.1582 -0.1797 -0.0394
 2012SAP2   D2A24233   6.863   3.683   7.929  0.0500  0.1873 -0.0251
 2012SAP2   D3A24234   7.101   3.439   7.540  0.3270  0.0080 -0.0172
 2012SAP2   D4A24235   6.678   3.286   7.586  0.1122  0.1616  0.0641
 2012SAP2   C5A24236   6.398   3.638   7.696 -0.2378 -0.0385  0.1983
 2012SAP2   C1B24237   6.470   4.461   7.864  0.1552 -0.3236  0.1742
 2012SAP2   C2B24238   6.016   4.615   7.970  0.0296  0.0912  0.0475
 2012SAP2   C3B24239   5.947   4.790   8.417 -0.1161 -0.2998  0.1440
 2012SAP2   C4B24240   6.282   5.090   8.629  0.2825 -0.0985  0.1259
 2013SAP2    C124241   9.403   8.916   6.173  0.1417 -0.2993 -0.0174
 2013SAP2    C224242   9.400   9.032   5.922 -0.1491  0.2086  0.2037
 2013SAP2    C324243   9.362   8.704   5.985 -0.4595  0.1154 -0.3905
 2013SAP2    C424244   9.389   8.884   6.027 -0.4494 -0.3262  0.0671
 2013SAP2   PO424245   9.284   9.152   6.354 -0.1756  0.1321 -0.1742
 2013SAP2    P424246   9.306   8.605   5.741 -0.0572  0.1817  0.1278
 2013SAP2    P524247   9.615   9.050   5.709 -0.0377  0.1746 -0.0718
 2013SAP2   GL124248   9.415   9.350   6.488 -0.4892  0.2383  0.0525
 2013SAP2   GL224249   9.122   9.293   6.713 -0.0218  0.1910  0.3493
 2013SAP2   D1A24250   9.448   9.716   6.709 -0.0462  0.3755 -0.1198
 2013SAP2   D2A24251   9.467  10.193   6.711 -0.4233 -0.1407  0.2339
 2013SAP2   D3A24252   9.371  10.342   7.078  0.2726  0.0730 -0.0210
 2013SAP2   D4A24253   9.077  10.471   6.733  0.0042 -0.1600  0.2604
 2013SAP2   C5A24254   8.822  10.874   6.848  0.0309 -0.3195  0.0743
 2013SAP2   C1B24255   9.126   9.502   7.097 -0.0947 -0.3473 -0.1075
 2013SAP2   C2B24256   9.446   9.831   7.183 -0.0299 -0.2842  0.0180
 2013SAP2   C3B24257   9.597  10.158   7.563 -0.1375  0.0560  0.3117
 2013SAP2   C4B24258   9.755  10.307   7.933 -0.1871 -0.0544  0.0916
 2014SAP2    C124259   8.922   7.705   6.796 -0.0922  0.0165  0.0621
 2014SAP2    C224260   9.060   7.535   6.965 -0.1138  0.2189  0.2883
 2014SAP2    C324261   8.931   7.449   6.667  0.1017 -0.0896  0.2791
 2014SAP2    C424262   8.971   7.563   6.809  0.0429 -0.5194  0.0342
 2014SAP2   PO424263   9.083   7.986   6.722 -0.2420 -0.1609 -0.2870
 2014SAP2    P424264   8.996   7.179   6.643 -0.0488  0.0109 -0.0156
 2014SAP2    P524265   9.043   7.300   7.127  0.0511  0.2823  0.1173
 2014SAP2   GL124266   9.248   8.148   6.887 -0.1200 -0.0095  0.0874
 2014SAP2   GL224267   9.387   8.433   6.794 -0.2035  0.2248  0.1318
 2014SAP2   D1A24268   9.145   8.302   7.346  0.1424  0.1035  0.2392
 2014SAP2   D2A24269   9.280   8.755   7.419 -0.0842  0.1595  0.0428
 2014SAP2   D3A24270   9.680   8.453   7.311 -0.0409  0.3022 -0.0371
 2014SAP2   D4A24271  10.030   8.619   7.142 -0.1927 -0.1986  0.2860
 2014SAP2   C5A24272  10.016   8.689   7.589 -0.1305  0.1243 -0.0390
 2014SAP2   C1B24273   9.105   8.818   6.867  0.0401  0.1178  0.1566
 2014SAP2   C2B24274   8.929   9.041   7.193 -0.0878  0.0624  0.1322
 2014SAP2   C3B24275   8.524   9.148   7.408 -0.0691  0.1435 -0.0322
 2014SAP2   C4B24276   8.349   9.253   7.821  0.1247 -0.0409 -0.3645
 2015SAP2    C124277  11.809   5.913   7.429 -0.1422  0.0629  0.0423
 2015SAP2    C224278  11.717   6.152   7.323 -0.0839  0.1495  0.1845
 2015SAP2    C324279  11.523   5.902   7.436 -0.1460  0.2311  0.2602
 2015SAP2    C424280  11.683   5.989   7.396 -0.7503 -0.1370  0.3411
 2015SAP2   PO424281  12.096   5.945   7.561  0.3291 -0.3038  0.2013
 2015SAP2    P424282  11.168   5.995   7.414 -0.1797 -0.0215 -0.0952
 2015SAP2    P524283  11.620   6.211   7.125  0.1724  0.2090  0.0164
 2015SAP2   GL124284  12.235   5.649   7.451 -0.3752 -0.1648 -0.0520
 2015SAP2   GL224285  12.356   5.534   7.688 -0.0345 -0.1961  0.2033
 2015SAP2   D1A24286  12.685   5.620   7.305  0.0716 -0.0037  0.2094
 2015SAP2   D2A24287  12.942   5.795   7.617 -0.0434  0.0000  0.1277
 2015SAP2   D3A24288  12.540   5.981   7.770  0.1463 -0.0038 -0.2800
 2015SAP2   D4A24289  12.799   6.390   7.847  0.1830  0.2336  0.0100
 2015SAP2   C5A24290  12.951   6.050   8.126 -0.0608  0.1779 -0.0699
 2015SAP2   C1B24291  12.674   5.533   7.993  0.4135  0.0881  0.0235
 2015SAP2   C2B24292  13.079   5.608   8.077  0.0829  0.0511  0.1245
 2015SAP2   C3B24293  13.274   5.763   8.450 -0.3040  0.2654  0.0723
 2015SAP2   C4B24294  13.678   5.694   8.609 -0.0484  0.0411 -0.2616
 2016SAP2    C124295  11.340   1.094   4.941 -0.1547 -0.3842 -0.1551
 2016SAP2    C224296  11.071   1.100   4.877 -0.1721  0.0532 -0.0708
 2016SAP2    C324297  11.323   1.127   4.657 -0.2089  0.2196 -0.0941
 2016SAP2    C424298  11.245   1.107   4.825 -0.1678 -0.2647 -0.4424
 2016SAP2   PO424299  11.354   0.848   5.220  0.0940  0.1586 -0.0547
 2016SAP2    P424300  11.191   1.038   4.399 -0.2061  0.0682 -0.1951
 2016SAP2    P524301  10.865   1.272   4.690 -0.0249 -0.0871  0.0137
 2016SAP2   GL124302  11.347   1.036   5.447  0.0529  0.2230 -0.0758
 2016SAP2   GL224303  11.580   0.898   5.562  0.2198  0.2160 -0.0290
 2016SAP2   D1A24304  10.990   0.729   5.630 -0.0468  0.0873 -0.2797
 2016SAP2   D2A24305  10.591   0.481   5.551 -0.0678  0.2190 -0.1356
 2016SAP2   D3A24306  10.444   0.075   5.476  0.0153 -0.0896  0.0699
 2016SAP2   D4A24307  10.097  -0.197   5.567 -0.0758  0.3466 -0.1393
 2016SAP2   C5A24308   9.641  -0.291   5.445  0.1697  0.1092 -0.0098
 2016SAP2   C1B24309  11.436   0.572   5.885  0.1613 -0.0760 -0.2723
 2016SAP2   C2B24310  11.263   0.276   6.195  0.2906 -0.1381  0.2362
 2016SAP2   C3B24311  11.351  -0.062   6.479  0.1483 -0.1616 -0.3291
 2016SAP2   C4B24312  11.146   0.030   6.900  0.2325 -0.1479  0.0898
 2017SAP2    C124313  10.044   5.265  11.181 -0.0619  0.0296 -0.0513
 2017SAP2    C224314  10.065   5.440  10.967 -0.4584 -0.0174 -0.1362
 2017SAP2    C324315  10.136   5.515  11.286  0.2666  0.0155 -0.2873
 2017SAP2    C424316  10.082   5.407  11.145  0.2260  0.1313 -0.1876
 2017SAP2   PO424317  10.132   4.964  11.056 -0.1603 -0.2393 -0.2208
 2017SAP2    P424318  10.187   5.850  11.212  0.0957 -0.1720  0.0841
 2017SAP2    P524319   9.958   5.621  10.756  0.0595 -0.0695 -0.2333
 2017SAP2   GL124320  10.369   4.805  11.267  0.0578  0.3780  0.0217
 2017SAP2   GL224321  10.303   4.654  11.466 -0.0037  0.0837  0.0074
 2017SAP2   D1A24322  10.741   4.446  11.196 -0.3947 -0.1916 -0.1651
 2017SAP2   D2A24323  11.052   4.571  11.485  0.0867 -0.0406 -0.0327
 2017SAP2   D3A24324  11.363   4.490  11.159  0.0549  0.1027  0.0019
 2017SAP2   D4A24325  11.471   4.056  11.021 -0.2958 -0.3372  0.1115
 2017SAP2   C5A24326  11.225   4.014  11.426 -0.1566 -0.4345  0.2280
 2017SAP2   C1B24327  10.162   4.214  11.405 -0.1342 -0.2266  0.0314
 2017SAP2   C2B24328   9.844   4.027  11.098  0.0673 -0.0200  0.0668
 2017SAP2   C3B24329   9.407   4.119  11.039  0.3468  0.0782  0.0036
 2017SAP2   C4B24330   8.920   4.014  10.914  0.1524  0.2793 -0.0609
 2018SAP2    C124331   4.140  11.670   3.791 -0.0771 -0.0076  0.2912
 2018SAP2    C224332   3.909  11.815   3.743 -0.0169 -0.1166 -0.4476
 2018SAP2    C324333   3.968  11.503   3.634  0.3459 -0.2358  0.0542
 2018SAP2    C424334   4.006  11.663   3.723 -0.7795  0.3046  0.0329
 2018SAP2   PO424335   4.182  11.744   4.128  0.0184 -0.4322 -0.1126
 2018SAP2    P424336   3.757  11.348   3.579  0.1020 -0.1948 -0.1136
 2018SAP2    P524337   3.736  11.976   3.557 -0.2108  0.1178 -0.0600
 2018SAP2   GL124338   4.117  11.575   4.401  0.2509 -0.1510  0.0532
 2018SAP2   GL224339   3.997  11.766   4.586  0.0321 -0.0403 -0.4585
 2018SAP2   D1A24340   4.202  11.277   4.759 -0.4755 -0.2723 -0.0471
 2018SAP2   D2A24341   3.968  10.921   4.927 -0.3190 -0.4411 -0.3158
 2018SAP2   D3A24342   4.041  11.224   5.311  0.3101  0.1737  0.0310
 2018SAP2   D4A24343   3.752  11.137   5.701 -0.1483  0.0884  0.1815
 2018SAP2   C5A24344   3.308  11.200   5.770  0.0181 -0.3163 -0.0912
 2018SAP2   C1B24345   3.988  12.073   4.930 -0.0869  0.0157 -0.0991
 2018SAP2   C2B24346   3.914  12.432   5.165 -0.0109  0.0066 -0.1146
 2018SAP2   C3B24347   4.117  12.813   5.254 -0.2019  0.0727  0.3765
 2018SAP2   C4B24348   4.030  13.278   5.485  0.0781  0.0932  0.2066
 2019SAP2    C124349   5.047   6.894   5.268  0.0962 -0.0131  0.3020
 2019SAP2    C224350   5.167   7.004   5.044  0.5081 -0.3100  0.3641
 2019SAP2    C324351   4.869   6.850   5.048  0.1651  0.3134  0.1752
 2019SAP2    C424352   5.028   6.916   5.120 -0.1774  0.3646  0.6457
 2019SAP2   PO424353   5.100   7.041   5.526 -0.0479 -0.3385 -0.0309
 2019SAP2    P424354   4.788   6.823   4.740  0.0374  0.1742 -0.1843
 2019SAP2    P524355   5.265   6.841   4.767  0.2146  0.2849 -0.1258
 2019SAP2   GL124356   4.912   7.133   5.822  0.2087  0.3416 -0.1866
 2019SAP2   GL224357   4.954   7.404   5.791  0.3046 -0.0675  0.0424
 2019SAP2   D1A24358   4.460   6.913   5.880 -0.0346 -0.0041 -0.0946
 2019SAP2   D2A24359   4.798   6.602   5.904  0.1119 -0.0699  0.2035
 2019SAP2   D3A24360   5.134   6.484   6.239 -0.0873 -0.0343 -0.0078
 2019SAP2   D4A24361   4.708   6.597   6.397 -0.0434 -0.1928 -0.1601
 2019SAP2   C5A24362   4.525   6.227   6.233  0.2410  0.0983 -0.1411
 2019SAP2   C1B24363   4.707   7.551   6.096  0.2533 -0.1346 -0.0361
 2019SAP2   C2B24364   4.489   7.528   6.477 -0.1884 -0.0105 -0.0570
 2019SAP2   C3B24365   4.330   7.529   6.986 -0.1112 -0.5262  0.0112
 2019SAP2   C4B24366   4.189   7.721   7.389 -0.1655 -0.1446 -0.1091
 2020SAP2    C124367  11.673  11.354   4.488  0.0241 -0.0913  0.2229
 2020SAP2    C224368  11.770  11.309   4.233 -0.1006  0.1330  0.1329
 2020SAP2    C324369  11.445  11.324   4.317 -0.0600  0.0960  0.2993
 2020SAP2    C424370  11.629  11.329   4.346 -0.2062  0.2358 -0.7541
 2020SAP2   PO424371  11.846  11.580   4.624  0.0743 -0.2197  0.0960
 2020SAP2    P424372  11.203  11.313   4.113  0.0862  0.2824  0.0997
 2020SAP2    P524373  11.690  11.198   3.966 -0.1717  0.0380 -0.0420
 2020SAP2   GL124374  11.777  11.846   4.922 -0.3426 -0.0751  0.0217
 2020SAP2   GL224375  11.492  11.886   4.869  0.1664  0.0491  0.1569
 2020SAP2   D1A24376  11.974  11.881   5.364 -0.0610 -0.1309 -0.1418
 2020SAP2   D2A24377  12.047  11.465   5.623 -0.0786  0.1204  0.0348
 2020SAP2   D3A24378  11.851  11.113   5.628 -0.1223 -0.1175  0.0118
 2020SAP2   D4A24379  11.979  11.106   6.110  0.2638  0.0076  0.3510
 2020SAP2   C5A24380  12.199  11.346   6.390 -0.0643  0.2160 -0.0536
 2020SAP2   C1B24381  11.507  11.891   5.342  0.0110  0.4138 -0.2006
 2020SAP2   C2B24382  11.654  12.117   5.755 -0.2110 -0.1482  0.0447
 2020SAP2   C3B24383  11.663  12.426   6.131 -0.1297 -0.1103 -0.1163
 2020SAP2   C4B24384  11.611  12.638   6.531 -0.1308 -0.1463 -0.2264
 2021SAP2    C124385   6.335   4.450   6.204 -0.1036 -0.2054  0.0672
 2021SAP2    C224386   6.198   4.453   5.963 -0.1712 -0.2091  0.1053
 2021SAP2    C324387   6.349   4.718   6.104 -0.1157 -0.2112  0.0500
 2021SAP2    C424388   6.294   4.540   6.090  0.1160  0.4628  0.5336
 2021SAP2   PO424389   6.530   4.172   6.267  0.2311 -0.0813  0.0745
 2021SAP2    P424390   6.366   4.903   5.905 -0.0580  0.2879  0.0073
 2021SAP2    P524391   6.186   4.508   5.690 -0.1493  0.0198 -0.0480
 2021SAP2   GL124392   6.364   4.127   6.518  0.1481 -0.2381 -0.1537
 2021SAP2   GL224393   6.175   4.338   6.585  0.0600 -0.3128 -0.1894
 2021SAP2   D1A24394   6.276   3.891   6.929  0.0047  0.4100 -0.3441
 2021SAP2   D2A24395   6.645   3.722   7.168  0.0699  0.2243 -0.2319
 2021SAP2   D3A24396   6.330   3.335   7.255  0.0892  0.1754 -0.1229
 2021SAP2   D4A24397   5.963   3.544   7.377  0.2048  0.0548 -0.2940
 2021SAP2   C5A24398   6.016   3.305   7.803  0.0078  0.2029  0.1545
 2021SAP2   C1B24399   5.955   4.388   7.011  0.3190 -0.1443  0.2362
 2021SAP2   C2B24400   5.743   4.333   7.398  0.3490  0.1766  0.2373
 2021SAP2   C3B24401   5.590   3.993   7.702 -0.1703 -0.2037 -0.1749
 2021SAP2   C4B24402   5.700   3.652   7.989 -0.0346  0.0099  0.1895
 2022SAP2    C124403  11.637   4.816   7.082 -0.2344 -0.0851 -0.1279
 2022SAP2    C224404  11.478   5.008   6.961 -0.1298  0.1357  0.0781
 2022SAP2    C324405  11.379   4.801   7.206 -0.2790 -0.1658 -0.2287
 2022SAP2    C424406  11.498   4.875   7.083  0.4213  0.1470 -1.0727
 2022SAP2   PO424407  11.886   5.048   7.060  0.1944 -0.0365  0.0358
 2022SAP2    P424408  11.092   4.926   7.232  0.0316 -0.3185 -0.0567
 2022SAP2    P524409  11.276   5.113   6.824 -0.1090 -0.0429 -0.1902
 2022SAP2   GL124410  12.025   4.842   7.355 -0.1916  0.3334 -0.0512
 2022SAP2   GL224411  12.160   5.125   7.451  0.1226 -0.0329 -0.1726
 2022SAP2   D1A24412  12.049   4.646   7.779 -0.2514 -0.1895  0.1560
 2022SAP2   D2A24413  12.190   4.228   7.700  0.2142  0.0651  0.1479
 2022SAP2   D3A24414  12.535   4.598   7.780  0.2105  0.1707  0.0659
 2022SAP2   D4A24415  12.549   4.277   8.125  0.0777 -0.3059 -0.1314
 2022SAP2   C5A24416  12.902   4.090   7.886 -0.1276  0.0481  0.1326
 2022SAP2   C1B24417  12.622   4.997   7.354 -0.1158  0.2793  0.2063
 2022SAP2   C2B24418  13.040   4.868   7.450 -0.2297 -0.2651  0.0813
 2022SAP2   C3B24419  13.091   4.568   7.788  0.0790 -0.0689  0.0023
 2022SAP2   C4B24420  13.420   4.338   7.850 -0.1351 -0.2143  0.0137
 2023SAP2    C124421   0.464  15.005  15.990  0.1572  0.0481  0.1745
 2023SAP2    C224422   0.670  15.154  15.880  0.0972 -0.0411 -0.0649
 2023SAP2    C324423   0.350  15.157  15.775  0.0682 -0.2368  0.0144
 2023SAP2    C424424   0.495  15.106  15.882 -0.1555 -0.0622 -0.4765
 2023SAP2   PO424425   0.518  14.961  16.327 -0.1048 -0.0464  0.0931
 2023SAP2    P424426   0.353  15.313  15.568  0.0464  0.2906  0.1147
 2023SAP2    P524427   0.754  15.101  15.545 -0.0577 -0.1667  0.0298
 2023SAP2   GL124428   0.272  15.024  16.527 -0.2366 -0.3675 -0.0553
 2023SAP2   GL224429   0.199  14.755  16.654 -0.2599  0.0531  0.2585
 2023SAP2   D1A24430   0.586  15.046  16.866 -0.1398 -0.1413 -0.4085
 2023SAP2   D2A24431   0.295  14.906  17.187 -0.1350 -0.2427 -0.2217
 2023SAP2   D3A24432   0.111  15.006  17.598  0.0369 -0.2439  0.2120
 2023SAP2   D4A24433   0.425  15.193  17.873 -0.1052  0.2057 -0.0240
 2023SAP2   C5A24434   0.553  15.637  17.993  0.0242 -0.0662  0.0498
 2023SAP2   C1B24435  -0.133  14.640  16.995  0.1685  0.1177  0.0315
 2023SAP2   C2B24436  -0.263  14.689  17.469  0.2720 -0.0857 -0.2335
 2023SAP2   C3B24437  -0.380  14.684  17.926 -0.4890 -0.1856  0.1191
 2023SAP2   C4B24438  -0.500  15.049  18.219  0.3656 -0.0225 -0.2383
 2024SAP2    C124439  14.751   5.646  11.444  0.0501  0.0695 -0.0631
 2024SAP2    C224440  14.985   5.644  11.591  0.1089  0.0609 -0.1559
 2024SAP2    C324441  14.967   5.649  11.256 -0.0219 -0.1767 -0.1542
 2024SAP2    C424442  14.901   5.646  11.430 -1.1544  0.3402  0.1227
 2024SAP2   PO424443  14.538   5.876  11.661 -0.0793  0.2540  0.1258
 2024SAP2    P424444  15.303   5.570  11.300  0.1165 -0.1770 -0.0352
 2024SAP2    P524445  15.224   5.495  11.725 -0.3637  0.2147  0.3788
 2024SAP2   GL124446  14.202   5.761  11.783  0.1519 -0.3159 -0.2937
 2024SAP2   GL224447  14.017   5.769  11.568 -0.2245  0.1322  0.2152
 2024SAP2   D1A24448  13.974   6.154  11.924  0.1818  0.3028 -0.0618
 2024SAP2   D2A24449  14.097   5.843  12.277  0.1486 -0.0337  0.0014
 2024SAP2   D3A24450  13.610   5.819  12.316  0.2929  0.2284 -0.1483
 2024SAP2   D4A24451  13.611   5.391  12.461  0.0750 -0.0269 -0.1954
 2024SAP2   C5A24452  13.449   5.259  12.049  0.0464  0.2827 -0.3300
 2024SAP2   C1B24453  13.640   5.653  11.357 -0.0063  0.4258  0.1636
 2024SAP2   C2B24454  13.373   5.264  11.376 -0.0520 -0.0084 -0.0744
 2024SAP2   C3B24455  12.930   5.167  11.235 -0.4460  0.0040  0.1168
 2024SAP2   C4B24456  12.637   4.963  10.863 -0.0937 -0.1314  0.4056
 2025SAP2    C124457   2.398   5.211  15.112  0.3117 -0.2416  0.1900
 2025SAP2    C224458   2.234   5.268  14.896 -0.0329 -0.0722  0.4855
 2025SAP2    C324459   2.457   5.017  14.909  0.1014  0.0005 -0.1125
 2025SAP2    C424460   2.363   5.165  14.972 -0.3579  0.0282 -0.2752
 2025SAP2   PO424461   2.197   5.277  15.345  0.0806  0.1426 -0.1696
 2025SAP2    P424462   2.483   4.999  14.589  0.3905 -0.0574  0.2267
 2025SAP2    P524463   2.235   5.275  14.561 -0.3345  0.2711 -0.1443
 2025SAP2   GL124464   2.381   5.183  15.656  0.1035 -0.0550  0.0249
 2025SAP2   GL224465   2.296   4.912  15.623 -0.0302 -0.0816 -0.1479
 2025SAP2   D1A24466   2.132   5.228  16.050  0.0581 -0.0803 -0.1086
 2025SAP2   D2A24467   2.498   5.483  16.194  0.0733 -0.1170 -0.0910
 2025SAP2   D3A24468   2.455   5.402  16.625 -0.0714  0.1816 -0.5193
 2025SAP2   D4A24469   2.946   5.269  16.643  0.3122  0.1545 -0.4292
 2025SAP2   C5A24470   2.969   5.547  16.282  0.2463 -0.1456 -0.0284
 2025SAP2   C1B24471   2.340   4.781  16.100  0.1454 -0.0793  0.1254
 2025SAP2   C2B24472   2.211   4.610  16.526  0.0129 -0.0160  0.0365
 2025SAP2   C3B24473   1.923   4.576  16.898 -0.0104  0.0989 -0.0982
 2025SAP2   C4B24474   1.843   4.701  17.314 -0.1577  0.0655  0.0635
 2026SAP2    C124475   5.324  10.126   9.988  0.0222 -0.0447  0.3718
 2026SAP2    C224476   5.123   9.980  10.110 -0.1152 -0.1432  0.0379
 2026SAP2    C324477   5.160  10.313  10.129 -0.1387 -0.1548  0.3336
 2026SAP2    C424478   5.202  10.140  10.076  0.2506  0.3364  0.2090
 2026SAP2   PO424479   5.323  10.012   9.675 -0.1944  0.2501 -0.0794
 2026SAP2    P424480   5.035  10.507  10.281  0.0957  0.0834 -0.2577
 2026SAP2    P524481   5.051   9.961  10.456 -0.1729  0.0406  0.0221
 2026SAP2   GL124482   5.427   9.989   9.344 -0.0468 -0.0452 -0.1461
 2026SAP2   GL224483   5.720   9.876   9.334  0.2502  0.0822  0.1728
 2026SAP2   D1A24484   5.157  10.156   9.019  0.2074  0.1143  0.2780
 2026SAP2   D2A24485   4.865   9.822   9.204 -0.0663  0.1184 -0.2804
 2026SAP2   D3A24486   5.202   9.626   8.946 -0.0712  0.2168 -0.1708
 2026SAP2   D4A24487   5.012   9.739   8.581  0.2815 -0.0586  0.2267
 2026SAP2   C5A24488   5.356  10.018   8.424  0.2389  0.1836 -0.2311
 2026SAP2   C1B24489   6.060   9.959   9.039  0.1366  0.0144  0.0777
 2026SAP2   C2B24490   6.314   9.940   8.618 -0.3093 -0.0373 -0.0850
 2026SAP2   C3B24491   6.584   9.814   8.271  0.1253  0.2914 -0.1776
 2026SAP2   C4B24492   6.842   9.516   7.994 -0.0933  0.1358 -0.3744
 2027SAP2    C124493   1.752   6.871  15.218 -0.3922  0.0017  0.2331
 2027SAP2    C224494   1.870   7.001  15.004 -0.0897  0.0408  0.4182
 2027SAP2    C324495   1.555   6.884  15.009 -0.0337 -0.1642 -0.1283
 2027SAP2    C424496   1.726   6.919  15.077 -0.0958 -0.1733 -0.1074
 2027SAP2   PO424497   1.805   6.994  15.515  0.0372  0.1649 -0.1203
 2027SAP2    P424498   1.484   6.942  14.777  0.0942  0.1627 -0.0399
 2027SAP2    P524499   1.954   6.989  14.720 -0.1382 -0.1773 -0.0040
 2027SAP2   GL124500   1.769   6.705  15.831 -0.2816  0.1712 -0.1138
 2027SAP2   GL224501   1.724   6.946  15.919  0.2622  0.3318  0.0121
 2027SAP2   D1A24502   1.786   6.461  16.266  0.0432 -0.1992 -0.2379
 2027SAP2   D2A24503   1.600   6.595  16.705  0.0419 -0.2222 -0.0637
 2027SAP2   D3A24504   1.533   6.538  17.157  0.0276 -0.1858 -0.2098
 2027SAP2   D4A24505   1.886   6.791  17.109 -0.0800 -0.2545  0.2311
 2027SAP2   C5A24506   1.872   6.981  16.639 -0.2166  0.1788  0.1340
 2027SAP2   C1B24507   1.482   6.808  16.244 -0.1597  0.0262  0.1021
 2027SAP2   C2B24508   1.123   6.698  16.585 -0.2256  0.1024 -0.0823
 2027SAP2   C3B24509   1.168   6.799  17.070 -0.1205  0.1656  0.1090
 2027SAP2   C4B24510   1.020   6.738  17.517 -0.4020  0.4290  0.4637
 2028SAP2    C124511  15.979  14.608  15.605  0.2086 -0.2160 -0.2626
 2028SAP2    C224512  16.077  14.856  15.530 -0.0869 -0.0338 -0.0676
 2028SAP2    C324513  15.780  14.728  15.437 -0.1177 -0.1352  0.1634
 2028SAP2    C424514  15.945  14.731  15.524 -1.0373 -0.1360  0.6567
 2028SAP2   PO424515  16.024  14.580  15.906  0.2418 -0.1243  0.3776
 2028SAP2    P424516  15.705  14.930  15.197 -0.0678 -0.2252  0.0468
 2028SAP2    P524517  16.174  14.925  15.277  0.0336 -0.1132 -0.1816
 2028SAP2   GL124518  15.949  14.708  16.145 -0.3427  0.2812 -0.3018
 2028SAP2   GL224519  15.924  14.583  16.454  0.1312  0.0418 -0.0520
 2028SAP2   D1A24520  15.464  14.646  16.272  0.0421  0.0200 -0.0359
 2028SAP2   D2A24521  15.635  15.044  16.357  0.1021  0.0449 -0.0152
 2028SAP2   D3A24522  15.152  15.125  16.362 -0.1000 -0.0960 -0.2004
 2028SAP2   D4A24523  15.303  15.045  16.780  0.0989  0.1758  0.0281
 2028SAP2   C5A24524  15.393  14.651  16.752  0.1136 -0.0697 -0.0772
 2028SAP2   C1B24525  15.864  14.877  16.805 -0.0642 -0.1996 -0.1071
 2028SAP2   C2B24526  15.653  15.095  17.108  0.0730 -0.0301  0.1375
 2028SAP2   C3B24527  15.480  15.410  17.389 -0.1685 -0.1770  0.2296
 2028SAP2   C4B24528  15.349  15.627  17.713  0.0738  0.3418  0.3126
 2029SAP2    C124529   0.431   6.722  15.538 -0.0567 -0.1135 -0.1475
 2029SAP2    C224530   0.173   6.822  15.544 -0.0196 -0.0223  0.3973
 2029SAP2    C324531   0.322   6.688  15.275 -0.5909  0.0173  0.0434
 2029SAP2    C424532   0.309   6.744  15.452  0.3760  0.9368  0.1307
 2029SAP2   PO424533   0.579   6.583  15.810 -0.1794  0.0271 -0.2713
 2029SAP2    P424534   0.134   6.712  15.044 -0.1984 -0.2214 -0.3257
 2029SAP2    P524535   0.064   7.140  15.437 -0.0718 -0.0430  0.1487
 2029SAP2   GL124536   0.471   6.646  16.126 -0.3002  0.0817  0.2335
 2029SAP2   GL224537   0.175   6.646  16.059  0.0822 -0.3112  0.0425
 2029SAP2   D1A24538   0.440   6.623  16.583  0.0295  0.0826 -0.2061
 2029SAP2   D2A24539   0.695   7.006  16.693 -0.1321 -0.3318 -0.2906
 2029SAP2   D3A24540   0.550   7.219  17.042  0.0555 -0.0596 -0.0738
 2029SAP2   D4A24541   0.969   7.205  17.182 -0.0425 -0.0665 -0.0739
 2029SAP2   C5A24542   0.788   7.268  17.616 -0.2164  0.1499 -0.1271
 2029SAP2   C1B24543   0.255   6.268  16.298 -0.1143  0.4631 -0.5927
 2029SAP2   C2B24544   0.057   6.309  16.735 -0.2038 -0.2283  0.3323
 2029SAP2   C3B24545   0.314   6.244  17.124  0.0193 -0.2870  0.0958
 2029SAP2   C4B24546   0.130   6.417  17.541  0.2215  0.1589 -0.1786
 2030SAP2    C124547   7.148  10.500  14.210  0.1038 -0.0217  0.1477
 2030SAP2    C224548   6.885  10.497  14.125  0.1642  0.0408 -0.0471
 2030SAP2    C324549   7.076  10.772  14.156  0.1857  0.0040  0.1655
 2030SAP2    C424550   7.036  10.590  14.164  0.0749  0.2930  0.3645
 2030SAP2   PO424551   7.207  10.164  14.042  0.2610  0.1486 -0.1884
 2030SAP2    P424552   6.843  10.950  14.027 -0.1645 -0.1174 -0.1686
 2030SAP2    P524553   6.619  10.622  14.116 -0.2108 -0.0147 -0.0269
 2030SAP2   GL124554   7.427  10.038  14.301  0.3302  0.0462  0.2629
 2030SAP2   GL224555   7.630  10.089  14.251  0.1944 -0.0910  0.1873
 2030SAP2   D1A24556   7.500   9.882  14.737  0.6278  0.0643  0.0683
 2030SAP2   D2A24557   7.799   9.519  14.800 -0.1455  0.0700 -0.1035
 2030SAP2   D3A24558   7.797   9.517  15.287 -0.2243  0.0973 -0.1447
 2030SAP2   D4A24559   8.218   9.323  15.287 -0.1723  0.1938  0.2395
 2030SAP2   C5A24560   8.326   9.217  15.708  0.2079  0.1975 -0.0249
 2030SAP2   C1B24561   7.977   9.835  14.113  0.3084  0.1586 -0.1254
 2030SAP2   C2B24562   8.092   9.478  14.386  0.0801  0.0367  0.0241
 2030SAP2   C3B24563   7.877   9.105  14.552 -0.0631  0.3156  0.2117
 2030SAP2   C4B24564   8.003   8.806  14.926 -0.3741  0.0468  0.3870
 2031SAP2    C124565   7.231  10.665  14.880  0.2090 -0.0278 -0.1056
 2031SAP2    C224566   7.475  10.738  14.771  0.0539  0.0599 -0.4066
 2031SAP2    C324567   7.232  10.951  14.864  0.0160 -0.0343 -0.2873
 2031SAP2    C424568   7.313  10.785  14.838  0.4227  0.4700  0.5019
 2031SAP2   PO424569   7.333  10.427  15.072 -0.1354 -0.0758 -0.0551
 2031SAP2    P424570   7.359  11.181  14.760  0.0294 -0.0865  0.3908
 2031SAP2    P524571   7.437  10.837  14.463 -0.0304 -0.2411  0.0744
 2031SAP2   GL124572   7.543  10.324  15.267  0.1338  0.4429  0.3211
 2031SAP2   GL224573   7.380  10.313  15.537  0.2025 -0.0589  0.1004
 2031SAP2   D1A24574   7.431   9.869  15.260 -0.0759 -0.3873  0.0888
 2031SAP2   D2A24575   7.285   9.504  15.039 -0.3383  0.0096 -0.1737
 2031SAP2   D3A24576   7.323   9.427  14.627 -0.1169 -0.0669  0.2238
 2031SAP2   D4A24577   7.572   9.349  14.264  0.1909  0.0770 -0.1166
 2031SAP2   C5A24578   7.488   8.900  14.317  0.0988  0.0072 -0.1896
 2031SAP2   C1B24579   7.468   9.900  15.795  0.0351 -0.0063 -0.1689
 2031SAP2   C2B24580   7.546   9.461  15.758 -0.2352  0.1069  0.0334
 2031SAP2   C3B24581   7.824   9.081  15.638 -0.1368  0.0287 -0.2447
 2031SAP2   C4B24582   8.199   8.852  15.412  0.1726  0.0008 -0.1324
 2032SAP2    C124583  12.968   9.610  15.123  0.1817 -0.1000  0.4303
 2032SAP2    C224584  13.066   9.701  14.881 -0.0531 -0.0534  0.3499
 2032SAP2    C324585  13.073   9.873  15.169  0.4389 -0.2009  0.4356
 2032SAP2    C424586  13.035   9.728  15.058  0.7083  0.6147 -0.2295
 2032SAP2   PO424587  13.057   9.286  15.079 -0.2888 -0.3068  0.1094
 2032SAP2    P424588  13.321  10.051  15.029  0.1175 -0.0715  0.0684
 2032SAP2    P524589  13.007   9.901  14.707 -0.2248  0.2279  0.1328
 2032SAP2   GL124590  12.772   9.098  15.184 -0.5033 -0.1850  0.2932
 2032SAP2   GL224591  12.793   8.920  15.031  0.1525  0.2754  0.1825
 2032SAP2   D1A24592  12.496   8.984  15.562  0.0423  0.0982 -0.1724
 2032SAP2   D2A24593  12.784   8.936  15.961 -0.0440  0.1227  0.0128
 2032SAP2   D3A24594  12.458   8.642  16.159 -0.0217  0.1292  0.1079
 2032SAP2   D4A24595  12.403   8.473  15.770  0.1574  0.0274 -0.0408
 2032SAP2   C5A24596  12.086   8.235  16.005 -0.2461 -0.2366 -0.0228
 2032SAP2   C1B24597  12.311   8.850  14.990  0.0879  0.1228  0.1695
 2032SAP2   C2B24598  11.952   8.565  15.023 -0.0116  0.2393  0.3724
 2032SAP2   C3B24599  11.877   8.276  15.396 -0.0173  0.1657 -0.3247
 2032SAP2   C4B24600  11.634   8.248  15.775 -0.1614  0.0867  0.4084
 2033SAP2    C124601   7.941   0.642  13.097 -0.1432 -0.0758  0.1131
 2033SAP2    C224602   8.031   0.395  13.010 -0.4249 -0.1781  0.1021
 2033SAP2    C324603   7.728   0.456  13.142 -0.3165  0.1420  0.2125
 2033SAP2    C424604   7.900   0.498  13.083 -0.4731 -0.5035  0.6210
 2033SAP2   PO424605   8.057   0.854  12.847  0.2703  0.1160  0.0088
 2033SAP2    P424606   7.648   0.132  13.118 -0.0905  0.1955  0.1722
 2033SAP2    P524607   8.116   0.129  13.150 -0.1553  0.0411 -0.0267
 2033SAP2   GL124608   8.066   1.148  12.960  0.2463  0.0397  0.1000
 2033SAP2   GL224609   8.360   1.175  13.002 -0.0095  0.1988  0.0796
 2033SAP2   D1A24610   7.883   1.614  13.005 -0.0618  0.0245 -0.0939
 2033SAP2   D2A24611   7.521   1.631  12.676  0.0153  0.0617 -0.0417
 2033SAP2   D3A24612   7.540   2.028  12.799  0.1290  0.4475  0.0660
 2033SAP2   D4A24613   7.930   2.232  12.695  0.2012  0.0635  0.1695
 2033SAP2   C5A24614   7.940   1.814  12.457  0.0687  0.0476  0.0540
 2033SAP2   C1B24615   8.541   1.500  13.291 -0.1422 -0.0494  0.0551
 2033SAP2   C2B24616   8.700   1.820  13.512  0.1608  0.0175 -0.5201
 2033SAP2   C3B24617   9.086   2.114  13.365  0.1610  0.1978 -0.0126
 2033SAP2   C4B24618   9.177   2.546  13.287 -0.4197  0.1502  0.3590
 2034SAP2    C124619  12.647   1.426  12.934 -0.1096 -0.0269  0.1487
 2034SAP2    C224620  12.913   1.442  12.856  0.0210 -0.1563  0.5442
 2034SAP2    C324621  12.692   1.215  12.745  0.0607 -0.0270  0.1874
 2034SAP2    C424622  12.750   1.361  12.845  0.5806 -0.0148 -0.3648
 2034SAP2   PO424623  12.520   1.693  12.969  0.1936 -0.1681 -0.0849
 2034SAP2    P424624  12.727   1.067  12.517  0.0778 -0.4123  0.5338
 2034SAP2    P524625  13.180   1.281  12.838 -0.2595 -0.0960  0.2219
 2034SAP2   GL124626  12.405   1.944  13.154  0.1152 -0.0223 -0.0085
 2034SAP2   GL224627  12.354   2.129  13.016  0.0138 -0.0115 -0.0365
 2034SAP2   D1A24628  12.414   2.068  13.580  0.6104 -0.0498  0.0644
 2034SAP2   D2A24629  12.501   2.465  13.382  0.0655  0.3811  0.2869
 2034SAP2   D3A24630  12.084   2.462  13.595 -0.1304  0.1912  0.2236
 2034SAP2   D4A24631  11.964   2.081  13.323  0.1172 -0.3146  0.0687
 2034SAP2   C5A24632  11.752   2.107  13.712  0.2380 -0.4261  0.1238
 2034SAP2   C1B24633  12.030   2.504  13.074  0.0779 -0.0691  0.0062
 2034SAP2   C2B24634  11.692   2.534  13.349 -0.0581 -0.0912  0.1141
 2034SAP2   C3B24635  11.353   2.415  13.660 -0.3625 -0.0341  0.3477
 2034SAP2   C4B24636  11.124   2.157  13.915  0.0715  0.0358 -0.1951
 2035SAP2    C124637   3.742  14.464  16.352  0.1777  0.1267  0.1875
 2035SAP2    C224638   3.581  14.683  16.298  0.1789  0.0430 -0.1796
 2035SAP2    C324639   3.626  14.420  16.094  0.5071 -0.1033  0.0722
 2035SAP2    C424640   3.650  14.522  16.248 -0.7962 -0.1159 -0.5598
 2035SAP2   PO424641   3.787  14.443  16.654  0.2369 -0.1972  0.1703
 2035SAP2    P424642   3.456  14.524  15.848 -0.1881 -0.2229 -0.0143
 2035SAP2    P524643   3.631  14.845  16.170  0.0455  0.2631  0.2786
 2035SAP2   GL124644   3.790  14.824  16.823 -0.0046  0.1881 -0.2243
 2035SAP2   GL224645   3.991  14.677  16.974  0.1100 -0.0711  0.1941
 2035SAP2   D1A24646   3.692  15.203  17.089  0.0691 -0.0472 -0.0071
 2035SAP2   D2A24647   3.354  15.193  17.400 -0.0081  0.0661  0.2403
 2035SAP2   D3A24648   3.178  15.627  17.343 -0.0128 -0.0176  0.0057
 2035SAP2   D4A24649   2.984  15.998  17.547 -0.0106  0.0558  0.0972
 2035SAP2   C5A24650   2.974  16.135  17.954  0.0712  0.0564  0.0743
 2035SAP2   C1B24651   3.735  14.645  17.313  0.3229 -0.1735 -0.0750
 2035SAP2   C2B24652   3.670  14.746  17.752 -0.0035 -0.0394  0.2667
 2035SAP2   C3B24653   3.582  14.835  18.227 -0.2519 -0.0789  0.3941
 2035SAP2   C4B24654   3.799  15.013  18.560 -0.2927  0.0178 -0.2627
 2036SAP2    C124655   8.495   5.203  15.991 -0.2623 -0.1648 -0.0901
 2036SAP2    C224656   8.487   5.197  16.267 -0.1418 -0.2895 -0.0878
 2036SAP2    C324657   8.747   5.098  16.079 -0.2562 -0.2886 -0.2487
 2036SAP2    C424658   8.576   5.166  16.112  0.1056  0.4818  0.1655
 2036SAP2   PO424659   8.375   5.490  15.888 -0.2149  0.1256  0.0626
 2036SAP2    P424660   8.955   4.948  16.251 -0.1148  0.1246  0.0781
 2036SAP2    P524661   8.446   4.995  16.411 -0.4113  0.1907  0.1154
 2036SAP2   GL124662   8.237   5.613  15.592  0.0913 -0.0002  0.1568
 2036SAP2   GL224663   8.177   5.886  15.678 -0.1518 -0.1485 -0.0612
 2036SAP2   D1A24664   7.903   5.540  15.270 -0.0415  0.1543  0.4695
 2036SAP2   D2A24665   8.096   5.860  14.951 -0.3190  0.0671 -0.2603
 2036SAP2   D3A24666   7.959   6.288  14.786 -0.0892 -0.1621 -0.5321
 2036SAP2   D4A24667   8.183   6.322  14.357  0.0081 -0.0714  0.1509
 2036SAP2   C5A24668   8.066   6.460  13.868 -0.0690  0.0261  0.0331
 2036SAP2   C1B24669   7.818   5.967  15.416 -0.4682 -0.1912  0.0710
 2036SAP2   C2B24670   7.581   5.985  14.978  0.3755  0.1228  0.2556
 2036SAP2   C3B24671   7.423   6.189  14.597  0.1666 -0.0600 -0.2710
 2036SAP2   C4B24672   7.638   6.483  14.284  0.3072  0.0729  0.1002
 2037SAP2    C124673   2.910   2.796  20.142  0.0976  0.0184 -0.0695
 2037SAP2    C224674   3.183   2.774  20.181  0.1141 -0.4046 -0.3496
 2037SAP2    C324675   2.948   2.666  20.395  0.1590 -0.1048 -0.1413
 2037SAP2    C424676   3.014   2.745  20.239 -0.1529  0.2911 -0.0004
 2037SAP2   PO424677   2.819   2.698  19.810  0.0802 -0.0795 -0.0652
 2037SAP2    P424678   3.004   2.491  20.606  0.0550 -0.1895 -0.0190
 2037SAP2    P524679   3.388   2.887  20.412  0.1908  0.1579  0.1084
 2037SAP2   GL124680   2.916   2.698  19.579 -0.0582 -0.0193  0.5943
 2037SAP2   GL224681   3.086   2.601  19.386 -0.0902  0.0625  0.2182
 2037SAP2   D1A24682   2.617   2.740  19.216  0.0012 -0.0902  0.0757
 2037SAP2   D2A24683   2.978   2.842  18.930 -0.0134  0.1135  0.3130
 2037SAP2   D3A24684   2.701   2.899  18.500  0.0458  0.0529  0.3782
 2037SAP2   D4A24685   2.658   3.360  18.513 -0.0751  0.1598  0.2237
 2037SAP2   C5A24686   2.724   3.565  18.123 -0.1837 -0.1813 -0.0671
 2037SAP2   C1B24687   2.972   2.286  19.054 -0.1119  0.0442  0.0223
 2037SAP2   C2B24688   3.078   1.874  18.801 -0.1627  0.1395  0.1367
 2037SAP2   C3B24689   2.867   1.699  18.377 -0.4541 -0.1331  0.0911
 2037SAP2   C4B24690   2.792   1.295  18.313  0.0840  0.0741 -0.3396
 2038SAP2    C124691  11.763   5.291  18.261  0.0902  0.2947  0.3506
 2038SAP2    C224692  11.530   5.390  18.374 -0.2371 -0.0101 -0.0271
 2038SAP2    C324693  11.640   5.074  18.402 -0.2663 -0.0630 -0.4488
 2038SAP2    C424694  11.644   5.252  18.346  0.1529  0.3843 -0.1855
 2038SAP2   PO424695  12.007   5.474  18.255  0.0531 -0.0278 -0.1172
 2038SAP2    P424696  11.490   4.931  18.652  0.1440 -0.1445  0.1218
 2038SAP2    P524697  11.219   5.253  18.342  0.1412 -0.3289 -0.1393
 2038SAP2   GL124698  12.207   5.390  18.004  0.1454  0.2424  0.0304
 2038SAP2   GL224699  12.009   5.415  17.810  0.2039  0.0637  0.1239
 2038SAP2   D1A24700  12.368   5.120  17.638 -0.1667 -0.1569  0.0981
 2038SAP2   D2A24701  12.032   5.163  17.296 -0.2316 -0.0643 -0.1808
 2038SAP2   D3A24702  11.982   5.282  16.835  0.1470  0.1947 -0.1591
 2038SAP2   D4A24703  12.151   5.636  16.603  0.1954 -0.0307 -0.2677
 2038SAP2   C5A24704  12.449   5.313  16.615  0.2611  0.1825  0.1331
 2038SAP2   C1B24705  12.364   5.717  17.638  0.0474  0.2249 -0.1944
 2038SAP2   C2B24706  12.685   5.516  17.382 -0.0530  0.0215  0.1527
 2038SAP2   C3B24707  13.051   5.664  17.163  0.2060 -0.1025 -0.0539
 2038SAP2   C4B24708  13.412   5.803  17.015 -0.0532  0.2572 -0.1238
 2039SAP2    C124709   2.765   6.489  19.582  0.0032  0.0568 -0.1017
 2039SAP2    C224710   2.695   6.376  19.825  0.1228  0.2215  0.0112
 2039SAP2    C324711   2.594   6.266  19.524 -0.0174  0.0092  0.1333
 2039SAP2    C424712   2.685   6.377  19.644 -0.8128  0.8325 -0.1807
 2039SAP2   PO424713   3.095   6.548  19.646  0.2355 -0.3539 -0.2853
 2039SAP2    P424714   2.461   6.003  19.607  0.0201 -0.2109  0.0295
 2039SAP2    P524715   2.523   6.205  20.004  0.4744 -0.3788 -0.0157
 2039SAP2   GL124716   3.258   6.571  19.328 -0.1150  0.0523 -0.1910
 2039SAP2   GL224717   3.487   6.447  19.216  0.1404 -0.2121 -0.0096
 2039SAP2   D1A24718   2.889   6.839  19.272  0.3106  0.2940  0.1220
 2039SAP2   D2A24719   3.151   6.749  18.902  0.1594  0.0357 -0.0827
 2039SAP2   D3A24720   3.129   7.180  18.848  0.0350  0.0416  0.0436
 2039SAP2   D4A24721   3.416   7.044  19.190  0.1004  0.0740 -0.2412
 2039SAP2   C5A24722   3.698   7.218  18.866 -0.0851 -0.1618 -0.1361
 2039SAP2   C1B24723   3.340   6.339  18.791  0.1744  0.0970 -0.2249
 2039SAP2   C2B24724   3.271   6.411  18.340  0.0994 -0.3386  0.3699
 2039SAP2   C3B24725   3.486   6.639  18.021 -0.1436 -0.4456 -0.2507
 2039SAP2   C4B24726   3.508   7.092  18.059 -0.0085  0.2791  0.0906
 2040SAP2    C124727   2.610   4.564  20.013  0.3181 -0.0941 -0.1083
 2040SAP2    C224728   2.563   4.480  20.273  0.2505 -0.2461 -0.1683
 2040SAP2    C324729   2.535   4.797  20.163  0.2112 -0.1924 -0.0068
 2040SAP2    C424730   2.569   4.614  20.150 -0.3920 -0.7161  0.1683
 2040SAP2   PO424731   2.531   4.326  19.812  0.2588  0.2188  0.0231
 2040SAP2    P424732   2.316   4.856  20.438 -0.1387  0.1159 -0.1279
 2040SAP2    P524733   2.694   4.503  20.478 -0.0014  0.0958 -0.0330
 2040SAP2   GL124734   2.524   4.425  19.440 -0.0262  0.0091 -0.3481
 2040SAP2   GL224735   2.794   4.216  19.358  0.3533 -0.3332 -0.4153
 2040SAP2   D1A24736   2.286   4.700  19.190 -0.0140  0.2555  0.3278
 2040SAP2   D2A24737   2.233   4.433  18.827 -0.1768 -0.0552 -0.1828
 2040SAP2   D3A24738   2.127   4.703  18.479  0.0163 -0.1895  0.1470
 2040SAP2   D4A24739   2.014   4.973  18.828  0.2296 -0.2387  0.1299
 2040SAP2   C5A24740   1.786   5.380  18.687 -0.3288  0.0734  0.2749
 2040SAP2   C1B24741   2.872   3.982  18.968  0.0370 -0.1034 -0.1266
 2040SAP2   C2B24742   2.700   3.878  18.538  0.2153  0.4218 -0.3249
 2040SAP2   C3B24743   2.554   4.044  18.134  0.0335  0.1427  0.1248
 2040SAP2   C4B24744   2.602   4.210  17.702 -0.0466 -0.0440 -0.1577
 2041SAP2    C124745  15.292   2.864  19.711  0.3463 -0.4757  0.0763
 2041SAP2    C224746  15.117   2.893  19.924  0.0282 -0.5451 -0.1675
 2041SAP2    C324747  15.237   3.144  19.736 -0.0260 -0.5197 -0.1683
 2041SAP2    C424748  15.215   2.967  19.791  0.1222 -0.2030 -0.1121
 2041SAP2   PO424749  15.109   2.607  19.558  0.1266  0.0575 -0.0983
 2041SAP2    P424750  14.998   3.336  19.982 -0.4108 -0.2094  0.1552
 2041SAP2    P524751  15.156   3.054  20.247 -0.3816  0.0225  0.0604
 2041SAP2   GL124752  15.217   2.263  19.366 -0.3917  0.1858 -0.2905
 2041SAP2   GL224753  15.390   2.508  19.222 -0.0708  0.0502 -0.3243
 2041SAP2   D1A24754  15.202   1.801  19.208  0.0336  0.0141 -0.1623
 2041SAP2   D2A24755  15.612   2.073  19.099 -0.1153  0.1094 -0.1874
 2041SAP2   D3A24756  15.863   2.465  19.335 -0.1400  0.2793  0.1638
 2041SAP2   D4A24757  15.905   2.750  18.942  0.1505 -0.1706 -0.0879
 2041SAP2   C5A24758  15.475   2.929  18.756  0.0200 -0.0291 -0.0307
 2041SAP2   C1B24759  15.451   2.390  18.778 -0.0536 -0.2404 -0.0593
 2041SAP2   C2B24760  15.536   2.074  18.431 -0.1270  0.0675  0.2152
 2041SAP2   C3B24761  15.633   1.689  18.166 -0.0137  0.0057  0.0108
 2041SAP2   C4B24762  15.450   1.262  18.161 -0.1970 -0.2167 -0.1328
 2042SAP2    C124763   6.709   4.486  18.192  0.0921 -0.0512 -0.0405
 2042SAP2    C224764   6.818   4.740  18.172  0.0747 -0.0382  0.0302
 2042SAP2    C324765   6.927   4.497  18.377 -0.2300  0.0815  0.3439
 2042SAP2    C424766   6.818   4.574  18.247 -1.1780 -0.3991 -0.5070
 2042SAP2   PO424767   6.643   4.451  17.849 -0.0817 -0.0310 -0.3263
 2042SAP2    P424768   7.188   4.695  18.453 -0.3958 -0.2066 -0.0689
 2042SAP2    P524769   6.803   4.962  18.316 -0.0786 -0.0879 -0.2584
 2042SAP2   GL124770   6.315   4.400  17.743 -0.3110 -0.4276 -0.2666
 2042SAP2   GL224771   6.118   4.552  17.557 -0.2591 -0.2434 -0.2215
 2042SAP2   D1A24772   6.257   3.954  17.638 -0.0678 -0.1706 -0.0868
 2042SAP2   D2A24773   6.574   3.793  17.337  0.1849 -0.3007 -0.1829
 2042SAP2   D3A24774   6.447   3.423  17.466  0.2038 -0.2151 -0.2350
 2042SAP2   D4A24775   6.385   3.145  17.070 -0.1880  0.0094 -0.0292
 2042SAP2   C5A24776   6.380   3.551  16.911  0.0593 -0.2895  0.0756
 2042SAP2   C1B24777   5.915   4.181  17.340 -0.0531  0.0995 -0.1292
 2042SAP2   C2B24778   5.687   3.817  17.474  0.2105 -0.1794  0.2883
 2042SAP2   C3B24779   5.377   3.465  17.363  0.4081 -0.0442 -0.0826
 2042SAP2   C4B24780   5.302   3.190  17.010 -0.2136 -0.1745  0.1978
 2043SAP2    C124781   9.976   6.460  14.559 -0.1564  0.0355  0.3103
 2043SAP2    C224782   9.902   6.222  14.440 -0.0698  0.0657  0.1943
 2043SAP2    C324783  10.055   6.251  14.738  0.0995 -0.0357  0.1186
 2043SAP2    C424784   9.978   6.311  14.579 -0.0054 -0.5359  0.2572
 2043SAP2   PO424785   9.741   6.717  14.508 -0.0526 -0.2650 -0.1318
 2043SAP2    P424786  10.005   5.940  14.781  0.0180  0.3657 -0.1511
 2043SAP2    P524787   9.711   5.941  14.443  0.0060  0.1423  0.0276
 2043SAP2   GL124788   9.825   7.029  14.420  0.2600  0.0794  0.1496
 2043SAP2   GL224789   9.528   7.085  14.526  0.0250  0.2218 -0.1596
 2043SAP2   D1A24790  10.251   7.236  14.418  0.1196  0.4492 -0.0088
 2043SAP2   D2A24791  10.116   7.297  14.016 -0.0681  0.2599  0.6146
 2043SAP2   D3A24792  10.040   7.709  14.194  0.1093 -0.1070  0.0763
 2043SAP2   D4A24793   9.881   7.559  14.583 -0.1148  0.0758  0.2141
 2043SAP2   C5A24794  10.223   7.876  14.584 -0.0049  0.0850  0.2866
 2043SAP2   C1B24795   9.489   7.446  14.265  0.0477  0.3760 -0.2902
 2043SAP2   C2B24796   9.458   7.919  14.141 -0.1220 -0.3471  0.0078
 2043SAP2   C3B24797   9.253   8.276  14.328  0.1910 -0.3674  0.2715
 2043SAP2   C4B24798   9.394   8.735  14.306  0.1437  0.3015 -0.2316
 2044SAP2    C124799   9.710  11.029  20.235  0.2994 -0.0835  0.2266
 2044SAP2    C224800   9.466  10.956  20.345 -0.0531  0.2568 -0.2848
 2044SAP2    C324801   9.686  11.169  20.484 -0.1392  0.1147  0.0824
 2044SAP2    C424802   9.621  11.051  20.355  0.2550 -0.3975 -0.5117
 2044SAP2   PO424803   9.634  11.129  19.905 -0.1642  0.0883 -0.1319
 2044SAP2    P424804   9.594  11.292  20.682  0.0062 -0.1559 -0.3510
 2044SAP2    P524805   9.375  10.832  20.620 -0.0907  0.0962 -0.1010
 2044SAP2   GL124806   9.786  10.984  19.653  0.0801 -0.3314 -0.0416
 2044SAP2   GL224807   9.972  11.148  19.584 -0.0361 -0.2466  0.2542
 2044SAP2   D1A24808   9.750  10.933  19.190  0.0542  0.1444 -0.1420
 2044SAP2   D2A24809   9.605  11.279  18.908  0.0017 -0.0681  0.1498
 2044SAP2   D3A24810   9.239  11.059  19.128 -0.1343  0.2465  0.0901
 2044SAP2   D4A24811   9.480  11.310  19.450 -0.0785 -0.3422  0.1390
 2044SAP2   C5A24812   9.586  11.767  19.338  0.1325  0.0469  0.2112
 2044SAP2   C1B24813   9.983  11.450  19.202  0.0292 -0.0761  0.0112
 2044SAP2   C2B24814  10.174  11.641  18.845 -0.0549  0.1956  0.1732
 2044SAP2   C3B24815  10.395  11.403  18.497 -0.0035 -0.4945 -0.2421
 2044SAP2   C4B24816  10.360  11.141  18.143  0.1818  0.4138  0.1752
 2045SAP2    C124817   8.773   6.134  15.593 -0.0983 -0.2894 -0.1385
 2045SAP2    C224818   8.951   6.143  15.806 -0.1864  0.1486 -0.0749
 2045SAP2    C324819   9.018   6.016  15.502  0.1356  0.0464  0.0349
 2045SAP2    C424820   8.914   6.098  15.634 -0.0928  0.3614 -0.1725
 2045SAP2   PO424821   8.573   6.415  15.705  0.3017  0.0403 -0.0905
 2045SAP2    P424822   9.257   5.937  15.567  0.2070 -0.1039 -0.0875
 2045SAP2    P524823   9.113   5.817  15.940  0.1502  0.2813  0.1098
 2045SAP2   GL124824   8.320   6.484  15.532  0.4125  0.0851  0.2595
 2045SAP2   GL224825   8.118   6.407  15.508  0.1548  0.0373  0.1159
 2045SAP2   D1A24826   8.232   6.929  15.552 -0.0846 -0.1716  0.1188
 2045SAP2   D2A24827   7.781   6.925  15.518 -0.2141  0.3068 -0.0907
 2045SAP2   D3A24828   7.964   7.282  15.297  0.0560 -0.1567  0.2078
 2045SAP2   D4A24829   8.191   7.261  14.861 -0.0372 -0.3901  0.2481
 2045SAP2   C5A24830   7.908   7.581  14.797 -0.1540 -0.1924  0.1765
 2045SAP2   C1B24831   7.751   6.406  15.265 -0.0303  0.2934  0.1532
 2045SAP2   C2B24832   7.359   6.457  14.992  0.1891 -0.2024 -0.0747
 2045SAP2   C3B24833   7.254   6.734  14.634  0.1077  0.0649 -0.2656
 2045SAP2   C4B24834   7.228   7.189  14.717  0.1726  0.0671  0.2510
 2046SAP2    C124835  13.007   0.324  20.428  0.0037 -0.1505  0.2844
 2046SAP2    C224836  12.804   0.306  20.616 -0.0027  0.1708  0.3139
 2046SAP2    C324837  12.909   0.590  20.471  0.0425 -0.0629 -0.1281
 2046SAP2    C424838  12.907   0.406  20.505  0.0908 -0.0770 -0.9674
 2046SAP2   PO424839  12.980   0.064  20.187  0.2619 -0.3765 -0.4427
 2046SAP2    P424840  12.673   0.774  20.486 -0.4188 -0.1082 -0.0976
 2046SAP2    P524841  12.515   0.332  20.820  0.2166 -0.0395 -0.0549
 2046SAP2   GL124842  13.037   0.223  19.846  0.0715  0.2247 -0.1196
 2046SAP2   GL224843  13.204  -0.013  19.767 -0.1484  0.0186  0.0543
 2046SAP2   D1A24844  13.000   0.195  19.338 -0.2047  0.2231  0.2313
 2046SAP2   D2A24845  13.330   0.473  19.229 -0.1642 -0.3985  0.0554
 2046SAP2   D3A24846  13.251   0.328  18.822 -0.2152 -0.1924 -0.0613
 2046SAP2   D4A24847  12.807   0.332  18.732 -0.0451 -0.1292 -0.0638
 2046SAP2   C5A24848  12.901  -0.144  18.684 -0.3115  0.0248 -0.0222
 2046SAP2   C1B24849  13.406  -0.173  19.380 -0.1819 -0.0904 -0.4396
 2046SAP2   C2B24850  13.357  -0.190  18.903  0.1364 -0.1392 -0.0586
 2046SAP2   C3B24851  13.403  -0.504  18.499  0.0664 -0.1038 -0.2687
 2046SAP2   C4B24852  13.461  -0.711  18.094 -0.1231  0.1328  0.1663
 2047SAP2    C124853   9.816   5.029  15.161 -0.1012  0.1322 -0.0126
 2047SAP2    C224854   9.584   4.897  15.235 -0.0673  0.0603 -0.0340
 2047SAP2    C324855   9.629   5.063  14.947 -0.1201  0.1437  0.0055
 2047SAP2    C424856   9.676   4.997  15.114  0.4731 -0.5455 -0.2787
 2047SAP2   PO424857  10.031   4.805  15.237  0.1224  0.1351  0.1002
 2047SAP2    P424858   9.336   5.074  14.827  0.1215  0.0863  0.3219
 2047SAP2    P524859   9.364   5.044  15.335  0.2872  0.3566  0.0775
 2047SAP2   GL124860  10.169   4.523  15.113 -0.2685  0.4002 -0.0207
 2047SAP2   GL224861  10.297   4.291  15.228  0.0003  0.0208  0.1026
 2047SAP2   D1A24862  10.389   4.313  14.719 -0.2815  0.2080  0.0827
 2047SAP2   D2A24863  10.249   4.068  14.329 -0.1301 -0.3171  0.1232
 2047SAP2   D3A24864  10.312   4.060  13.877 -0.0065 -0.3233  0.1574
 2047SAP2   D4A24865  10.040   3.861  13.579  0.0721  0.0256  0.0909
 2047SAP2   C5A24866   9.643   3.712  13.723 -0.2582  0.3773  0.0013
 2047SAP2   C1B24867  10.356   3.885  15.140  0.1038  0.2891 -0.2091
 2047SAP2   C2B24868  10.342   3.500  14.917 -0.1723  0.0110 -0.1474
 2047SAP2   C3B24869  10.499   3.132  14.645 -0.0378  0.3417 -0.4531
 2047SAP2   C4B24870  10.715   2.877  14.307 -0.0107 -0.0921 -0.0625
 2048SAP2    C124871  10.308  10.653  20.306  0.2795  0.1197  0.0644
 2048SAP2    C224872  10.334  10.812  20.531 -0.2306 -0.0402  0.2506
 2048SAP2    C324873  10.374  10.479  20.524  0.5049  0.0366 -0.0675
 2048SAP2    C424874  10.339  10.648  20.454  0.3026 -0.2190 -0.2044
 2048SAP2   PO424875  10.465  10.831  20.068  0.3226 -0.1415 -0.1150
 2048SAP2    P424876  10.471  10.423  20.792 -0.2861 -0.2326  0.1218
 2048SAP2    P524877  10.250  10.804  20.841  0.1824 -0.1106  0.1200
 2048SAP2   GL124878  10.387  10.879  19.756 -0.1238  0.2224  0.0520
 2048SAP2   GL224879  10.687  10.972  19.647 -0.1398  0.0433 -0.0106
 2048SAP2   D1A24880  10.363  10.901  19.308 -0.1595 -0.1352  0.1458
 2048SAP2   D2A24881  10.428  11.226  18.986 -0.0489  0.1088  0.3543
 2048SAP2   D3A24882  10.387  10.944  18.643 -0.0240 -0.3141  0.0410
 2048SAP2   D4A24883  10.052  11.167  18.655  0.1024  0.0916 -0.0634
 2048SAP2   C5A24884   9.978  10.707  18.812  0.2177 -0.1830  0.0502
 2048SAP2   C1B24885  10.467  11.327  19.460 -0.5232  0.2361 -0.0278
 2048SAP2   C2B24886  10.399  11.708  19.239 -0.1504 -0.0760 -0.1083
 2048SAP2   C3B24887  10.441  12.078  19.021 -0.0025  0.0471  0.0076
 2048SAP2   C4B24888  10.419  12.396  18.691 -0.1489 -0.0111 -0.1085
34260POPC   NC357100  15.852  30.982   7.651 -0.1388 -0.0972 -0.1471
34260POPC   PO457101  16.124  30.796   7.846  0.2325 -0.0984 -0.0821
34260POPC   GL157102  16.183  30.683   7.479  0.5115 -0.0570 -0.3251
34260POPC   GL257103  15.980  30.526   7.423  0.0993  0.1560 -0.0380
34260POPC   C1A57104  16.511  30.551   7.265 -0.2264 -0.1016  0.0377
34260POPC   D2A57105  16.831  30.591   6.938  0.0512 -0.1302  0.2210
34260POPC   C3A57106  16.793  30.322   6.595 -0.0027 -0.0555 -0.2824
34260POPC   C4A57107  16.844  30.230   6.150  0.1704  0.0875  0.1551
34260POPC   C1B57108  15.678  30.796   7.162 -0.0119 -0.4265 -0.1911
34260POPC   C2B57109  15.532  30.862   6.743 -0.2065 -0.0395  0.2541
34260POPC   C3B57110  15.299  30.873   6.334 -0.0881  0.0658  0.1352
34260POPC   C4B57111  15.005  30.632   6.036  0.2102  0.1966  0.1465
34261POPC   NC357112   5.426  19.807  14.094  0.0711  0.1668  0.1429
34261POPC   PO457113   5.101  19.655  14.178  0.0525  0.2394 -0.0353
34261POPC   GL157114   5.247  19.857  14.520 -0.2104  0.0338  0.2104
34261POPC   GL257115   5.361  19.607  14.627 -0.0100  0.5980 -0.2227
34261POPC   C1A57116   5.368  19.898  14.990 -0.2605  0.2085  0.1080
34261POPC   D2A57117   5.478  19.756  15.417 -0.1986  0.0952 -0.1467
34261POPC   C3A57118   5.633  20.080  15.721  0.0532 -0.0354  0.1792
34261POPC   C4A57119   5.915  20.248  16.064 -0.2848  0.2490 -0.3326
34261POPC   C1B57120   5.703  19.398  14.922  0.1359 -0.0963  0.0329
34261POPC   C2B57121   6.203  19.439  14.997 -0.0767  0.0335  0.2442
34261POPC   C3B57122   6.503  19.576  15.319  0.2112  0.0221  0.0851
34261POPC   C4B57123   6.707  19.627  15.679  0.1044  0.0378  0.1185
34262POPC   NC357124  13.518  31.051   8.516  0.0068  0.2409  0.0431
34262POPC   PO457125  13.324  30.720   8.485  0.2281 -0.1834  0.0682
34262POPC   GL157126  13.301  30.802   8.141  0.0388  0.3712  0.1434
34262POPC   GL257127  13.167  30.975   8.077 -0.0127 -0.0783 -0.3613
34262POPC   C1A57128  13.474  30.540   7.747  0.2660 -0.0206  0.3721
34262POPC   D2A57129  13.859  30.663   7.545 -0.0534 -0.0726 -0.1196
34262POPC   C3A57130  13.988  31.028   7.275  0.1808 -0.1270 -0.0131
34262POPC   C4A57131  14.001  31.101   6.864 -0.1584 -0.1063  0.3228
34262POPC   C1B57132  13.019  31.333   7.796 -0.0908  0.0380  0.1036
34262POPC   C2B57133  13.084  31.418   7.327  0.0351 -0.0229  0.3999
34262POPC   C3B57134  13.002  31.517   6.880 -0.4083  0.0606 -0.0076
34262POPC   C4B57135  13.126  31.414   6.450 -0.3419 -0.1954 -0.2691
34263POPC   NC357136  10.348  30.726   8.632  0.0559 -0.0407  0.2118
34263POPC   PO457137  10.681  30.824   8.557  0.2474  0.0332  0.2214
34263POPC   GL157138  10.532  30.988   8.298  0.3633  0.0164  0.0204
34263POPC   GL257139  10.364  31.173   8.347  0.0679 -0.0446 -0.1451
34263POPC   C1A57140  10.377  30.773   7.937  0.0131  0.0386  0.1396
34263POPC   D2A57141  10.149  30.730   7.527 -0.1357 -0.2418 -0.1666
34263POPC   C3A57142  10.244  30.504   7.114  0.0685  0.0751 -0.0785
34263POPC   C4A57143  10.243  30.217   6.727 -0.0292  0.2160  0.0166
34263POPC   C1B57144  10.330  31.519   8.087  0.0817  0.0382  0.0685
34263POPC   C2B57145  10.024  31.646   7.734 -0.0048  0.0948 -0.0855
34263POPC   C3B57146  10.088  31.652   7.304 -0.1164 -0.2145  0.2926
34263POPC   C4B57147  10.405  31.503   6.992 -0.1349  0.2300  0.3354
34264POPC   NC357148   8.183  26.367  12.642  0.1418  0.1811  0.4028
34264POPC   PO457149   8.186  26.600  12.351  0.3724 -0.0456 -0.2001
34264POPC   GL157150   8.219  26.369  12.069 -0.2193 -0.0700 -0.1553
34264POPC   GL257151   8.048  26.128  12.152  0.0427  0.4131  0.0141
34264POPC   C1A57152   8.452  26.085  11.810 -0.0555  0.2932 -0.0531
34264POPC   D2A57153   8.752  25.912  11.510 -0.1829 -0.2607  0.3101
34264POPC   C3A57154   8.970  25.551  11.294 -0.0935 -0.0023  0.1570
34264POPC   C4A57155   8.736  25.146  11.345 -0.1853 -0.0363 -0.2932
34264POPC   C1B57156   8.389  25.823  12.213 -0.2980  0.0545  0.0808
34264POPC   C2B57157   8.800  25.742  12.014  0.0973  0.0749  0.2403
34264POPC   C3B57158   9.212  25.684  11.712 -0.1266 -0.1459  0.0913
34264POPC   C4B57159   9.459  25.307  11.633 -0.0511  0.0125 -0.0167
34265POPC   NC357160  12.749  30.627   8.560 -0.0009 -0.2902 -0.2900
34265POPC   PO457161  12.621  30.817   8.237  0.0980 -0.1986 -0.0462
34265POPC   GL157162  12.543  30.654   7.921  0.1676 -0.4057 -0.0169
34265POPC   GL257163  12.634  30.928   7.769 -0.1015  0.0876 -0.0762
34265POPC   C1A57164  12.170  30.575   7.643  0.2469  0.1230  0.1152
34265POPC   D2A57165  11.949  30.522   7.251  0.0875 -0.1975 -0.1878
34265POPC   C3A57166  11.532  30.543   7.293 -0.1170  0.0064 -0.1008
34265POPC   C4A57167  11.304  30.589   7.696 -0.1608  0.1282 -0.1063
34265POPC   C1B57168  12.690  30.618   7.376  0.2539 -0.0818 -0.1554
34265POPC   C2B57169  12.820  30.611   6.956  0.3587 -0.2624 -0.0067
34265POPC   C3B57170  12.630  30.310   6.678 -0.1740 -0.1026  0.3603
34265POPC   C4B57171  12.848  30.036   6.381 -0.1890  0.0126 -0.2430
34266POPC   NC357172  14.818  28.322   8.661 -0.3855 -0.0623 -0.1326
34266POPC   PO457173  14.943  27.927   8.706  0.0382  0.3059 -0.2559
34266POPC   GL157174  14.735  27.942   8.415  0.5482  0.3054  0.0146
34266POPC   GL257175  14.609  28.120   8.215 -0.2950 -0.2214 -0.0981
34266POPC   C1A57176  14.519  27.644   8.083 -0.1065  0.1026 -0.2821
34266POPC   D2A57177  14.570  27.174   7.970 -0.0535  0.0959 -0.1165
34266POPC   C3A57178  14.362  26.929   7.604 -0.0602 -0.1138 -0.0920
34266POPC   C4A57179  14.053  26.889   7.244  0.0581 -0.3322  0.0861
34266POPC   C1B57180  14.478  28.279   7.776  0.0868  0.1617  0.1266
34266POPC   C2B57181  14.312  28.644   7.502  0.1314 -0.0113 -0.0718
34266POPC   C3B57182  14.433  28.999   7.251 -0.2502  0.0994  0.0735
34266POPC   C4B57183  14.691  29.383   7.126 -0.1316  0.2643 -0.0259
34267POPC   NC357184   2.603  27.969   8.042  0.1035  0.0490 -0.1953
34267POPC   PO457185   2.239  27.978   8.191  0.2056  0.0415 -0.0026
34267POPC   GL157186   2.014  28.105   7.904  0.0738  0.0710 -0.2557
34267POPC   GL257187   1.750  28.104   7.866 -0.3390 -0.2315  0.1477
34267POPC   C1A57188   2.004  27.977   7.468  0.0994  0.1728  0.0773
34267POPC   D2A57189   1.777  27.819   7.121  0.0968 -0.1784 -0.0308
34267POPC   C3A57190   1.741  28.184   6.822 -0.0535  0.2253  0.2551
34267POPC   C4A57191   2.052  28.288   6.446 -0.0929 -0.0586  0.1376
34267POPC   C1B57192   1.563  27.744   7.610  0.1070 -0.2572  0.1981
34267POPC   C2B57193   1.515  27.387   7.329  0.5535 -0.2111 -0.1697
34267POPC   C3B57194   1.292  27.338   6.934  0.3104 -0.0559  0.4290
34267POPC   C4B57195   0.931  27.232   6.673  0.0824  0.0585 -0.0004
34268POPC   NC357196   7.801  18.166  11.238 -0.3085 -0.2109  0.1009
34268POPC   PO457197   7.654  18.333  10.938  0.0632  0.0808 -0.0817
34268POPC   GL157198   7.789  18.732  10.901  0.0262  0.1598 -0.4086
34268POPC   GL257199   7.889  18.885  11.178  0.1794  0.0941  0.1362
34268POPC   C1A57200   7.820  19.222  10.824 -0.0401 -0.0066 -0.0528
34268POPC   D2A57201   7.586  19.670  10.932 -0.2502 -0.1792  0.0168
34268POPC   C3A57202   7.728  20.075  10.794 -0.2102 -0.0533  0.0227
34268POPC   C4A57203   7.990  20.428  10.624  0.1272  0.1042 -0.0940
34268POPC   C1B57204   8.360  18.871  11.258  0.1861  0.0458 -0.2112
34268POPC   C2B57205   8.800  19.049  11.271  0.0697  0.4288  0.1204
34268POPC   C3B57206   9.192  19.344  11.322 -0.1608  0.1571  0.0594
34268POPC   C4B57207   9.529  19.640  11.287  0.0206  0.2254 -0.1081
34269POPC   NC357208  13.406  29.153   8.479 -0.1269  0.0807 -0.4883
34269POPC   PO457209  13.173  28.875   8.668  0.0968 -0.0253  0.0481
34269POPC   GL157210  13.144  28.833   8.285  0.0122  0.0115 -0.3054
34269POPC   GL257211  12.956  28.672   8.032 -0.1505  0.2489  0.0427
34269POPC   C1A57212  13.331  28.982   7.897 -0.2577 -0.0333 -0.4121
34269POPC   D2A57213  13.280  29.210   7.517 -0.0113  0.0346 -0.2208
34269POPC   C3A57214  13.370  28.922   7.129 -0.2083  0.1076  0.3147
34269POPC   C4A57215  13.514  28.839   6.727  0.1976  0.1379 -0.0987
34269POPC   C1B57216  13.004  28.525   7.571  0.0929  0.0313 -0.0486
34269POPC   C2B57217  13.083  28.337   7.116 -0.0110  0.4774  0.2950
34269POPC   C3B57218  13.450  28.375   6.807  0.0634  0.0986  0.0085
34269POPC   C4B57219  13.752  28.116   6.567 -0.1152 -0.1871 -0.1722
34270POPC   NC357220   3.705  26.410   8.939  0.1470  0.1382  0.0146
34270POPC   PO457221   3.316  26.397   8.960  0.1241 -0.0766 -0.0580
34270POPC   GL157222   3.290  26.372   8.529 -0.2141  0.1450 -0.4880
34270POPC   GL257223   3.462  26.610   8.530  0.3251 -0.2545 -0.2566
34270POPC   C1A57224   3.290  26.172   8.127  0.0916  0.0831 -0.0637
34270POPC   D2A57225   3.232  26.182   7.723 -0.0923  0.2046  0.2670
34270POPC   C3A57226   3.045  26.078   7.265  0.1083  0.1105 -0.0859
34270POPC   C4A57227   2.849  25.885   6.846  0.2735 -0.1000 -0.0259
34270POPC   C1B57228   3.703  26.213   8.353  0.2504  0.0293  0.2828
34270POPC   C2B57229   3.782  25.930   7.977  0.3251  0.2023 -0.2744
34270POPC   C3B57230   3.623  25.908   7.556 -0.1618 -0.0880 -0.2254
34270POPC   C4B57231   3.548  25.864   7.114 -0.0718  0.0329  0.0752
34271POPC   NC357232  13.846  30.532   8.561  0.2234 -0.3419 -0.1036
34271POPC   PO457233  14.142  30.598   8.343 -0.0669 -0.3218  0.0880
34271POPC   GL157234  14.232  30.737   8.028 -0.1449  0.2062 -0.1873
34271POPC   GL257235  14.203  30.537   7.822 -0.0846  0.0298  0.1168
34271POPC   C1A57236  14.124  31.090   7.777  0.0557  0.4497 -0.0643
34271POPC   D2A57237  13.948  31.473   7.549 -0.0262  0.4593  0.2558
34271POPC   C3A57238  13.989  31.545   7.115 -0.1119 -0.1570  0.3003
34271POPC   C4A57239  13.969  31.582   6.682  0.1754  0.0315 -0.0578
34271POPC   C1B57240  14.389  30.696   7.408 -0.0520  0.2497  0.1439
34271POPC   C2B57241  14.405  30.824   6.935  0.0609  0.3028  0.1236
34271POPC   C3B57242  14.196  30.726   6.593 -0.1201  0.3099 -0.2175
34271POPC   C4B57243  13.900  30.840   6.297  0.2172 -0.1893  0.0014
34272POPC   NC357244   0.382  29.862   8.479 -0.2316  0.0735 -0.0870
34272POPC   PO457245   0.479  30.210   8.297  0.4708  0.1348  0.2219
34272POPC   GL157246   0.611  30.293   7.920 -0.2457  0.2533 -0.1045
34272POPC   GL257247   0.601  30.527   7.826 -0.0046  0.0416  0.1397
34272POPC   C1A57248   0.401  30.195   7.506 -0.1732  0.2915  0.0060
34272POPC   D2A57249   0.679  30.073   7.116 -0.1173 -0.2221 -0.1912
34272POPC   C3A57250   0.846  30.022   6.700  0.0038 -0.0173  0.0538
34272POPC   C4A57251   0.870  29.695   6.342  0.3369 -0.0392  0.0264
34272POPC   C1B57252   0.663  30.584   7.338  0.2006 -0.1409 -0.0442
34272POPC   C2B57253   0.879  30.485   6.929  0.1962 -0.2020 -0.3915
34272POPC   C3B57254   1.223  30.533   6.594  0.0722  0.1976 -0.0683
34272POPC   C4B57255   1.301  30.564   6.145 -0.0766 -0.1322 -0.1148
34273POPC   NC357256   3.288  16.724   9.079  0.0257  0.1026  0.3547
34273POPC   PO457257   3.231  16.357   8.942 -0.4484 -0.0453  0.2499
34273POPC   GL157258   3.373  16.301   8.552 -0.1543 -0.0929 -0.2778
34273POPC   GL257259   3.349  16.610   8.436  0.2716  0.2343  0.3303
34273POPC   C1A57260   3.792  16.386   8.310 -0.0433 -0.4376 -0.2116
34273POPC   D2A57261   3.909  16.699   8.058 -0.1653 -0.0058  0.0478
34273POPC   C3A57262   4.271  16.936   8.098  0.0749 -0.2331 -0.2441
34273POPC   C4A57263   4.694  17.105   8.227 -0.2441  0.0776 -0.0652
34273POPC   C1B57264   3.422  16.642   8.028  0.0485 -0.3770 -0.0075
34273POPC   C2B57265   3.336  16.998   7.735 -0.0549 -0.0069  0.0986
34273POPC   C3B57266   3.628  17.300   7.445 -0.1728  0.2377  0.0179
34273POPC   C4B57267   3.565  17.555   7.073  0.1997 -0.0696  0.2776
34274POPC   NC357268   8.179  18.452  11.010 -0.0711 -0.4138 -0.0798
34274POPC   PO457269   8.148  18.130  10.782  0.1304  0.1012 -0.1500
34274POPC   GL157270   8.051  18.464  10.529 -0.0901  0.3295 -0.2696
34274POPC   GL257271   8.337  18.456  10.499 -0.0272  0.0374 -0.0390
34274POPC   C1A57272   7.805  18.909  10.398  0.3436  0.0201 -0.0255
34274POPC   D2A57273   7.669  19.394  10.413  0.3219 -0.0111 -0.0064
34274POPC   C3A57274   7.811  19.560   9.999  0.2331  0.0627 -0.0094
34274POPC   C4A57275   8.212  19.629   9.718  0.1003 -0.2016 -0.1787
34274POPC   C1B57276   8.567  18.796  10.281 -0.1222 -0.0284 -0.1776
34274POPC   C2B57277   8.928  19.060  10.257 -0.0551 -0.0556  0.1152
34274POPC   C3B57278   9.234  19.197   9.918 -0.1481 -0.4224 -0.2036
34274POPC   C4B57279   9.541  19.340   9.712  0.1120 -0.2948  0.3446
34275POPC   NC357280  15.464  18.666  15.116  0.1598 -0.2245  0.2955
34275POPC   PO457281  15.506  18.388  15.402 -0.0067 -0.0003  0.1851
34275POPC   GL157282  15.338  18.686  15.649  0.0648  0.1364  0.2083
34275POPC   GL257283  15.482  18.824  15.758  0.1553 -0.0270  0.1726
34275POPC   C1A57284  15.064  19.057  15.728 -0.2676  0.2490 -0.0639
34275POPC   D2A57285  14.804  19.339  15.971  0.1055 -0.0623  0.2605
34275POPC   C3A57286  14.740  19.126  16.342 -0.0269 -0.5079 -0.3246
34275POPC   C4A57287  14.450  19.139  16.714  0.2287  0.0825  0.1541
34275POPC   C1B57288  15.684  18.929  16.175 -0.0278  0.2090  0.1524
34275POPC   C2B57289  15.544  19.071  16.567  0.0172  0.0819 -0.0213
34275POPC   C3B57290  15.566  19.110  17.048  0.1575  0.0879 -0.0170
34275POPC   C4B57291  15.801  19.376  17.381  0.2874  0.1458 -0.1854
34276POPC   NC357292  10.415   0.594  10.278  0.1305  0.0287  0.1069
34276POPC   PO457293  10.161   0.317  10.181 -0.2240  0.0572  0.1912
34276POPC   GL157294  10.013   0.757  10.100 -0.0534 -0.2496  0.0803
34276POPC   GL257295   9.796   0.677   9.818 -0.4381 -0.0846  0.2113
34276POPC   C1A57296  10.077   1.128   9.738  0.0231  0.2795  0.0393
34276POPC   D2A57297   9.978   1.474   9.457  0.1074 -0.1183 -0.1334
34276POPC   C3A57298  10.202   1.888   9.535  0.0425 -0.1349  0.2075
34276POPC   C4A57299  10.522   2.127   9.230  0.0752 -0.2198 -0.0391
34276POPC   C1B57300   9.662   0.905   9.416 -0.0656  0.0747 -0.1746
34276POPC   C2B57301   9.689   1.281   9.147 -0.2402 -0.0536  0.0149
34276POPC   C3B57302   9.589   1.710   8.999  0.1131  0.0671  0.1352
34276POPC   C4B57303   9.491   2.157   8.987  0.2636  0.1135  0.3721
34277POPC   NC357304   2.960  21.154   9.509 -0.0711  0.0630 -0.1014
34277POPC   PO457305   2.604  21.257   9.683  0.3940  0.3249 -0.1037
34277POPC   GL157306   2.598  21.502   9.355  0.0850 -0.0140  0.0118
34277POPC   GL257307   2.549  21.320   9.160 -0.2353 -0.2182  0.1370
34277POPC   C1A57308   2.832  21.855   9.119  0.2466 -0.3478  0.0468
34277POPC   D2A57309   3.045  22.180   8.874  0.1759 -0.0647  0.0347
34277POPC   C3A57310   3.114  22.203   8.445 -0.1722 -0.4026 -0.4679
34277POPC   C4A57311   2.996  21.984   8.090  0.0838 -0.1807 -0.1174
34277POPC   C1B57312   3.046  21.439   9.086 -0.3258  0.0745 -0.2687
34277POPC   C2B57313   3.335  21.352   8.715  0.1709 -0.1877 -0.0162
34277POPC   C3B57314   3.645  21.290   8.382  0.0412  0.1095 -0.2253
34277POPC   C4B57315   3.941  21.249   8.012 -0.2098  0.1709 -0.0387
34278POPC   NC357316  11.377  29.231   9.066  0.0863 -0.2634 -0.0511
34278POPC   PO457317  11.595  28.991   8.872 -0.0060 -0.0368  0.0265
34278POPC   GL157318  11.649  28.659   8.571 -0.0844  0.0861 -0.0603
34278POPC   GL257319  11.643  28.950   8.354  0.2461 -0.0760  0.1243
34278POPC   C1A57320  11.652  28.327   8.225 -0.2708 -0.0472 -0.0197
34278POPC   D2A57321  11.627  28.261   7.748 -0.2993  0.1326 -0.1418
34278POPC   C3A57322  11.429  28.187   7.361 -0.3022  0.1212  0.0095
34278POPC   C4A57323  11.133  28.376   7.080  0.1454 -0.1419 -0.0762
34278POPC   C1B57324  11.480  28.737   7.951 -0.0213 -0.3331 -0.0246
34278POPC   C2B57325  11.393  28.671   7.492  0.1419  0.1157 -0.2973
34278POPC   C3B57326  11.721  28.729   7.143  0.2846  0.1406 -0.1283
34278POPC   C4B57327  11.897  28.572   6.721  0.4868 -0.1385  0.2415
34279POPC   NC357328   4.720  21.565  10.603  0.0542 -0.2420 -0.0554
34279POPC   PO457329   4.406  21.351  10.461  0.2504 -0.1435  0.1626
34279POPC   GL157330   4.735  21.316  10.248 -0.0758 -0.1702  0.4399
34279POPC   GL257331   4.824  21.091  10.101 -0.2044 -0.1340 -0.0731
34279POPC   C1A57332   5.127  21.428  10.042 -0.1763 -0.2267  0.0555
34279POPC   D2A57333   5.448  21.453   9.687 -0.2429 -0.1716 -0.0063
34279POPC   C3A57334   5.688  21.526   9.357 -0.1209  0.4878  0.0885
34279POPC   C4A57335   5.818  21.913   9.229  0.0809 -0.2712 -0.0830
34279POPC   C1B57336   4.846  21.153   9.642  0.1021  0.2158 -0.0811
34279POPC   C2B57337   4.898  21.154   9.172 -0.1438  0.0408 -0.0218
34279POPC   C3B57338   5.214  21.010   8.855  0.0693 -0.0658  0.1192
34279POPC   C4B57339   5.397  21.138   8.396 -0.0449  0.0230 -0.2135
34280POPC   NC357340  14.402  20.457  11.032  0.0020  0.1139 -0.0646
34280POPC   PO457341  14.456  20.432  10.619 -0.0234 -0.2925 -0.2716
34280POPC   GL157342  14.268  20.683  10.383 -0.2154 -0.3067  0.1822
34280POPC   GL257343  14.185  20.829  10.629 -0.0508  0.0754  0.0624
34280POPC   C1A57344  13.794  20.768  10.290 -0.0382  0.2489 -0.0244
34280POPC   D2A57345  13.504  21.056  10.248 -0.1500  0.1306  0.0552
34280POPC   C3A57346  13.035  20.991  10.014  0.2302 -0.0869 -0.3099
34280POPC   C4A57347  12.634  21.166   9.849 -0.0071  0.1302  0.0932
34280POPC   C1B57348  13.888  21.193  10.540  0.3117  0.1230  0.1632
34280POPC   C2B57349  13.603  21.524  10.333  0.3216 -0.0766 -0.2976
34280POPC   C3B57350  13.146  21.642  10.212 -0.1059 -0.2790  0.0885
34280POPC   C4B57351  12.889  22.025  10.138 -0.1540  0.5092 -0.2755
34281POPC   NC357352  15.512  20.843  15.433 -0.2036 -0.0062  0.1461
34281POPC   PO457353  15.932  20.919  15.486  0.0428 -0.0388  0.4869
34281POPC   GL157354  15.975  20.923  15.890  0.0344  0.1760 -0.0683
34281POPC   GL257355  16.246  21.065  15.866  0.0994 -0.1773 -0.2744
34281POPC   C1A57356  15.907  20.706  16.240  0.0318  0.0107 -0.3794
34281POPC   D2A57357  15.862  20.823  16.720 -0.0528  0.3224 -0.1003
34281POPC   C3A57358  15.440  20.770  16.878  0.0933  0.3020 -0.2887
34281POPC   C4A57359  15.274  20.659  17.348  0.0288  0.0536  0.0049
34281POPC   C1B57360  16.340  21.071  16.293 -0.0162  0.1632 -0.2022
34281POPC   C2B57361  16.098  21.249  16.646 -0.0695 -0.2311 -0.1347
34281POPC   C3B57362  15.845  21.268  17.047  0.5857 -0.0362 -0.0214
34281POPC   C4B57363  15.461  21.345  17.289  0.0593 -0.0224  0.0631
34282POPC   NC357364  14.583  19.375  10.935 -0.0018  0.2182  0.0112
34282POPC   PO457365  14.182  19.415  10.910 -0.0435 -0.2345  0.1062
34282POPC   GL157366  13.929  19.624  10.741  0.4009  0.1363  0.0582
34282POPC   GL257367  13.682  19.568  10.962 -0.1856  0.5090  0.4233
34282POPC   C1A57368  13.809  20.010  10.882 -0.0232  0.0349 -0.0171
34282POPC   D2A57369  13.934  20.421  10.782  0.1836  0.1543  0.1096
34282POPC   C3A57370  13.647  20.760  10.757  0.1813  0.3412 -0.0234
34282POPC   C4A57371  13.450  21.182  10.722  0.0463 -0.2702 -0.0057
34282POPC   C1B57372  13.534  19.773  11.278  0.0014  0.0500 -0.1343
34282POPC   C2B57373  13.325  20.086  11.457 -0.2371  0.1759  0.0554
34282POPC   C3B57374  13.090  20.335  11.781 -0.1125  0.0789  0.1242
34282POPC   C4B57375  12.686  20.464  11.956 -0.0821 -0.2356  0.0262
34283POPC   NC357376   5.142  17.006   9.370  0.1067  0.0508  0.1904
34283POPC   PO457377   5.435  17.066   9.588 -0.0509 -0.0180 -0.3054
34283POPC   GL157378   5.456  17.343   9.298  0.0400  0.3108  0.1430
34283POPC   GL257379   5.664  17.478   9.176  0.1656 -0.0952 -0.3592
34283POPC   C1A57380   5.155  17.367   8.982 -0.3123  0.0585  0.3106
34283POPC   D2A57381   4.969  17.293   8.567 -0.1090 -0.0037 -0.2263
34283POPC   C3A57382   4.869  17.638   8.318 -0.1896 -0.0659  0.1025
34283POPC   C4A57383   5.074  17.995   8.136  0.2127 -0.0467 -0.0946
34283POPC   C1B57384   5.765  17.554   8.712  0.0067 -0.1416 -0.0733
34283POPC   C2B57385   5.943  17.515   8.276 -0.0021 -0.0576  0.2188
34283POPC   C3B57386   6.171  17.784   7.947  0.1167  0.0117 -0.0288
34283POPC   C4B57387   6.218  18.146   7.660  0.0498 -0.1352 -0.1593
34284POPC   NC357388  15.906  25.366   9.092 -0.2110  0.0546 -0.0360
34284POPC   PO457389  15.720  25.689   9.230  0.2797  0.3330  0.1034
34284POPC   GL157390  15.487  25.495   9.053 -0.0381  0.0147  0.2497
34284POPC   GL257391  15.498  25.569   8.779 -0.3847 -0.2232  0.1015
34284POPC   C1A57392  15.421  25.082   8.833 -0.0690 -0.1554  0.1284
34284POPC   D2A57393  15.286  25.084   8.371  0.1759  0.0179 -0.0210
34284POPC   C3A57394  15.015  24.856   8.066  0.0079 -0.0031 -0.1516
34284POPC   C4A57395  14.558  24.936   7.889  0.0392  0.1344  0.2487
34284POPC   C1B57396  15.108  25.466   8.660 -0.3962  0.1336  0.1861
34284POPC   C2B57397  14.737  25.255   8.441  0.0006 -0.1297  0.1252
34284POPC   C3B57398  14.360  24.958   8.325  0.1704 -0.0072  0.1450
34284POPC   C4B57399  14.156  24.544   8.231  0.1579  0.1335  0.3275
34285POPC   NC357400  15.408  20.293  10.002 -0.2327 -0.2309  0.2748
34285POPC   PO457401  15.036  20.302   9.996 -0.0832  0.1830 -0.0618
34285POPC   GL157402  15.084  20.192   9.582  0.2340  0.1711  0.2949
34285POPC   GL257403  15.237  20.499   9.565  0.2075  0.0728  0.3139
34285POPC   C1A57404  14.721  20.287   9.325 -0.0887 -0.1833  0.1288
34285POPC   D2A57405  14.571  20.561   9.003 -0.1926 -0.0278 -0.1006
34285POPC   C3A57406  14.099  20.601   8.948 -0.3595 -0.0349  0.2020
34285POPC   C4A57407  13.703  20.715   8.718  0.3050 -0.2708 -0.0944
34285POPC   C1B57408  15.030  20.741   9.225  0.1247  0.1410 -0.0053
34285POPC   C2B57409  14.710  21.022   9.022  0.0410  0.2143 -0.0487
34285POPC   C3B57410  14.435  21.280   8.766 -0.0258 -0.2644  0.1390
34285POPC   C4B57411  14.444  21.704   8.626  0.0003  0.1973  0.1193
34286POPC   NC357412   3.655  23.471  15.580 -0.3305 -0.4133 -0.1242
34286POPC   PO457413   3.439  23.784  15.550  0.1609 -0.3131  0.2659
34286POPC   GL157414   3.520  23.936  16.013  0.3204 -0.0583  0.0202
34286POPC   GL257415   3.233  23.773  16.034  0.3299 -0.3696  0.3409
34286POPC   C1A57416   3.676  24.224  16.310 -0.1609 -0.1092 -0.0822
34286POPC   D2A57417   3.501  24.350  16.684  0.0151  0.1015 -0.2945
34286POPC   C3A57418   3.523  24.278  17.142  0.0338 -0.3968 -0.0766
34286POPC   C4A57419   3.437  24.100  17.561 -0.1875  0.0670  0.0700
34286POPC   C1B57420   3.455  23.561  16.371  0.2239 -0.0690 -0.0165
34286POPC   C2B57421   3.673  23.346  16.665 -0.1036 -0.0313  0.1956
34286POPC   C3B57422   3.899  22.972  16.979  0.3944  0.2991  0.3416
34286POPC   C4B57423   4.292  22.887  17.266  0.0813  0.3570 -0.1001
34287POPC   NC357424   2.874  26.153   8.582 -0.1555  0.1763 -0.0324
34287POPC   PO457425   2.646  25.880   8.716  0.1751  0.1515  0.0256
34287POPC   GL157426   2.916  25.691   8.505 -0.0289 -0.1669  0.1586
34287POPC   GL257427   2.907  25.841   8.199  0.3684  0.1984  0.0046
34287POPC   C1A57428   2.989  25.354   8.205 -0.0161 -0.1944  0.2066
34287POPC   D2A57429   3.063  25.099   7.818  0.1869  0.0137  0.0318
34287POPC   C3A57430   3.103  25.050   7.358 -0.0538 -0.0103 -0.1133
34287POPC   C4A57431   3.366  24.784   7.048 -0.0320 -0.1208 -0.0044
34287POPC   C1B57432   2.988  25.674   7.799 -0.1122 -0.0402  0.0488
34287POPC   C2B57433   3.279  25.528   7.459 -0.1440  0.2123  0.0068
34287POPC   C3B57434   3.589  25.280   7.178 -0.1905  0.1889 -0.2820
34287POPC   C4B57435   3.815  25.063   6.920 -0.1123 -0.0601 -0.3011
34288POPC   NC357436   4.416  28.091   9.139  0.1419 -0.2497  0.0796
34288POPC   PO457437   4.543  27.989   8.820  0.5564 -0.1769  0.1396
34288POPC   GL157438   4.553  27.990   8.367  0.0184 -0.0301 -0.3873
34288POPC   GL257439   4.365  28.206   8.287 -0.1023 -0.1729 -0.2949
34288POPC   C1A57440   4.773  28.146   7.951 -0.1986  0.1215  0.0972
34288POPC   D2A57441   4.801  28.280   7.517 -0.2306 -0.0564  0.2478
34288POPC   C3A57442   4.703  28.188   7.098  0.3908  0.0206  0.3492
34288POPC   C4A57443   4.576  28.341   6.658 -0.3227 -0.0491  0.3650
34288POPC   C1B57444   4.317  28.317   7.888  0.0785 -0.0545 -0.2440
34288POPC   C2B57445   4.291  28.179   7.417 -0.0358  0.2717 -0.0289
34288POPC   C3B57446   4.266  28.118   6.943 -0.2670  0.0614 -0.0540
34288POPC   C4B57447   4.094  28.374   6.628 -0.1139  0.2587 -0.0424
34289POPC   NC357448   1.403  19.104   9.452 -0.2555 -0.1384  0.0360
34289POPC   PO457449   1.515  18.754   9.234 -0.1774  0.0661  0.2267
34289POPC   GL157450   1.675  18.856   8.931  0.1226 -0.1239  0.1129
34289POPC   GL257451   1.731  19.196   8.811  0.1017  0.2647 -0.0558
34289POPC   C1A57452   1.599  18.859   8.447  0.0829  0.1084  0.2125
34289POPC   D2A57453   1.361  18.801   8.084  0.0130  0.3033 -0.4012
34289POPC   C3A57454   1.557  18.859   7.636  0.0091 -0.0665 -0.1156
34289POPC   C4A57455   1.550  19.294   7.399 -0.0041 -0.1729  0.0413
34289POPC   C1B57456   2.064  19.367   8.523  0.4517 -0.1232 -0.2468
34289POPC   C2B57457   2.213  19.432   8.096  0.0081 -0.2965 -0.1577
34289POPC   C3B57458   2.387  19.433   7.669 -0.1150  0.3725 -0.0535
34289POPC   C4B57459   2.520  19.530   7.279 -0.1160  0.3669  0.0413
34290POPC   NC357460  11.528  31.269   8.167  0.2748  0.1835  0.1020
34290POPC   PO457461  11.532  31.471   8.459  0.0522  0.1055 -0.1684
34290POPC   GL157462  11.355  31.674   8.269 -0.0418 -0.1113  0.0783
34290POPC   GL257463  11.069  31.706   8.261  0.0704 -0.0534 -0.0166
34290POPC   C1A57464  11.257  31.608   7.788  0.0119  0.0330 -0.0145
34290POPC   D2A57465  11.277  31.360   7.378  0.2261 -0.1617 -0.0218
34290POPC   C3A57466  11.226  31.606   7.026 -0.0507  0.1769 -0.0944
34290POPC   C4A57467  10.885  31.629   6.739  0.1742  0.4645 -0.3799
34290POPC   C1B57468  10.728  31.748   7.955 -0.1132  0.4333 -0.1399
34290POPC   C2B57469  10.535  31.985   7.578 -0.2358  0.2038 -0.1269
34290POPC   C3B57470  10.424  32.084   7.141 -0.2312 -0.2950  0.1617
34290POPC   C4B57471  10.438  31.949   6.651 -0.0062  0.0483 -0.2800
34291POPC   NC357472   5.221  32.718   9.162  0.1135 -0.1607 -0.0497
34291POPC   PO457473   5.558  32.902   9.236  0.2911 -0.0582  0.0606
34291POPC   GL157474   5.789  32.899   8.881 -0.0968 -0.0225  0.0654
34291POPC   GL257475   6.042  32.679   8.758 -0.3021  0.1441  0.2632
34291POPC   C1A57476   5.806  33.240   8.533  0.3409 -0.0246 -0.0281
34291POPC   D2A57477   5.578  33.419   8.214 -0.0159 -0.1648  0.1880
34291POPC   C3A57478   5.505  33.600   7.773  0.0147 -0.0437  0.0404
34291POPC   C4A57479   5.486  33.856   7.358 -0.0185 -0.1778 -0.0937
34291POPC   C1B57480   6.285  32.578   8.378 -0.1254  0.3679 -0.0608
34291POPC   C2B57481   6.490  32.391   7.969  0.2688  0.0540 -0.4783
34291POPC   C3B57482   6.509  32.422   7.545  0.0963  0.0457  0.0781
34291POPC   C4B57483   6.573  32.484   7.105  0.0185 -0.0661 -0.0027
34292POPC   NC357484   3.767  21.796   9.967  0.1214  0.0790  0.1783
34292POPC   PO457485   3.851  21.711  10.335  0.0181 -0.1130  0.0419
34292POPC   GL157486   4.250  21.605  10.104  0.0156  0.1971  0.2164
34292POPC   GL257487   4.527  21.744  10.147  0.2763 -0.0114 -0.0738
34292POPC   C1A57488   4.440  21.308   9.804  0.1032  0.1088  0.3343
34292POPC   D2A57489   4.337  21.027   9.415  0.2640  0.3380 -0.1804
34292POPC   C3A57490   4.440  21.013   8.983  0.0855 -0.5768 -0.5944
34292POPC   C4A57491   4.679  20.829   8.623  0.0459  0.1878 -0.0264
34292POPC   C1B57492   4.773  21.708   9.748 -0.3658  0.1382 -0.1989
34292POPC   C2B57493   5.074  21.599   9.434  0.2888  0.0186 -0.1200
34292POPC   C3B57494   5.333  21.527   9.058  0.0282  0.1562  0.4296
34292POPC   C4B57495   5.822  21.473   8.890  0.0267  0.1249  0.0087
34293POPC   NC357496  12.085  31.372  16.177 -0.1222 -0.0391  0.2712
34293POPC   PO457497  12.324  31.655  16.008 -0.0569  0.1914  0.0661
34293POPC   GL157498  12.401  31.756  16.302 -0.0731 -0.0097 -0.1602
34293POPC   GL257499  12.424  31.613  16.519  0.0423 -0.2587 -0.2520
34293POPC   C1A57500  12.002  31.849  16.498 -0.0077  0.0115  0.0597
34293POPC   D2A57501  11.655  32.178  16.588 -0.0292  0.2036  0.1139
34293POPC   C3A57502  11.379  32.295  16.865  0.1264 -0.2522 -0.0161
34293POPC   C4A57503  10.962  32.335  17.106  0.1577 -0.0575 -0.1300
34293POPC   C1B57504  12.400  31.773  16.962 -0.0862 -0.1451  0.1187
34293POPC   C2B57505  12.283  32.019  17.361 -0.0158 -0.0725 -0.2408
34293POPC   C3B57506  12.075  32.265  17.678  0.1781 -0.2006 -0.1958
34293POPC   C4B57507  12.067  32.721  17.779 -0.1372  0.2022 -0.1124
34294POPC   NC357508   4.252  16.994   9.291 -0.0064 -0.0461 -0.1921
34294POPC   PO457509   3.975  17.250   9.369  0.1407 -0.2064 -0.3494
34294POPC   GL157510   3.987  17.551   9.003 -0.1364 -0.1368 -0.1166
34294POPC   GL257511   3.782  17.462   8.880  0.2490  0.1123 -0.1855
34294POPC   C1A57512   4.126  17.576   8.581 -0.1766  0.0696 -0.1282
34294POPC   D2A57513   4.136  17.426   8.156  0.0421 -0.1064  0.2035
34294POPC   C3A57514   4.532  17.413   7.902  0.0785  0.1949 -0.2388
34294POPC   C4A57515   4.892  17.391   7.648  0.3136 -0.1683 -0.0818
34294POPC   C1B57516   3.683  17.559   8.429 -0.2512  0.0650 -0.0771
34294POPC   C2B57517   3.737  17.744   7.961 -0.2317  0.0048  0.2768
34294POPC   C3B57518   3.629  17.815   7.493  0.0337 -0.0071 -0.3373
34294POPC   C4B57519   3.477  18.044   7.103 -0.1787  0.3669  0.0883
34295POPC   NC357520  10.063  16.910  13.585 -0.2560 -0.0619  0.2654
34295POPC   PO457521   9.839  16.966  13.865 -0.0565 -0.1017 -0.1763
34295POPC   GL157522   9.776  17.111  14.250  0.1032  0.4109  0.1765
34295POPC   GL257523  10.094  17.114  14.376  0.0906  0.3984 -0.2000
34295POPC   C1A57524   9.421  17.426  14.357  0.1707 -0.1800 -0.0446
34295POPC   D2A57525   9.244  17.789  14.612 -0.2150 -0.2133  0.1532
34295POPC   C3A57526   9.291  18.230  14.604 -0.0728  0.0505 -0.1021
34295POPC   C4A57527   9.061  18.548  14.828 -0.0521  0.0827 -0.1208
34295POPC   C1B57528  10.214  17.519  14.374  0.2079 -0.3196  0.3775
34295POPC   C2B57529  10.392  17.937  14.429  0.1334  0.1127 -0.3210
34295POPC   C3B57530  10.378  18.314  14.718 -0.1055  0.2655  0.0064
34295POPC   C4B57531  10.333  18.617  15.067  0.1481 -0.1972  0.1629
34296POPC   NC357532   2.617  22.514   9.600 -0.0180  0.0837  0.0882
34296POPC   PO457533   2.632  22.451   9.207 -0.0581 -0.0737  0.1828
34296POPC   GL157534   2.938  22.604   9.069 -0.3775 -0.4259  0.3662
34296POPC   GL257535   3.118  22.710   9.208 -0.0838  0.3330  0.0793
34296POPC   C1A57536   3.018  22.646   8.609  0.0428 -0.1077 -0.0566
34296POPC   D2A57537   2.761  22.550   8.267 -0.2310 -0.0875 -0.0778
34296POPC   C3A57538   2.356  22.517   8.001 -0.1588  0.1108  0.1348
34296POPC   C4A57539   2.337  22.619   7.555 -0.2077  0.0690  0.0126
34296POPC   C1B57540   3.413  22.530   8.885  0.0791 -0.0971  0.0221
34296POPC   C2B57541   3.552  22.451   8.469  0.1791  0.1220 -0.2561
34296POPC   C3B57542   3.791  22.402   8.048 -0.0319  0.0231 -0.4370
34296POPC   C4B57543   4.040  22.519   7.626 -0.1522  0.2327  0.0141
34297POPC   NC357544  13.487  30.152   8.572 -0.0790  0.1445  0.0164
34297POPC   PO457545  13.860  29.998   8.587  0.0594  0.1228 -0.0117
34297POPC   GL157546  13.730  29.962   8.273  0.0180  0.2562  0.3840
34297POPC   GL257547  13.958  30.162   8.130 -0.1280  0.0398  0.0934
34297POPC   C1A57548  13.916  29.704   7.875 -0.1184 -0.2851  0.2110
34297POPC   D2A57549  13.851  29.372   7.583  0.2093  0.2913  0.0528
34297POPC   C3A57550  13.653  29.334   7.166  0.4018 -0.4183  0.0604
34297POPC   C4A57551  13.615  29.511   6.708  0.1929  0.0333  0.2717
34297POPC   C1B57552  13.759  30.137   7.739  0.2108  0.1190  0.0552
34297POPC   C2B57553  13.684  30.263   7.311 -0.0190 -0.0648  0.1268
34297POPC   C3B57554  13.281  30.461   7.214  0.0416  0.3190 -0.0286
34297POPC   C4B57555  13.161  30.876   7.346 -0.1775 -0.0194  0.0947
34298POPC   NC357556   5.946  23.696  11.981  0.0323  0.0232 -0.1834
34298POPC   PO457557   5.600  23.527  12.043  0.1134  0.1572  0.3182
34298POPC   GL157558   5.654  23.094  11.967  0.2542  0.2861 -0.1772
34298POPC   GL257559   5.770  23.103  11.765  0.0622 -0.0257 -0.0321
34298POPC   C1A57560   6.026  22.745  12.006 -0.0626 -0.1652 -0.1005
34298POPC   D2A57561   6.309  22.435  11.792  0.3056 -0.2788  0.2670
34298POPC   C3A57562   6.763  22.284  11.643  0.0516  0.1225 -0.1356
34298POPC   C4A57563   7.058  22.083  11.275 -0.1574 -0.2977  0.1107
34298POPC   C1B57564   6.174  22.906  11.555 -0.4210 -0.0193 -0.0839
34298POPC   C2B57565   6.517  22.642  11.302 -0.1065 -0.0473 -0.0863
34298POPC   C3B57566   6.834  22.813  11.005  0.0381  0.2648 -0.2992
34298POPC   C4B57567   7.201  22.560  10.836 -0.1752 -0.1382 -0.0443
34299POPC   NC357568   2.025  20.636   9.547  0.0895 -0.0146  0.2075
34299POPC   PO457569   1.931  20.624   9.191  0.1924 -0.2690  0.0187
34299POPC   GL157570   2.042  20.602   8.857 -0.1715  0.1523  0.1740
34299POPC   GL257571   1.866  20.411   8.657 -0.1463 -0.0392  0.1708
34299POPC   C1A57572   2.101  20.868   8.456  0.2347 -0.1087  0.2229
34299POPC   D2A57573   2.366  21.181   8.187 -0.0580  0.1196 -0.4201
34299POPC   C3A57574   2.421  21.266   7.794  0.0417  0.2924  0.2014
34299POPC   C4A57575   2.431  21.000   7.381 -0.1796 -0.0889 -0.2639
34299POPC   C1B57576   1.746  20.611   8.236  0.0973  0.2115 -0.0432
34299POPC   C2B57577   1.619  20.667   7.816  0.2309  0.0474 -0.0217
34299POPC   C3B57578   1.676  20.623   7.350  0.1380  0.0529  0.0201
34299POPC   C4B57579   2.047  20.796   7.137 -0.1129 -0.2283 -0.0146
34300POPC   NC357580  15.309  30.658   7.980 -0.1518 -0.2259  0.2818
34300POPC   PO457581  15.665  30.489   7.921  0.2004 -0.3173  0.0695
34300POPC   GL157582  15.534  30.603   7.550  0.2779  0.0202 -0.2550
34300POPC   GL257583  15.236  30.441   7.552 -0.3085  0.0083 -0.2093
34300POPC   C1A57584  15.618  30.285   7.250  0.1623 -0.0359 -0.2255
34300POPC   D2A57585  15.830  30.143   6.861 -0.4258 -0.0355 -0.0937
34300POPC   C3A57586  15.432  29.921   6.575 -0.2752 -0.2542  0.0328
34300POPC   C4A57587  15.241  29.612   6.346  0.0390 -0.0125  0.1028
34300POPC   C1B57588  15.204  30.658   7.142  0.2800  0.1180  0.0045
34300POPC   C2B57589  14.921  30.714   6.760 -0.0394 -0.2968  0.0075
34300POPC   C3B57590  14.749  31.048   6.541  0.2219 -0.2863  0.1051
34300POPC   C4B57591  14.701  31.361   6.221 -0.0280 -0.0936  0.1429
34301POPC   NC357592  10.489  29.056   9.151 -0.0737  0.0971  0.0461
34301POPC   PO457593  10.188  28.861   9.301 -0.1239  0.0978 -0.0445
34301POPC   GL157594  10.022  28.450   9.256 -0.3832  0.1108 -0.2368
34301POPC   GL257595   9.825  28.505   9.083 -0.0193 -0.0806 -0.3429
34301POPC   C1A57596   9.936  28.038   9.044  0.0477  0.1987  0.3699
34301POPC   D2A57597   9.727  27.948   8.694 -0.0867 -0.0032  0.2610
34301POPC   C3A57598   9.797  27.664   8.274  0.2281  0.3062 -0.4311
34301POPC   C4A57599  10.117  27.407   8.103  0.1255  0.0773  0.3401
34301POPC   C1B57600   9.956  28.447   8.672  0.0133  0.1034  0.0515
34301POPC   C2B57601  10.176  28.636   8.317  0.0960 -0.1163 -0.2370
34301POPC   C3B57602  10.376  28.816   7.969 -0.1164 -0.2062 -0.2160
34301POPC   C4B57603  10.479  28.690   7.540  0.0326 -0.1594  0.0932
34302POPC   NC357604   6.258  30.826   9.038  0.1704  0.3320 -0.1368
34302POPC   PO457605   6.120  30.583   8.747  0.0854 -0.0969 -0.2721
34302POPC   GL157606   6.212  30.455   8.330  0.5144 -0.0016  0.3504
34302POPC   GL257607   6.615  30.470   8.276 -0.2743  0.0434 -0.2010
34302POPC   C1A57608   6.385  30.736   7.951  0.0749  0.1718 -0.0289
34302POPC   D2A57609   6.536  30.773   7.488  0.0212  0.3418  0.2134
34302POPC   C3A57610   6.926  31.013   7.424  0.0063  0.2138 -0.1695
34302POPC   C4A57611   7.362  31.160   7.305 -0.0315 -0.1423  0.1294
34302POPC   C1B57612   6.915  30.716   8.019 -0.4056 -0.2044 -0.1489
34302POPC   C2B57613   7.068  30.557   7.582  0.0435 -0.0853  0.2747
34302POPC   C3B57614   7.322  30.682   7.161 -0.0567  0.1943 -0.3390
34302POPC   C4B57615   7.484  30.939   6.794 -0.4358 -0.2501  0.3446
34303POPC   NC357616   1.356  16.484   8.378 -0.0393  0.3013  0.0266
34303POPC   PO457617   0.952  16.492   8.372 -0.0004 -0.1001 -0.2238
34303POPC   GL157618   1.104  16.399   8.037  0.6759  0.2237  0.2490
34303POPC   GL257619   0.824  16.237   7.920 -0.3063  0.0469  0.1745
34303POPC   C1A57620   1.243  16.446   7.588 -0.0598 -0.1028 -0.0502
34303POPC   D2A57621   1.471  16.246   7.208  0.1743  0.1758  0.0726
34303POPC   C3A57622   1.393  16.431   6.791  0.1048 -0.1140 -0.1011
34303POPC   C4A57623   1.151  16.719   6.488 -0.0579 -0.0321  0.1587
34303POPC   C1B57624   0.775  16.315   7.448  0.0516 -0.2404  0.3293
34303POPC   C2B57625   0.590  16.257   7.001  0.2315 -0.2960 -0.1416
34303POPC   C3B57626   0.381  16.255   6.651  0.2966  0.2530  0.3416
34303POPC   C4B57627   0.429  16.036   6.228  0.0513 -0.3170  0.2558
34304POPC   NC357628   1.540  30.238   7.642 -0.0183  0.3571 -0.2052
34304POPC   PO457629   1.582  29.904   7.832  0.1269  0.0232 -0.0638
34304POPC   GL157630   1.680  29.838   7.474 -0.1472 -0.0258 -0.0742
34304POPC   GL257631   1.380  29.834   7.354  0.1286 -0.1034  0.4128
34304POPC   C1A57632   1.672  29.766   7.019  0.3735 -0.0144 -0.1751
34304POPC   D2A57633   1.807  29.734   6.583  0.1125  0.0164  0.0593
34304POPC   C3A57634   1.768  29.952   6.210 -0.2533 -0.2475 -0.0319
34304POPC   C4A57635   1.575  30.157   5.796  0.1551 -0.2956 -0.3104
34304POPC   C1B57636   1.129  29.634   7.033 -0.1880  0.2167  0.0868
34304POPC   C2B57637   1.084  29.359   6.685  0.0119 -0.1293  0.0516
34304POPC   C3B57638   1.186  29.037   6.362  0.0809 -0.0785  0.3527
34304POPC   C4B57639   1.139  28.900   5.917 -0.0263  0.0733 -0.1021
34305POPC   NC357640  14.704  20.984  11.680  0.0629  0.0294 -0.0282
34305POPC   PO457641  14.793  20.833  11.337 -0.0242 -0.1753  0.0719
34305POPC   GL157642  14.361  20.883  11.269  0.0216 -0.0952  0.3561
34305POPC   GL257643  14.499  20.995  10.956  0.1485  0.1035  0.0554
34305POPC   C1A57644  13.966  20.610  11.389  0.3276  0.0869  0.0728
34305POPC   D2A57645  13.612  20.398  11.200  0.4181 -0.0313 -0.0175
34305POPC   C3A57646  13.324  20.246  10.846  0.1337  0.2077 -0.0793
34305POPC   C4A57647  12.994  20.215  10.612  0.0933 -0.0467 -0.3658
34305POPC   C1B57648  14.035  21.101  11.040  0.1050 -0.0426  0.0881
34305POPC   C2B57649  13.558  21.001  11.159 -0.2012 -0.4042 -0.2384
34305POPC   C3B57650  13.073  20.856  11.045  0.0042 -0.0635 -0.1522
34305POPC   C4B57651  12.730  21.177  11.040  0.0077 -0.4500  0.0900
34306POPC   NC357652   5.037  22.222  14.599 -0.3685  0.4208  0.0077
34306POPC   PO457653   5.145  22.580  14.460 -0.2334  0.1849  0.4403
34306POPC   GL157654   5.378  22.530  14.776 -0.2435 -0.1993 -0.1762
34306POPC   GL257655   5.631  22.698  14.636  0.2476 -0.1643 -0.1243
34306POPC   C1A57656   5.373  22.598  15.278  0.3006 -0.0803 -0.4546
34306POPC   D2A57657   5.781  22.621  15.516  0.1606  0.1039 -0.1716
34306POPC   C3A57658   5.670  22.537  15.970  0.1403 -0.3117 -0.3616
34306POPC   C4A57659   5.600  22.401  16.427  0.0025 -0.0509 -0.1054
34306POPC   C1B57660   6.043  22.838  14.577 -0.2540  0.2741  0.0373
34306POPC   C2B57661   6.293  23.206  14.481 -0.1946 -0.6088 -0.0024
34306POPC   C3B57662   6.656  23.433  14.662  0.0212 -0.1118 -0.1081
34306POPC   C4B57663   6.994  23.327  14.937 -0.0711  0.1345 -0.0032
34307POPC   NC357664  14.443  24.675  10.399  0.1641  0.0326  0.1620
34307POPC   PO457665  14.752  24.599  10.143 -0.1903 -0.0625 -0.1596
34307POPC   GL157666  14.790  24.475   9.785  0.1714  0.0976 -0.1431
34307POPC   GL257667  14.890  24.650   9.541  0.4520 -0.0187  0.1476
34307POPC   C1A57668  14.853  24.015   9.569  0.2082 -0.2225 -0.0130
34307POPC   D2A57669  14.588  23.644   9.616 -0.2426 -0.0774 -0.0458
34307POPC   C3A57670  14.128  23.755   9.522 -0.1625  0.0089  0.2549
34307POPC   C4A57671  13.889  24.108   9.676  0.0328  0.1296  0.4065
34307POPC   C1B57672  14.503  24.813   9.307 -0.2744 -0.3003  0.0458
34307POPC   C2B57673  14.185  24.471   9.076  0.0534  0.0157  0.2884
34307POPC   C3B57674  14.019  24.060   8.949 -0.1057  0.2958  0.2316
34307POPC   C4B57675  14.031  23.598   8.961  0.1409 -0.1525  0.2707
34308POPC   NC357676   5.766  22.894  12.391 -0.1442  0.0205  0.0367
34308POPC   PO457677   5.511  22.843  12.705 -0.1584  0.1028  0.0259
34308POPC   GL157678   5.984  22.850  12.794  0.2108 -0.0142  0.1364
34308POPC   GL257679   6.189  22.898  12.598  0.1167 -0.1228  0.1033
34308POPC   C1A57680   6.329  22.652  13.008 -0.0218  0.0396  0.2425
34308POPC   D2A57681   6.784  22.524  13.076  0.0034  0.0267  0.0840
34308POPC   C3A57682   7.052  22.154  13.032 -0.1329  0.1304 -0.0335
34308POPC   C4A57683   7.509  22.052  12.931  0.0439 -0.1324 -0.0002
34308POPC   C1B57684   6.406  22.655  12.278 -0.2793 -0.1399  0.1755
34308POPC   C2B57685   6.627  22.242  12.180 -0.3043 -0.1710 -0.1882
34308POPC   C3B57686   6.987  21.986  12.112  0.0509  0.0753  0.1091
34308POPC   C4B57687   7.337  21.773  12.097 -0.2315  0.1963  0.0664
34309POPC   NC357688   7.758  29.516   8.846 -0.0009  0.0991 -0.1319
34309POPC   PO457689   7.834  29.852   9.079 -0.1223  0.1383  0.0012
34309POPC   GL157690   8.127  29.769   8.813 -0.1272  0.0798 -0.1903
34309POPC   GL257691   8.323  29.534   8.770  0.0463 -0.0605  0.1609
34309POPC   C1A57692   8.304  30.013   8.396  0.0336  0.0444 -0.1234
34309POPC   D2A57693   8.382  30.294   8.042  0.2113 -0.1123  0.1467
34309POPC   C3A57694   8.392  30.301   7.625 -0.3165  0.0547  0.2318
34309POPC   C4A57695   8.373  30.511   7.255 -0.1177 -0.0338 -0.0304
34309POPC   C1B57696   8.142  29.381   8.373 -0.0048  0.1226 -0.1184
34309POPC   C2B57697   8.251  29.420   7.858  0.0618  0.1009  0.0255
34309POPC   C3B57698   8.527  29.486   7.477 -0.1332 -0.3844  0.0412
34309POPC   C4B57699   8.760  29.545   7.069  0.0349  0.0893 -0.0456
34310POPC   NC357700   3.318  28.603   8.303  0.1472  0.3012  0.3578
34310POPC   PO457701   3.181  28.964   8.411  0.1008  0.1177  0.1522
34310POPC   GL157702   3.167  29.017   7.998 -0.4394 -0.0217 -0.0817
34310POPC   GL257703   3.066  28.734   7.853 -0.0265  0.0638 -0.3253
34310POPC   C1A57704   3.237  29.196   7.536  0.1237  0.0425  0.0076
34310POPC   D2A57705   3.013  29.317   7.149 -0.0145  0.0969 -0.0117
34310POPC   C3A57706   2.893  29.285   6.676  0.0763 -0.0450 -0.2245
34310POPC   C4A57707   2.993  29.005   6.355  0.0363 -0.4788  0.1660
34310POPC   C1B57708   2.891  28.662   7.411 -0.0623  0.1128  0.2882
34310POPC   C2B57709   2.963  28.679   6.938 -0.2243  0.2609  0.3776
34310POPC   C3B57710   2.992  28.492   6.555  0.1560  0.4267  0.0061
34310POPC   C4B57711   3.216  28.516   6.201 -0.1326  0.1931  0.3466
34311POPC   NC357712  15.113  23.366  10.314 -0.1912  0.3581 -0.1363
34311POPC   PO457713  15.424  23.549  10.223  0.2443  0.1928 -0.1022
34311POPC   GL157714  15.354  23.591   9.861 -0.1738 -0.3481 -0.0151
34311POPC   GL257715  15.175  23.743   9.898  0.1300 -0.2445  0.1039
34311POPC   C1A57716  15.022  23.462   9.517 -0.3755 -0.0213 -0.1689
34311POPC   D2A57717  14.774  23.139   9.364  0.0470 -0.1397  0.0531
34311POPC   C3A57718  14.337  23.191   9.279 -0.0152 -0.0006  0.1381
34311POPC   C4A57719  14.024  22.844   9.315  0.0257  0.0483  0.1557
34311POPC   C1B57720  15.319  24.089   9.619  0.0827 -0.3119  0.1782
34311POPC   C2B57721  15.483  24.077   9.162 -0.3454  0.1722 -0.1959
34311POPC   C3B57722  15.340  24.100   8.717  0.0216  0.5886 -0.1901
34311POPC   C4B57723  15.190  24.150   8.256  0.1482  0.0243  0.1030
34312POPC   NC357724  14.475  25.324  11.178  0.0991 -0.2106  0.0595
34312POPC   PO457725  14.160  25.537  11.041 -0.2916  0.2977 -0.0850
34312POPC   GL157726  13.821  25.459  11.063  0.0382  0.1526 -0.1478
34312POPC   GL257727  13.633  25.682  11.107 -0.1315  0.3771 -0.1862
34312POPC   C1A57728  13.569  25.066  10.939 -0.0206 -0.2126  0.1265
34312POPC   D2A57729  13.412  24.753  10.563 -0.1141  0.0825 -0.1119
34312POPC   C3A57730  13.065  24.407  10.573  0.0014 -0.1431  0.1432
34312POPC   C4A57731  12.617  24.350  10.500 -0.1984 -0.0794  0.1377
34312POPC   C1B57732  13.351  25.518  10.741  0.0211 -0.2746  0.0079
34312POPC   C2B57733  13.081  25.120  10.756 -0.2175  0.0419  0.0089
34312POPC   C3B57734  12.717  24.827  10.657 -0.0422 -0.0769 -0.1904
34312POPC   C4B57735  12.270  24.776  10.670  0.3534  0.2167  0.2210
34313POPC   NC357736   2.556  30.481   8.058  0.2351 -0.1742  0.2443
34313POPC   PO457737   2.199  30.313   7.907  0.1203  0.2515  0.1812
34313POPC   GL157738   2.068  30.273   7.500  0.0058  0.0016 -0.0951
34313POPC   GL257739   2.305  30.181   7.400 -0.0851 -0.1108  0.4126
34313POPC   C1A57740   1.820  30.269   7.114 -0.0319  0.3243  0.0564
34313POPC   D2A57741   1.797  30.198   6.652 -0.0872 -0.0655 -0.0179
34313POPC   C3A57742   1.775  30.441   6.253 -0.2860 -0.0464 -0.2695
34313POPC   C4A57743   1.988  30.762   5.991 -0.0449 -0.3776 -0.2599
34313POPC   C1B57744   2.733  30.140   7.257 -0.1938 -0.2859 -0.0797
34313POPC   C2B57745   3.059  30.057   6.875  0.0831  0.0811  0.0790
34313POPC   C3B57746   3.017  30.025   6.427 -0.3152 -0.1141 -0.0334
34313POPC   C4B57747   3.394  30.007   6.194 -0.2056 -0.4718 -0.1058
34314POPC   NC357748   0.688  23.756   9.315 -0.0928 -0.1187 -0.2970
34314POPC   PO457749   0.474  24.114   9.390 -0.0501  0.1101  0.0880
34314POPC   GL157750   0.467  24.154   9.013 -0.2467 -0.1416  0.0049
34314POPC   GL257751   0.128  24.152   8.978 -0.2509 -0.2417 -0.0273
34314POPC   C1A57752   0.731  23.834   8.737  0.1333  0.0393  0.2661
34314POPC   D2A57753   0.892  23.769   8.281  0.1199 -0.1472  0.0685
34314POPC   C3A57754   0.724  23.531   7.912  0.0235 -0.1825 -0.1511
34314POPC   C4A57755   0.475  23.240   7.641 -0.0233  0.1306 -0.0441
34314POPC   C1B57756  -0.107  23.857   8.648  0.1116  0.0550 -0.0787
34314POPC   C2B57757  -0.543  23.786   8.483  0.2481  0.0039  0.1363
34314POPC   C3B57758  -0.865  23.818   8.171  0.0164  0.1664  0.1916
34314POPC   C4B57759  -1.285  23.646   8.014 -0.3005  0.1573  0.2293
34315POPC   NC357760  10.962  17.109   9.820  0.0023  0.0682  0.0777
34315POPC   PO457761  10.651  17.245  10.015 -0.0874 -0.1863 -0.0913
34315POPC   GL157762  10.737  17.581   9.940  0.1728 -0.0668 -0.0653
34315POPC   GL257763  10.898  17.563   9.681 -0.1547 -0.3359 -0.0368
34315POPC   C1A57764  10.996  17.967   9.936  0.1074  0.0042  0.0119
34315POPC   D2A57765  11.089  18.310   9.593 -0.0195  0.2780 -0.0368
34315POPC   C3A57766  10.947  18.693   9.497 -0.0050 -0.0558 -0.0694
34315POPC   C4A57767  10.779  19.165   9.527  0.0909  0.1528  0.0354
34315POPC   C1B57768  10.588  17.886   9.595 -0.0198 -0.2148 -0.0051
34315POPC   C2B57769  10.585  18.341   9.461 -0.0037  0.0801  0.1132
34315POPC   C3B57770  10.433  18.776   9.399  0.1413  0.0558  0.4489
34315POPC   C4B57771  10.271  19.182   9.555 -0.0282  0.1037 -0.0487
34316POPC   NC357772   2.277  29.321   7.993 -0.2159 -0.1911  0.0491
34316POPC   PO457773   2.264  29.415   7.609  0.0324  0.4222 -0.1806
34316POPC   GL157774   2.130  29.537   7.281  0.0715  0.3462 -0.2476
34316POPC   GL257775   2.073  29.798   7.231  0.0779 -0.1102 -0.2634
34316POPC   C1A57776   2.220  29.499   6.831 -0.1996 -0.4167  0.1387
34316POPC   D2A57777   2.258  29.600   6.351  0.0047 -0.0751  0.0213
34316POPC   C3A57778   1.923  29.420   6.073  0.2362  0.0481 -0.0727
34316POPC   C4A57779   1.467  29.405   6.212  0.0741  0.0823  0.0718
34316POPC   C1B57780   2.231  30.043   6.879 -0.2337 -0.3760  0.2423
34316POPC   C2B57781   2.538  30.374   6.813  0.1685  0.2026  0.0288
34316POPC   C3B57782   2.756  30.524   6.393  0.0141  0.2033  0.0518
34316POPC   C4B57783   2.998  30.621   6.055  0.0604 -0.1245 -0.0125
34317POPC   NC357784   1.964  25.253   9.154 -0.0418 -0.3273 -0.4092
34317POPC   PO457785   2.146  25.632   9.138  0.1342 -0.0903  0.2661
34317POPC   GL157786   2.213  25.350   8.780 -0.2259  0.0285  0.0715
34317POPC   GL257787   1.916  25.248   8.669 -0.0823  0.0653  0.1279
34317POPC   C1A57788   2.377  25.369   8.311  0.0686 -0.1331  0.1866
34317POPC   D2A57789   2.589  25.327   7.883  0.0354 -0.0780  0.1635
34317POPC   C3A57790   2.239  25.501   7.543  0.2048  0.0581  0.0827
34317POPC   C4A57791   2.055  25.342   7.112  0.0656 -0.4190 -0.3340
34317POPC   C1B57792   1.912  25.263   8.183 -0.0701  0.2495 -0.0492
34317POPC   C2B57793   1.758  25.528   7.813  0.1116 -0.1128  0.2357
34317POPC   C3B57794   1.874  25.753   7.367 -0.0423 -0.2847  0.1038
34317POPC   C4B57795   1.932  25.770   6.886 -0.1190  0.2956 -0.2497
34318POPC   NC357796   3.386  24.383   9.772 -0.5596 -0.0860  0.0763
34318POPC   PO457797   3.550  24.548   9.463 -0.0119  0.0884 -0.1096
34318POPC   GL157798   3.870  24.730   9.377  0.3357 -0.1548  0.2009
34318POPC   GL257799   4.047  24.687   9.534 -0.1867  0.2108  0.2503
34318POPC   C1A57800   4.007  24.854   8.954 -0.0909 -0.0621 -0.3078
34318POPC   D2A57801   4.156  25.123   8.590 -0.1520 -0.0166 -0.1689
34318POPC   C3A57802   4.467  24.965   8.236 -0.0859 -0.1594  0.2099
34318POPC   C4A57803   4.570  24.549   8.165 -0.0966 -0.1185  0.1378
34318POPC   C1B57804   4.451  24.735   9.272  0.1532  0.3490 -0.0834
34318POPC   C2B57805   4.664  24.716   8.833 -0.0440  0.1185  0.3353
34318POPC   C3B57806   4.951  24.708   8.460  0.0998 -0.1695 -0.0234
34318POPC   C4B57807   5.234  24.414   8.214 -0.0741 -0.0587 -0.0675
34319POPC   NC357808  14.349   0.712   8.980 -0.2090  0.0950 -0.1761
34319POPC   PO457809  14.240   0.424   9.219 -0.0500 -0.2820 -0.0239
34319POPC   GL157810  14.053   0.308   8.850  0.0955 -0.2294  0.0489
34319POPC   GL257811  13.941   0.573   8.743 -0.2456  0.1703 -0.0224
34319POPC   C1A57812  14.238   0.176   8.443 -0.2324 -0.2136  0.3033
34319POPC   D2A57813  14.373  -0.079   8.107  0.0629  0.0451 -0.1315
34319POPC   C3A57814  14.396   0.015   7.659 -0.0651 -0.0701  0.0341
34319POPC   C4A57815  14.515   0.187   7.285  0.1697  0.2293 -0.1142
34319POPC   C1B57816  13.781   0.587   8.271 -0.2005 -0.0002  0.1585
34319POPC   C2B57817  13.777   0.557   7.799  0.0551 -0.0950 -0.0748
34319POPC   C3B57818  13.614   0.758   7.410 -0.0230 -0.1875 -0.2046
34319POPC   C4B57819  13.628   1.132   7.185  0.1841 -0.0538  0.2160
34320POPC   NC357820   6.948  18.942  11.569  0.0093 -0.1318  0.0581
34320POPC   PO457821   6.885  19.208  11.244 -0.1651 -0.0717 -0.0060
34320POPC   GL157822   6.928  19.478  11.468  0.1552 -0.2236  0.1740
34320POPC   GL257823   7.152  19.465  11.623 -0.0390  0.3240 -0.2045
34320POPC   C1A57824   7.069  19.946  11.495  0.4298  0.3375  0.1010
34320POPC   D2A57825   7.416  20.096  11.198 -0.2288 -0.3249 -0.0597
34320POPC   C3A57826   7.694  20.392  11.429 -0.1170 -0.0132  0.2274
34320POPC   C4A57827   8.033  20.157  11.700 -0.1115 -0.1197 -0.1303
34320POPC   C1B57828   7.503  19.692  11.442 -0.0749 -0.0832 -0.1668
34320POPC   C2B57829   7.866  19.955  11.283  0.0927  0.2457 -0.1177
34320POPC   C3B57830   8.125  20.244  11.162  0.0879 -0.3165  0.1995
34320POPC   C4B57831   8.502  20.278  10.966  0.2062  0.4475 -0.1942
34321POPC   NC357832   7.776  17.414  10.153  0.0043 -0.2177 -0.0721
34321POPC   PO457833   7.846  17.058  10.085 -0.0137 -0.0247  0.0760
34321POPC   GL157834   7.900  17.301   9.753  0.2384 -0.1900 -0.2703
34321POPC   GL257835   8.108  17.480   9.722 -0.0361 -0.1187  0.1438
34321POPC   C1A57836   7.531  17.554   9.529  0.0101 -0.0641 -0.0260
34321POPC   D2A57837   7.253  17.922   9.670 -0.2338  0.0974 -0.0097
34321POPC   C3A57838   7.213  18.299   9.332 -0.3278 -0.1265 -0.3240
34321POPC   C4A57839   7.393  18.668   9.097  0.0470 -0.1051  0.0221
34321POPC   C1B57840   8.005  17.664   9.344 -0.1007 -0.2426 -0.1651
34321POPC   C2B57841   7.633  17.957   9.217 -0.1552 -0.0739  0.1884
34321POPC   C3B57842   7.455  18.238   8.852  0.0696  0.1452  0.0064
34321POPC   C4B57843   7.394  18.607   8.614  0.2370 -0.1745 -0.1096
34322POPC   NC357844  10.187  27.970   9.923 -0.1171 -0.0948  0.0136
34322POPC   PO457845  10.550  27.839   9.882  0.1793 -0.0671  0.0827
34322POPC   GL157846  10.645  27.580   9.496 -0.2157 -0.3456 -0.0284
34322POPC   GL257847  10.478  27.363   9.561  0.2221 -0.2052 -0.3072
34322POPC   C1A57848  10.698  27.320   9.118 -0.0905 -0.1232 -0.2279
34322POPC   D2A57849  10.806  27.138   8.677 -0.1046  0.1475 -0.1202
34322POPC   C3A57850  10.723  27.449   8.345 -0.1412  0.1347  0.1355
34322POPC   C4A57851  11.004  27.647   8.048 -0.1020  0.1331  0.2062
34322POPC   C1B57852  10.226  27.043   9.451 -0.0205  0.1692  0.0120
34322POPC   C2B57853   9.929  26.714   9.326 -0.3189  0.1063  0.0204
34322POPC   C3B57854   9.711  26.283   9.320 -0.3970 -0.0374 -0.3477
34322POPC   C4B57855   9.503  26.038   9.025  0.1541 -0.1044  0.3531
34323POPC   NC357856   5.057  23.137  14.356  0.1455  0.0169  0.0403
34323POPC   PO457857   5.428  23.081  14.408  0.0133 -0.1387  0.2697
34323POPC   GL157858   5.754  23.182  14.721  0.3931  0.0152 -0.2420
34323POPC   GL257859   5.592  23.076  14.959 -0.1683  0.0107  0.3001
34323POPC   C1A57860   6.123  23.178  14.999 -0.1503 -0.3254  0.3442
34323POPC   D2A57861   6.557  23.140  15.091 -0.1065 -0.0586  0.0284
34323POPC   C3A57862   6.838  22.767  15.266 -0.1734 -0.1102  0.0160
34323POPC   C4A57863   6.939  22.307  15.371 -0.1526  0.0610 -0.1188
34323POPC   C1B57864   5.286  23.115  15.293 -0.0200 -0.0216  0.1990
34323POPC   C2B57865   5.372  22.989  15.719 -0.1099 -0.3153 -0.1143
34323POPC   C3B57866   5.764  23.030  15.889 -0.0040 -0.0842  0.0587
34323POPC   C4B57867   6.145  22.875  15.889 -0.0465 -0.1137  0.0632
34324POPC   NC357868   4.128  23.370  14.741  0.2074  0.5698 -0.4261
34324POPC   PO457869   3.774  23.237  14.863  0.0079 -0.0248  0.1124
34324POPC   GL157870   4.124  23.192  15.186 -0.1672 -0.2847  0.1266
34324POPC   GL257871   4.373  23.322  15.253 -0.0240  0.0641 -0.3831
34324POPC   C1A57872   4.031  23.106  15.655  0.1634 -0.0827  0.1359
34324POPC   D2A57873   3.951  23.431  15.966 -0.1044  0.2294  0.0492
34324POPC   C3A57874   4.114  23.469  16.364  0.0548 -0.0273  0.1432
34324POPC   C4A57875   4.144  23.538  16.792  0.3101  0.0012 -0.0023
34324POPC   C1B57876   4.371  23.507  15.704 -0.1880 -0.0596  0.0016
34324POPC   C2B57877   4.458  23.782  16.054 -0.1896 -0.1962 -0.0546
34324POPC   C3B57878   4.825  23.888  16.329  0.0091  0.0965  0.0831
34324POPC   C4B57879   5.021  23.732  16.690  0.4677  0.4582 -0.4195
34325POPC   NC357880  11.398  28.419   9.798 -0.2099 -0.4396  0.0035
34325POPC   PO457881  11.050  28.492   9.967 -0.0138 -0.2013  0.3635
34325POPC   GL157882  10.952  28.148   9.754  0.0629 -0.0733  0.0649
34325POPC   GL257883  10.845  28.188   9.513  0.3516 -0.1952 -0.0789
34325POPC   C1A57884  11.030  27.793   9.420 -0.0839 -0.2446  0.3602
34325POPC   D2A57885  11.212  27.556   9.062  0.0394  0.0458 -0.2193
34325POPC   C3A57886  11.520  27.176   9.228 -0.0219  0.0843 -0.0656
34325POPC   C4A57887  11.616  26.915   9.571  0.2129 -0.0713  0.1741
34325POPC   C1B57888  10.719  28.028   9.072  0.1696 -0.0355 -0.0520
34325POPC   C2B57889  10.887  27.714   8.774 -0.0332 -0.3348 -0.0448
34325POPC   C3B57890  11.215  27.495   8.469  0.0663  0.2122 -0.0792
34325POPC   C4B57891  11.638  27.448   8.236  0.1941  0.4243  0.0977
34326POPC   NC357892   2.019  21.068   9.023 -0.2504 -0.0000 -0.0394
34326POPC   PO457893   1.758  21.325   8.975  0.0378  0.1128  0.0121
34326POPC   GL157894   1.600  21.523   8.623 -0.4305 -0.1490  0.1512
34326POPC   GL257895   1.610  21.214   8.482  0.1003  0.1137 -0.2651
34326POPC   C1A57896   1.758  21.633   8.214 -0.3780  0.2714 -0.0187
34326POPC   D2A57897   2.074  21.589   7.867 -0.0303 -0.1358 -0.2833
34326POPC   C3A57898   1.676  21.499   7.626 -0.1336 -0.0795  0.1287
34326POPC   C4A57899   1.482  21.069   7.489  0.1763 -0.0141 -0.0911
34326POPC   C1B57900   1.773  21.060   8.165  0.1445  0.1711  0.2692
34326POPC   C2B57901   2.066  20.874   7.829  0.1305  0.1537  0.2442
34326POPC   C3B57902   2.555  20.753   7.833  0.1438 -0.1798 -0.1438
34326POPC   C4B57903   2.891  20.635   8.135  0.0011  0.1759  0.1604
34327POPC   NC357904  15.302  31.368   8.447  0.2177  0.1032  0.2435
34327POPC   PO457905  15.555  31.540   8.261  0.0967  0.1028  0.0921
34327POPC   GL157906  15.594  31.674   7.936 -0.1731 -0.1820 -0.1674
34327POPC   GL257907  15.364  31.586   7.754  0.0635 -0.3887 -0.2140
34327POPC   C1A57908  15.454  32.084   7.833  0.1256 -0.4476 -0.2057
34327POPC   D2A57909  15.384  32.385   7.520 -0.0937 -0.0793  0.0626
34327POPC   C3A57910  15.370  32.268   7.063  0.2102  0.0160  0.0807
34327POPC   C4A57911  15.636  32.461   6.775  0.1181  0.0243 -0.0585
34327POPC   C1B57912  15.404  31.847   7.352 -0.1615  0.0306  0.2145
34327POPC   C2B57913  15.324  31.692   6.930 -0.2420 -0.4682 -0.0272
34327POPC   C3B57914  15.426  31.682   6.427  0.1874 -0.1148 -0.1150
34327POPC   C4B57915  15.496  31.574   6.010  0.1767  0.1906  0.0135
34328POPC   NC357916  16.203  16.016   8.206 -0.2434  0.1420  0.0191
34328POPC   PO457917  16.541  15.961   8.005  0.1144  0.0438  0.1021
34328POPC   GL157918  16.446  15.774   7.600 -0.1707  0.0796  0.1189
34328POPC   GL257919  16.178  15.888   7.581  0.2967  0.2839  0.2572
34328POPC   C1A57920  16.396  15.846   7.162  0.1807 -0.0437 -0.0466
34328POPC   D2A57921  16.478  15.861   6.651 -0.0952 -0.0721  0.0401
34328POPC   C3A57922  16.341  16.170   6.320  0.0443 -0.1107  0.0016
34328POPC   C4A57923  16.569  16.529   6.183  0.1251  0.3467 -0.1217
34328POPC   C1B57924  15.846  15.805   7.280 -0.1056 -0.0791  0.1058
34328POPC   C2B57925  15.606  15.672   6.896  0.1249 -0.1189 -0.0535
34328POPC   C3B57926  15.449  15.938   6.528  0.0123  0.3361  0.0408
34328POPC   C4B57927  15.391  15.674   6.154 -0.0884  0.0568 -0.0745
34329POPC   NC357928  10.352  16.289  14.072 -0.3404  0.1487 -0.0434
34329POPC   PO457929  10.379  16.304  14.457  0.1533 -0.1936  0.1037
34329POPC   GL157930  10.582  16.542  14.796 -0.0714  0.5011  0.1615
34329POPC   GL257931  10.419  16.337  14.998 -0.0661 -0.2055 -0.1128
34329POPC   C1A57932  10.659  16.809  15.165  0.0080  0.1575  0.1149
34329POPC   D2A57933  10.768  17.028  15.561 -0.1064 -0.1121 -0.2893
34329POPC   C3A57934  10.773  17.470  15.771  0.4096  0.0285  0.3689
34329POPC   C4A57935  10.646  17.879  15.906  0.0934 -0.0344  0.1162
34329POPC   C1B57936  10.303  16.614  15.416 -0.1156 -0.0118 -0.1447
34329POPC   C2B57937  10.300  16.819  15.786 -0.2815 -0.2899  0.4369
34329POPC   C3B57938  10.567  17.114  16.025  0.1345  0.1774 -0.1133
34329POPC   C4B57939  10.801  17.345  16.386 -0.1541  0.0414  0.2109
34330POPC   NC357940   6.688  25.689  13.390 -0.3885  0.2450  0.1496
34330POPC   PO457941   6.811  25.387  13.552  0.1062 -0.1531  0.0403
34330POPC   GL157942   7.053  25.168  13.580  0.1935  0.1884  0.0146
34330POPC   GL257943   6.991  24.929  13.759  0.0888 -0.1401 -0.1303
34330POPC   C1A57944   7.310  24.987  13.278  0.1072  0.0320  0.0254
34330POPC   D2A57945   7.638  24.703  13.276  0.2271 -0.0795  0.0658
34330POPC   C3A57946   7.829  24.652  12.919  0.0348 -0.0235  0.3224
34330POPC   C4A57947   8.103  24.262  12.953  0.1310 -0.1470  0.4170
34330POPC   C1B57948   7.336  25.045  14.070 -0.2591 -0.1288 -0.0582
34330POPC   C2B57949   7.690  24.865  14.267 -0.1660  0.1005  0.2912
34330POPC   C3B57950   7.719  24.866  14.686 -0.5062  0.2540 -0.2176
34330POPC   C4B57951   7.742  24.438  14.825  0.0798 -0.1217  0.0791
34331POPC   NC357952  11.347  28.508   8.913 -0.2209  0.3164 -0.2678
34331POPC   PO457953  11.391  28.320   9.252  0.1964  0.0436 -0.2457
34331POPC   GL157954  11.637  28.061   8.939  0.1661 -0.5294 -0.0529
34331POPC   GL257955  11.340  27.927   8.794 -0.1547  0.2158 -0.2535
34331POPC   C1A57956  11.839  27.934   8.538 -0.0352  0.3711 -0.0649
34331POPC   D2A57957  11.954  27.917   8.133  0.1991  0.1282  0.1136
34331POPC   C3A57958  12.200  28.300   8.026 -0.0371 -0.1225  0.3405
34331POPC   C4A57959  12.534  28.581   7.794  0.1835  0.3750  0.0496
34331POPC   C1B57960  11.364  27.944   8.371 -0.2053  0.0016  0.0989
34331POPC   C2B57961  11.458  27.844   7.963  0.0546  0.2109 -0.1805
34331POPC   C3B57962  11.247  27.733   7.577 -0.1762 -0.0623  0.2809
34331POPC   C4B57963  11.149  27.380   7.338 -0.2102 -0.0653 -0.0108
34332POPC   NC357964  15.507  20.943   9.308  0.0140  0.0002 -0.1705
34332POPC   PO457965  15.761  20.897   9.013  0.2720 -0.1437 -0.2530
34332POPC   GL157966  15.670  20.962   8.663  0.0238 -0.2520  0.1104
34332POPC   GL257967  15.909  20.857   8.533 -0.1426  0.0785 -0.3036
34332POPC   C1A57968  15.842  21.330   8.421 -0.1031 -0.1915 -0.0717
34332POPC   D2A57969  15.810  21.369   7.969  0.0991  0.0823 -0.0806
34332POPC   C3A57970  15.547  21.496   7.648 -0.0954  0.0069  0.2865
34332POPC   C4A57971  15.230  21.450   7.334 -0.0772 -0.2284  0.4346
34332POPC   C1B57972  15.912  20.901   8.107  0.2997 -0.0381  0.0167
34332POPC   C2B57973  15.635  20.951   7.720 -0.1728 -0.1378  0.4018
34332POPC   C3B57974  15.525  20.976   7.308 -0.2129 -0.1033 -0.2841
34332POPC   C4B57975  15.325  21.138   6.928 -0.2297 -0.0500  0.3123
34333POPC   NC357976  12.493  28.669   8.329 -0.1557  0.2565 -0.0607
34333POPC   PO457977  12.736  28.977   8.378  0.1195  0.0966  0.0565
34333POPC   GL157978  12.451  29.095   8.108 -0.2403  0.4142  0.0398
34333POPC   GL257979  12.526  29.390   8.002  0.0241 -0.0188  0.1150
34333POPC   C1A57980  12.361  29.025   7.669 -0.4694  0.0269  0.2618
34333POPC   D2A57981  12.548  29.292   7.349 -0.3085 -0.0370 -0.1041
34333POPC   C3A57982  12.607  29.305   6.862  0.1585 -0.0859 -0.2565
34333POPC   C4A57983  12.728  29.421   6.437 -0.1890 -0.0602 -0.0092
34333POPC   C1B57984  12.526  29.724   7.644  0.1907 -0.0399  0.0583
34333POPC   C2B57985  12.403  29.756   7.246 -0.2939  0.2702 -0.0491
34333POPC   C3B57986  12.148  29.505   6.964 -0.1660  0.1117  0.4723
34333POPC   C4B57987  12.163  29.037   6.769  0.1270  0.0258  0.0964
34334POPC   NC357988  15.543  21.967   9.431  0.1648  0.1446 -0.1123
34334POPC   PO457989  15.506  22.320   9.643  0.0842  0.0421 -0.3501
34334POPC   GL157990  15.478  22.681   9.304  0.1245  0.1473 -0.0841
34334POPC   GL257991  15.208  22.707   9.379  0.0768  0.3481  0.2350
34334POPC   C1A57992  15.262  22.798   8.884  0.2211  0.0185 -0.1464
34334POPC   D2A57993  15.035  22.895   8.469 -0.1609 -0.3655  0.1326
34334POPC   C3A57994  14.607  22.757   8.424 -0.0945 -0.0618 -0.0558
34334POPC   C4A57995  14.392  22.807   8.010 -0.0915  0.0591  0.4945
34334POPC   C1B57996  14.782  22.666   9.163 -0.3967  0.0977 -0.0996
34334POPC   C2B57997  14.523  22.928   8.927  0.0381  0.1939  0.1954
34334POPC   C3B57998  14.052  23.047   8.836 -0.0111  0.1670 -0.1415
34334POPC   C4B57999  13.633  22.855   8.767  0.0041  0.1808  0.0641
34335POPC   NC358000   4.382  29.988   8.547 -0.2716 -0.2041  0.0047
34335POPC   PO458001   4.661  29.772   8.736 -0.2193  0.0103  0.1555
34335POPC   GL158002   4.880  29.530   8.488 -0.2199 -0.1170  0.0220
34335POPC   GL258003   4.984  29.286   8.630  0.0469 -0.0451  0.2510
34335POPC   C1A58004   5.090  29.479   8.082  0.0822  0.0473  0.0659
34335POPC   D2A58005   5.219  29.407   7.637  0.2236 -0.2416 -0.2980
34335POPC   C3A58006   5.591  29.151   7.452 -0.2226  0.0554 -0.0600
34335POPC   C4A58007   6.025  28.982   7.459  0.0052 -0.0222 -0.4155
34335POPC   C1B58008   4.889  29.010   8.255 -0.1350  0.1249  0.0512
34335POPC   C2B58009   5.065  28.607   8.099  0.0359  0.1962  0.0056
34335POPC   C3B58010   5.208  28.446   7.699 -0.1941 -0.2272 -0.0096
34335POPC   C4B58011   5.568  28.136   7.498  0.3515 -0.0609  0.0502
34336POPC   NC358012  13.316  26.735   9.614 -0.1876 -0.2995 -0.2121
34336POPC   PO458013  13.546  26.628   9.946 -0.0829 -0.0369 -0.1331
34336POPC   GL158014  13.491  26.302   9.735  0.0205  0.1498 -0.2084
34336POPC   GL258015  13.339  26.014   9.796 -0.0370 -0.3551  0.2520
34336POPC   C1A58016  13.177  26.314   9.379 -0.3009  0.0078  0.2632
34336POPC   D2A58017  12.910  25.943   9.155 -0.2053  0.1769  0.0532
34336POPC   C3A58018  12.744  25.598   9.423  0.3354  0.0086 -0.2679
34336POPC   C4A58019  12.320  25.387   9.465 -0.1160 -0.2079  0.2129
34336POPC   C1B58020  13.309  25.787   9.392 -0.1502 -0.0046 -0.1923
34336POPC   C2B58021  13.164  25.520   9.059  0.0240 -0.0502  0.1271
34336POPC   C3B58022  12.850  25.466   8.707 -0.0047 -0.0274  0.0310
34336POPC   C4B58023  12.732  25.348   8.284 -0.1703  0.2001 -0.2927
34337POPC   NC358024   5.161  23.944  11.479 -0.1030 -0.1396 -0.0875
34337POPC   PO458025   5.383  23.998  11.826 -0.0577 -0.0178 -0.2685
34337POPC   GL158026   5.678  23.853  11.542 -0.0210 -0.0301 -0.2119
34337POPC   GL258027   5.628  23.753  11.252 -0.1146 -0.1246  0.0946
34337POPC   C1A58028   6.005  23.481  11.461 -0.2731 -0.3050  0.1720
34337POPC   D2A58029   6.356  23.418  11.145  0.0013  0.0054  0.0544
34337POPC   C3A58030   6.771  23.285  10.951  0.0075  0.1967 -0.0244
34337POPC   C4A58031   7.148  23.514  10.772 -0.1498  0.2656 -0.1796
34337POPC   C1B58032   5.872  23.582  10.985  0.0907 -0.3294  0.0957
34337POPC   C2B58033   6.028  23.752  10.611  0.0073  0.0211 -0.1713
34337POPC   C3B58034   6.307  23.991  10.372  0.0957 -0.0044 -0.0911
34337POPC   C4B58035   6.610  24.009   9.996 -0.0936  0.0175 -0.0980
34338POPC   NC358036   5.643   0.410   9.575 -0.1847  0.1954  0.0242
34338POPC   PO458037   5.779   0.726   9.408 -0.4670  0.2538 -0.2001
34338POPC   GL158038   5.862   0.631   9.082 -0.2346  0.2408 -0.1863
34338POPC   GL258039   5.633   0.539   8.973 -0.0605  0.2773  0.1912
34338POPC   C1A58040   6.112   0.725   8.725 -0.2845  0.0985 -0.2201
34338POPC   D2A58041   6.192   0.738   8.319  0.0050 -0.1455 -0.1681
34338POPC   C3A58042   5.994   0.621   7.976  0.1922 -0.1701 -0.0418
34338POPC   C4A58043   5.854   0.319   7.649 -0.0248  0.0196 -0.1792
34338POPC   C1B58044   5.654   0.897   8.684 -0.2597 -0.2229  0.0231
34338POPC   C2B58045   5.721   1.046   8.253  0.2183  0.2391 -0.0303
34338POPC   C3B58046   6.072   1.116   7.957  0.1988 -0.1044  0.1452
34338POPC   C4B58047   6.381   1.193   7.620 -0.0979 -0.1275  0.2312
34339POPC   NC358048   1.750  29.378   7.499 -0.0457  0.5176 -0.5855
34339POPC   PO458049   1.783  29.024   7.689  0.3880 -0.0066  0.0834
34339POPC   GL158050   1.853  28.981   7.251 -0.2481 -0.1819 -0.5003
34339POPC   GL258051   2.075  29.078   7.264 -0.1716 -0.0831  0.1008
34339POPC   C1A58052   1.815  29.289   6.902  0.3380 -0.0565 -0.0257
34339POPC   D2A58053   1.962  29.234   6.489 -0.1102 -0.0192 -0.3726
34339POPC   C3A58054   2.077  28.826   6.288 -0.1025 -0.0862 -0.0391
34339POPC   C4A58055   1.995  28.496   6.009  0.1692 -0.0004 -0.3004
34339POPC   C1B58056   2.080  28.881   6.816  0.0866  0.1521  0.0909
34339POPC   C2B58057   2.413  28.609   6.685  0.0573 -0.3694 -0.2364
34339POPC   C3B58058   2.560  28.550   6.214  0.0202 -0.2302 -0.1232
34339POPC   C4B58059   2.867  28.645   5.832  0.0987  0.1753 -0.2098
34340POPC   NC358060   5.032  28.051   8.400 -0.2084 -0.0244  0.1875
34340POPC   PO458061   5.045  27.894   8.755 -0.0099  0.2160 -0.3133
34340POPC   GL158062   5.191  27.592   8.447  0.1919  0.2228 -0.0727
34340POPC   GL258063   4.962  27.436   8.444 -0.1515  0.0058 -0.1442
34340POPC   C1A58064   5.261  27.454   7.998  0.1448  0.1893 -0.1992
34340POPC   D2A58065   5.605  27.197   7.797  0.0452  0.2363 -0.1019
34340POPC   C3A58066   5.546  27.053   7.381 -0.0953  0.2614 -0.0254
34340POPC   C4A58067   5.826  27.001   7.029 -0.1569 -0.1736  0.1056
34340POPC   C1B58068   4.864  27.660   8.030 -0.1440  0.0655 -0.2158
34340POPC   C2B58069   5.135  27.866   7.654 -0.0549 -0.1293 -0.1013
34340POPC   C3B58070   5.136  28.050   7.256  0.1901  0.0692  0.0295
34340POPC   C4B58071   5.212  28.471   7.186 -0.3515  0.0733 -0.1705
34341POPC   NC358072   4.080  30.918   8.490 -0.0434  0.0412  0.0452
34341POPC   PO458073   3.708  30.894   8.487  0.0938  0.2061  0.2561
34341POPC   GL158074   3.583  30.929   8.061 -0.0584 -0.0380  0.2531
34341POPC   GL258075   3.775  31.084   8.017 -0.2788  0.0094  0.0355
34341POPC   C1A58076   3.478  30.629   7.743  0.1308  0.0002 -0.0977
34341POPC   D2A58077   3.414  30.643   7.251  0.1082 -0.1730 -0.0105
34341POPC   C3A58078   3.309  30.485   6.859 -0.2141 -0.0605 -0.0021
34341POPC   C4A58079   3.237  30.445   6.410 -0.1030  0.2074  0.0232
34341POPC   C1B58080   3.692  31.472   7.888 -0.2194  0.1413 -0.3150
34341POPC   C2B58081   3.603  31.918   7.923  0.0583  0.0534 -0.0412
34341POPC   C3B58082   3.263  32.105   7.886  0.1840 -0.0134 -0.0328
34341POPC   C4B58083   3.112  32.506   7.672 -0.0115  0.1342 -0.0239
34342POPC   NC358084  15.210  16.302   8.447 -0.2272 -0.3418 -0.1016
34342POPC   PO458085  15.593  16.499   8.435  0.2045 -0.0776  0.0055
34342POPC   GL158086  15.402  16.867   8.285 -0.4088  0.2187 -0.1636
34342POPC   GL258087  15.165  16.723   8.238 -0.1356  0.2542  0.1051
34342POPC   C1A58088  15.327  16.995   7.835 -0.0048 -0.2248  0.0829
34342POPC   D2A58089  15.428  17.135   7.379  0.1891  0.2338 -0.1062
34342POPC   C3A58090  15.105  17.227   7.010 -0.1098 -0.0861 -0.0334
34342POPC   C4A58091  15.057  17.219   6.554  0.3390  0.1064  0.0475
34342POPC   C1B58092  14.897  16.735   7.838  0.1639 -0.0075 -0.3583
34342POPC   C2B58093  14.516  16.680   7.495 -0.2639  0.1148 -0.1586
34342POPC   C3B58094  14.328  16.899   7.120  0.1948 -0.0456  0.1939
34342POPC   C4B58095  14.169  17.066   6.747 -0.2815  0.4366  0.1446
34343POPC   NC358096   4.210  29.036   9.023 -0.2340  0.1837  0.0060
34343POPC   PO458097   4.151  29.394   9.126 -0.0563  0.0241 -0.0067
34343POPC   GL158098   4.127  29.529   8.724 -0.0377  0.0826  0.0430
34343POPC   GL258099   4.008  29.292   8.591  0.0269 -0.0451  0.2240
34343POPC   C1A58100   4.139  29.646   8.261  0.0192 -0.1438 -0.1232
34343POPC   D2A58101   3.902  29.847   7.896  0.2924  0.0810  0.0151
34343POPC   C3A58102   3.868  29.771   7.428  0.1651  0.0218  0.1824
34343POPC   C4A58103   3.914  29.697   6.963 -0.0646  0.1812 -0.2995
34343POPC   C1B58104   4.076  29.175   8.110 -0.0979 -0.0333  0.0559
34343POPC   C2B58105   4.206  29.041   7.673  0.2361 -0.4725 -0.1166
34343POPC   C3B58106   4.048  28.680   7.498 -0.1000  0.1138  0.0705
34343POPC   C4B58107   3.885  28.393   7.133  0.4100 -0.0310 -0.1229
34344POPC   NC358108   1.410  28.202   8.233  0.0509  0.3086  0.0289
34344POPC   PO458109   1.178  28.509   8.258 -0.0868 -0.0945  0.1366
34344POPC   GL158110   1.189  28.558   7.881 -0.0764  0.2805  0.0066
34344POPC   GL258111   1.220  28.271   7.759  0.0068 -0.2293 -0.2551
34344POPC   C1A58112   0.879  28.790   7.594 -0.0783 -0.0197 -0.0507
34344POPC   D2A58113   0.852  28.684   7.146  0.4098  0.2136 -0.1507
34344POPC   C3A58114   1.295  28.560   7.078 -0.4170 -0.0833 -0.1787
34344POPC   C4A58115   1.711  28.616   7.073  0.0569  0.0864  0.0507
34344POPC   C1B58116   0.962  28.243   7.332 -0.3321 -0.0861 -0.0290
34344POPC   C2B58117   0.958  28.237   6.864 -0.3853 -0.2324  0.2452
34344POPC   C3B58118   1.071  28.111   6.427 -0.2557 -0.0688  0.1443
34344POPC   C4B58119   1.089  28.455   6.140 -0.2341  0.2334  0.2332
34345POPC   NC358120   1.559  27.530   8.667  0.1771 -0.0538 -0.1332
34345POPC   PO458121   1.328  27.833   8.563  0.0347  0.1400  0.1608
34345POPC   GL158122   1.345  27.601   8.225  0.1568 -0.1690  0.0561
34345POPC   GL258123   1.231  27.791   8.008 -0.0286  0.1471  0.1876
34345POPC   C1A58124   1.496  27.274   7.858  0.0836 -0.0751 -0.0594
34345POPC   D2A58125   1.506  26.900   7.628  0.0492  0.4155  0.0207
34345POPC   C3A58126   1.239  26.855   7.197  0.0143 -0.0130 -0.0225
34345POPC   C4A58127   1.154  26.618   6.756 -0.0358 -0.0212 -0.0241
34345POPC   C1B58128   0.980  27.439   7.853 -0.2185  0.2335  0.0196
34345POPC   C2B58129   1.023  27.243   7.429  0.0969  0.1859 -0.3537
34345POPC   C3B58130   0.759  27.297   7.097  0.1596  0.0413  0.0450
34345POPC   C4B58131   0.500  27.575   6.785  0.2830  0.4905 -0.1099
34346POPC   NC358132   5.922  17.283   9.548  0.1019  0.0944  0.2029
34346POPC   PO458133   6.120  16.995   9.334  0.0975  0.3161  0.3450
34346POPC   GL158134   6.386  17.220   9.335 -0.1043 -0.0468  0.0999
34346POPC   GL258135   6.178  17.471   9.083 -0.0379 -0.0333  0.3484
34346POPC   C1A58136   6.629  17.423   9.007  0.1546 -0.4508  0.1868
34346POPC   D2A58137   6.968  17.564   8.784 -0.1719 -0.0933  0.0031
34346POPC   C3A58138   6.974  17.751   8.385  0.5294  0.0329  0.0186
34346POPC   C4A58139   6.830  18.006   8.017  0.1962  0.1826  0.0925
34346POPC   C1B58140   6.328  17.664   8.711 -0.0662 -0.2705  0.0389
34346POPC   C2B58141   6.584  17.463   8.375 -0.0407 -0.0936 -0.0193
34346POPC   C3B58142   6.711  17.553   7.921  0.0624 -0.1193  0.1858
34346POPC   C4B58143   6.888  17.748   7.506  0.0121  0.2029 -0.0153
34347POPC   NC358144  15.264  26.658  16.391 -0.0184  0.3122  0.0886
34347POPC   PO458145  15.558  26.951  16.374 -0.2351  0.0534 -0.1752
34347POPC   GL158146  15.446  27.046  16.733  0.2029 -0.4611 -0.2076
34347POPC   GL258147  15.542  26.885  16.983 -0.0290  0.3230 -0.0414
34347POPC   C1A58148  15.467  27.351  17.070  0.1152 -0.2370 -0.0681
34347POPC   D2A58149  15.551  27.583  17.425 -0.0960 -0.0905  0.3229
34347POPC   C3A58150  15.660  27.273  17.762  0.2705 -0.2375 -0.1837
34347POPC   C4A58151  15.769  26.956  18.088  0.1842  0.2319  0.0703
34347POPC   C1B58152  15.696  26.593  17.287  0.1561  0.2022  0.0712
34347POPC   C2B58153  15.719  26.480  17.710  0.0059  0.1036  0.0723
34347POPC   C3B58154  15.689  26.434  18.167  0.0965  0.0123 -0.0047
34347POPC   C4B58155  15.709  26.139  18.533 -0.1033  0.0959 -0.1405
34348POPC   NC358156  11.670  17.064   9.398 -0.3624  0.0255 -0.0005
34348POPC   PO458157  11.339  17.249   9.492  0.0478  0.0524  0.1630
34348POPC   GL158158  11.267  17.394   9.170 -0.1823  0.3363 -0.0517
34348POPC   GL258159  11.034  17.496   9.201  0.0025 -0.0357 -0.2814
34348POPC   C1A58160  11.373  17.818   8.987  0.0907 -0.0813 -0.2702
34348POPC   D2A58161  11.424  18.191   8.782  0.1236 -0.2125 -0.1630
34348POPC   C3A58162  11.231  18.467   8.443 -0.2081  0.1699  0.1164
34348POPC   C4A58163  11.167  18.905   8.366  0.0816 -0.0809 -0.1194
34348POPC   C1B58164  10.909  17.959   9.169  0.0274  0.0935 -0.2116
34348POPC   C2B58165  10.808  18.402   9.058  0.1587  0.0347  0.2340
34348POPC   C3B58166  10.802  18.664   8.582 -0.0142  0.3968  0.5084
34348POPC   C4B58167  10.861  18.675   8.068 -0.1949 -0.2205 -0.0029
34349POPC   NC358168  12.576  31.017   8.791 -0.1040  0.0262 -0.0316
34349POPC   PO458169  12.381  31.182   8.510  0.0416 -0.0716  0.0265
34349POPC   GL158170  12.250  31.237   8.135  0.0924  0.1022  0.2904
34349POPC   GL258171  12.030  31.448   8.045  0.0844  0.0570 -0.1249
34349POPC   C1A58172  12.140  31.179   7.660 -0.0143 -0.0564  0.3240
34349POPC   D2A58173  12.269  30.956   7.334  0.0568 -0.0383 -0.0035
34349POPC   C3A58174  12.270  30.684   6.917  0.1199  0.0749 -0.2585
34349POPC   C4A58175  12.093  30.300   6.643 -0.1467  0.0093 -0.3243
34349POPC   C1B58176  11.749  31.521   7.654  0.1292 -0.3129 -0.3336
34349POPC   C2B58177  11.747  31.572   7.189 -0.0218  0.0491  0.0570
34349POPC   C3B58178  11.613  31.344   6.821  0.0523  0.1042  0.0656
34349POPC   C4B58179  11.613  31.053   6.462  0.0411 -0.1025 -0.0431
34350POPC   NC358180   3.415  22.621  15.183  0.0899 -0.2173 -0.2335
34350POPC   PO458181   3.644  22.288  15.128 -0.2530 -0.0593  0.2243
34350POPC   GL158182   3.948  22.507  15.223  0.2576  0.1327  0.2123
34350POPC   GL258183   4.144  22.259  15.344  0.4231 -0.2155 -0.3942
34350POPC   C1A58184   4.319  22.745  15.272  0.0970 -0.0188 -0.2230
34350POPC   D2A58185   4.497  23.017  15.625 -0.0461 -0.1912  0.2231
34350POPC   C3A58186   4.798  22.849  15.988 -0.4060 -0.2222 -0.0356
34350POPC   C4A58187   5.222  22.818  16.194  0.1286  0.0058  0.2095
34350POPC   C1B58188   4.103  22.572  15.743 -0.1088 -0.1344 -0.2766
34350POPC   C2B58189   4.176  22.887  16.063 -0.4806  0.0996  0.0596
34350POPC   C3B58190   4.458  23.213  16.178  0.2276 -0.1678  0.2468
34350POPC   C4B58191   4.613  23.484  16.497  0.2294 -0.1654  0.0898
34351POPC   NC358192  15.768  24.792   9.728  0.0612 -0.1394  0.2353
34351POPC   PO458193  15.438  24.947   9.793  0.0188 -0.0158 -0.1924
34351POPC   GL158194  15.401  24.959   9.388  0.2165 -0.2653  0.1224
34351POPC   GL258195  15.685  24.907   9.304  0.1049  0.1866 -0.0202
34351POPC   C1A58196  15.197  24.681   9.002  0.0621  0.0222  0.1985
34351POPC   D2A58197  15.177  24.523   8.540 -0.0168  0.0492 -0.3029
34351POPC   C3A58198  14.823  24.247   8.556  0.0453 -0.1552 -0.1723
34351POPC   C4A58199  14.341  24.196   8.553 -0.1913 -0.2035 -0.0369
34351POPC   C1B58200  16.027  24.889   9.004  0.0775 -0.1398  0.0256
34351POPC   C2B58201  16.136  24.958   8.561 -0.0349 -0.2582 -0.2770
34351POPC   C3B58202  16.232  25.245   8.170 -0.0987 -0.0929  0.1283
34351POPC   C4B58203  16.309  25.539   7.804  0.2686  0.3153  0.1727
34352POPC   NC358204  15.266  21.072   9.717 -0.2049 -0.0530 -0.0082
34352POPC   PO458205  15.224  20.828  10.008 -0.1210  0.1567 -0.2757
34352POPC   GL158206  14.867  20.812   9.789 -0.2184  0.1074 -0.0663
34352POPC   GL258207  14.685  21.027   9.984 -0.1138  0.3420  0.2013
34352POPC   C1A58208  14.586  20.756   9.434  0.4364  0.1099 -0.0685
34352POPC   D2A58209  14.116  20.794   9.396 -0.0195  0.1772  0.2441
34352POPC   C3A58210  14.046  21.079   9.092 -0.1170 -0.2345  0.1561
34352POPC   C4A58211  13.962  21.153   8.614  0.2070 -0.1067  0.1888
34352POPC   C1B58212  14.300  20.841   9.840 -0.2341 -0.2629  0.1349
34352POPC   C2B58213  13.895  20.659   9.808  0.2998  0.0309  0.2577
34352POPC   C3B58214  13.420  20.682   9.930 -0.1753 -0.1767  0.0125
34352POPC   C4B58215  13.004  20.503   9.923 -0.2549  0.0939 -0.1877
34353POPC   NC358216   7.538   0.346   9.629  0.0022 -0.0003 -0.0618
34353POPC   PO458217   7.755   0.590   9.945 -0.0744 -0.3744  0.3502
34353POPC   GL158218   8.089   0.760   9.705  0.3777  0.1457 -0.0751
34353POPC   GL258219   7.884   1.033   9.691 -0.1609 -0.0760  0.2707
34353POPC   C1A58220   8.290   0.952   9.308 -0.2151 -0.0621  0.0947
34353POPC   D2A58221   8.369   1.152   8.948  0.1754  0.0603 -0.0088
34353POPC   C3A58222   8.674   1.503   8.852  0.0832 -0.2859  0.0691
34353POPC   C4A58223   8.499   1.924   8.835  0.1602  0.3672 -0.1333
34353POPC   C1B58224   7.979   1.304  10.047  0.0945  0.1092  0.1376
34353POPC   C2B58225   8.308   1.588  10.048 -0.1524  0.0423  0.1168
34353POPC   C3B58226   8.290   2.041   9.967  0.1479 -0.0169 -0.0758
34353POPC   C4B58227   8.449   2.399   9.756 -0.1054  0.0481  0.4017
34354POPC   NC358228   5.523   1.316   9.535 -0.0782 -0.0175  0.0057
34354POPC   PO458229   5.928   1.250   9.564 -0.4781 -0.1328 -0.2388
34354POPC   GL158230   6.138   1.234   9.246 -0.2689  0.3016 -0.1865
34354POPC   GL258231   5.941   1.078   9.080  0.3864 -0.2103  0.0179
34354POPC   C1A58232   6.200   1.613   8.967 -0.4830 -0.0148  0.2013
34354POPC   D2A58233   6.253   1.894   8.607 -0.0344  0.1252 -0.0812
34354POPC   C3A58234   5.856   1.969   8.402  0.3013 -0.1859 -0.0525
34354POPC   C4A58235   5.626   1.848   8.020  0.1317 -0.1143 -0.0415
34354POPC   C1B58236   6.134   1.257   8.676  0.0953  0.2507 -0.0358
34354POPC   C2B58237   6.338   1.338   8.285 -0.0202 -0.2599 -0.3540
34354POPC   C3B58238   6.597   1.581   7.911 -0.2672  0.0539  0.0141
34354POPC   C4B58239   6.843   1.420   7.562 -0.2104  0.2285  0.3502
34355POPC   NC358240   0.239  19.789   8.879  0.2489  0.0806  0.2357
34355POPC   PO458241   0.590  19.743   8.743 -0.0314  0.0222 -0.2140
34355POPC   GL158242   0.814  19.529   8.564  0.0804 -0.3028  0.3276
34355POPC   GL258243   0.658  19.378   8.422 -0.0626  0.1202  0.1164
34355POPC   C1A58244   1.189  19.283   8.483  0.0648  0.4140  0.0182
34355POPC   D2A58245   1.428  19.339   8.101  0.0798 -0.0212  0.0364
34355POPC   C3A58246   1.645  19.735   8.090  0.1748 -0.1097 -0.2195
34355POPC   C4A58247   1.621  20.060   7.765  0.0545 -0.2497 -0.3226
34355POPC   C1B58248   0.930  19.497   8.055  0.1286 -0.2202  0.0947
34355POPC   C2B58249   1.243  19.610   7.689 -0.0597  0.0447 -0.0599
34355POPC   C3B58250   1.508  19.802   7.383  0.0847  0.1411  0.1099
34355POPC   C4B58251   1.833  20.054   7.224 -0.2195 -0.2869  0.1667
34356POPC   NC358252  12.361  17.538   9.101 -0.5351 -0.1000 -0.1594
34356POPC   PO458253  12.069  17.247   9.150 -0.3928 -0.2631 -0.2528
34356POPC   GL158254  11.939  17.562   8.891 -0.2672 -0.2119  0.0226
34356POPC   GL258255  11.899  17.841   8.917  0.0967 -0.2091  0.1667
34356POPC   C1A58256  11.632  17.494   8.535  0.1484 -0.3583  0.0156
34356POPC   D2A58257  11.710  17.699   8.100  0.1748  0.1659  0.0948
34356POPC   C3A58258  11.325  17.783   8.000  0.1276  0.2081  0.2271
34356POPC   C4A58259  10.863  17.638   8.065 -0.1321  0.3517  0.1426
34356POPC   C1B58260  11.825  18.016   8.505  0.4448 -0.1639 -0.0701
34356POPC   C2B58261  11.591  18.144   8.114 -0.1689 -0.0461  0.0206
34356POPC   C3B58262  11.357  18.509   7.971  0.2313  0.2544 -0.2216
34356POPC   C4B58263  11.214  18.974   7.799 -0.0970  0.3665 -0.0210
34357POPC   NC358264  14.972  19.787  13.900 -0.0219 -0.2667  0.1875
34357POPC   PO458265  14.774  20.106  13.815  0.0733  0.0836 -0.0031
34357POPC   GL158266  14.498  20.280  13.921  0.0156  0.2609 -0.0996
34357POPC   GL258267  14.540  20.445  14.144  0.0472 -0.0022 -0.0099
34357POPC   C1A58268  14.057  20.236  13.741  0.3129 -0.1493 -0.3247
34357POPC   D2A58269  13.647  20.222  13.958 -0.0132  0.1374  0.2414
34357POPC   C3A58270  13.154  20.268  14.014 -0.3747  0.0631  0.4142
34357POPC   C4A58271  12.720  20.297  13.810  0.1165  0.2111  0.1138
34357POPC   C1B58272  14.066  20.399  14.239  0.0175 -0.0367 -0.0526
34357POPC   C2B58273  13.693  20.399  14.422  0.0953  0.3312 -0.1061
34357POPC   C3B58274  13.327  20.152  14.582 -0.2685  0.2089 -0.0069
34357POPC   C4B58275  12.938  20.133  14.817 -0.0646  0.0449 -0.3890
34358POPC   NC358276   6.020  22.900  13.297  0.0697  0.0575  0.2599
34358POPC   PO458277   5.927  23.183  13.572 -0.2091 -0.2964  0.1298
34358POPC   GL158278   6.314  23.150  13.585  0.0622 -0.2046  0.2698
34358POPC   GL258279   6.380  23.310  13.858  0.0764  0.0499  0.0390
34358POPC   C1A58280   6.552  23.010  13.245  0.0852 -0.0442  0.3389
34358POPC   D2A58281   7.061  23.049  13.143 -0.2170  0.4498  0.1429
34358POPC   C3A58282   7.332  22.650  13.116  0.0049 -0.1728 -0.1705
34358POPC   C4A58283   7.720  22.392  13.193 -0.3130  0.1301  0.0049
34358POPC   C1B58284   6.744  23.099  13.971  0.1486  0.1435 -0.2037
34358POPC   C2B58285   7.129  22.888  14.084  0.0873  0.3961 -0.0645
34358POPC   C3B58286   7.518  22.976  14.389 -0.1321  0.0125  0.0908
34358POPC   C4B58287   7.482  23.102  14.845  0.2037 -0.5223  0.4054
34359POPC   NC358288   2.896  23.086   8.881  0.1791  0.1278 -0.0837
34359POPC   PO458289   2.550  23.038   9.029 -0.3825 -0.1270 -0.1015
34359POPC   GL158290   2.472  23.130   8.706  0.0619 -0.0158 -0.1064
34359POPC   GL258291   2.211  23.285   8.692  0.2111 -0.1457  0.0927
34359POPC   C1A58292   2.623  23.086   8.272 -0.1401 -0.1160  0.2069
34359POPC   D2A58293   2.577  22.956   7.828  0.0016 -0.1731  0.0081
34359POPC   C3A58294   2.869  22.588   7.763 -0.1467  0.0835  0.1921
34359POPC   C4A58295   3.258  22.550   7.982 -0.3383 -0.1432 -0.0966
34359POPC   C1B58296   2.138  23.365   8.226 -0.1157 -0.0797 -0.4070
34359POPC   C2B58297   2.214  23.301   7.787  0.2885  0.1420  0.0433
34359POPC   C3B58298   1.855  23.088   7.534  0.1618 -0.2966  0.1604
34359POPC   C4B58299   1.950  22.812   7.163 -0.1161 -0.0619 -0.2292
34360POPC   NC358300   3.828  25.238   9.333 -0.1458  0.1870  0.0784
34360POPC   PO458301   3.855  25.194   9.755 -0.1045  0.0734 -0.2691
34360POPC   GL158302   4.212  25.124   9.525 -0.0592 -0.1133  0.0425
34360POPC   GL258303   4.344  25.040   9.724 -0.3013 -0.2948 -0.0036
34360POPC   C1A58304   4.343  25.189   9.092 -0.2183  0.2837 -0.1263
34360POPC   D2A58305   4.654  25.189   8.719 -0.0719 -0.1220  0.2616
34360POPC   C3A58306   5.107  25.206   8.680 -0.0144 -0.1529  0.0235
34360POPC   C4A58307   5.387  24.996   8.381 -0.3178 -0.2238 -0.2417
34360POPC   C1B58308   4.760  24.917   9.611  0.0946  0.2520 -0.0441
34360POPC   C2B58309   5.193  24.909   9.528 -0.2975 -0.2223  0.2500
34360POPC   C3B58310   5.535  24.641   9.408 -0.0869  0.1628 -0.0372
34360POPC   C4B58311   5.848  24.497   9.134 -0.0185 -0.2933 -0.1107
34361POPC   NC358312   9.837  17.411  10.955  0.1242 -0.0404  0.3387
34361POPC   PO458313  10.090  17.536  11.270  0.1610  0.2821 -0.0748
34361POPC   GL158314  10.225  17.831  11.070  0.0318  0.1732 -0.2621
34361POPC   GL258315  10.406  18.047  11.225  0.1938 -0.2009  0.2108
34361POPC   C1A58316  10.003  18.249  11.018 -0.2848 -0.0154  0.3329
34361POPC   D2A58317   9.794  18.661  11.074  0.1176 -0.1727  0.1438
34361POPC   C3A58318   9.703  18.947  10.673 -0.1017  0.3255 -0.0047
34361POPC   C4A58319   9.364  18.868  10.380  0.2110  0.0088  0.3310
34361POPC   C1B58320  10.390  18.539  11.336 -0.1572  0.1545  0.1046
34361POPC   C2B58321  10.277  18.969  11.205  0.0583  0.4061  0.0942
34361POPC   C3B58322  10.322  19.440  11.136 -0.2454 -0.3277  0.2331
34361POPC   C4B58323  10.694  19.689  11.128 -0.2437 -0.2917  0.0635
34362POPC   NC358324  15.179  19.890  14.610 -0.3786 -0.2342 -0.1362
34362POPC   PO458325  15.148  20.038  14.280 -0.1388  0.1903  0.1008
34362POPC   GL158326  14.886  20.244  14.352  0.0499  0.0744  0.0779
34362POPC   GL258327  14.641  20.049  14.379 -0.1136 -0.0152  0.1031
34362POPC   C1A58328  14.553  20.434  14.663  0.1579  0.0702 -0.1336
34362POPC   D2A58329  14.099  20.535  14.737 -0.1194 -0.0532 -0.0145
34362POPC   C3A58330  14.082  20.921  14.970  0.0037  0.1040 -0.1711
34362POPC   C4A58331  13.997  21.242  15.263  0.0585  0.0520 -0.2273
34362POPC   C1B58332  14.205  19.919  14.349 -0.0222  0.0104 -0.1116
34362POPC   C2B58333  13.712  19.893  14.362 -0.1262  0.0722  0.1505
34362POPC   C3B58334  13.351  19.610  14.468 -0.1416  0.1322  0.1347
34362POPC   C4B58335  12.921  19.709  14.535 -0.1417  0.1390 -0.1570
34363POPC   NC358336   5.163  16.304   8.968  0.1411  0.2236  0.2042
34363POPC   PO458337   5.008  16.381   9.323 -0.0130 -0.0043  0.0041
34363POPC   GL158338   4.972  16.746   9.048 -0.1613 -0.1240  0.1220
34363POPC   GL258339   4.921  16.754   8.705  0.0422  0.1015  0.0596
34363POPC   C1A58340   4.726  17.135   9.071  0.1857  0.0920 -0.0199
34363POPC   D2A58341   4.536  17.462   8.856  0.0351 -0.1188  0.2337
34363POPC   C3A58342   4.321  17.128   8.582 -0.2234 -0.0580  0.0279
34363POPC   C4A58343   3.957  16.813   8.555  0.0922 -0.1072  0.1361
34363POPC   C1B58344   5.159  16.929   8.292 -0.1373  0.0338  0.1257
34363POPC   C2B58345   5.228  17.060   7.901 -0.0649 -0.1732  0.0079
34363POPC   C3B58346   5.386  17.358   7.581  0.1643  0.1137 -0.0807
34363POPC   C4B58347   5.319  17.790   7.499 -0.1350 -0.0634  0.0560
34364POPC   NC358348   7.100  29.904   9.054 -0.0083  0.1309 -0.1005
34364POPC   PO458349   6.744  29.802   8.869 -0.1264  0.0839  0.4099
34364POPC   GL158350   6.527  29.713   8.544  0.0514 -0.0839  0.0180
34364POPC   GL258351   6.245  29.859   8.600  0.2293 -0.1319 -0.0543
34364POPC   C1A58352   6.568  29.786   8.089  0.4859 -0.0730 -0.0452
34364POPC   D2A58353   6.579  29.818   7.633 -0.0011 -0.0641 -0.0744
34364POPC   C3A58354   6.414  29.855   7.252 -0.0244  0.1102  0.2973
34364POPC   C4A58355   5.990  29.822   7.007  0.1668  0.2198  0.0737
34364POPC   C1B58356   6.151  30.025   8.184  0.1989  0.0905 -0.1347
34364POPC   C2B58357   6.377  30.220   7.875 -0.3374  0.0944 -0.0200
34364POPC   C3B58358   6.523  30.289   7.465  0.1592 -0.1713  0.0374
34364POPC   C4B58359   6.373  30.432   7.088 -0.3848  0.3562  0.2442
34365POPC   NC358360   5.087  24.972  10.547 -0.0700 -0.0104  0.1609
34365POPC   PO458361   4.937  25.273  10.763 -0.0415  0.4084  0.1784
34365POPC   GL158362   5.326  25.353  10.648  0.1015  0.1876  0.0483
34365POPC   GL258363   5.511  25.139  10.798  0.5236 -0.0219  0.2034
34365POPC   C1A58364   5.481  25.176  10.254 -0.0057 -0.0945 -0.1036
34365POPC   D2A58365   5.880  25.344  10.053 -0.0080 -0.1063 -0.0912
34365POPC   C3A58366   6.318  25.323  10.059  0.1602 -0.4926  0.0241
34365POPC   C4A58367   6.672  25.390  10.321  0.2139 -0.1037 -0.0118
34365POPC   C1B58368   5.858  24.992  10.507 -0.1468  0.2050  0.1219
34365POPC   C2B58369   6.179  24.884  10.181  0.1456  0.2905 -0.2965
34365POPC   C3B58370   6.298  24.920   9.747  0.1319  0.0317  0.1065
34365POPC   C4B58371   6.281  24.656   9.299 -0.3983 -0.0778 -0.1005
34366POPC   NC358372  14.666  27.498   8.676  0.0295  0.0720 -0.1985
34366POPC   PO458373  14.885  27.307   8.971 -0.2008 -0.1517 -0.2033
34366POPC   GL158374  14.891  27.100   8.594 -0.4769 -0.4319  0.1470
34366POPC   GL258375  14.910  27.164   8.347 -0.1291  0.0484 -0.2072
34366POPC   C1A58376  14.512  26.929   8.437  0.5227 -0.1449 -0.0701
34366POPC   D2A58377  14.208  26.897   8.083 -0.0346  0.0889 -0.0273
34366POPC   C3A58378  14.216  26.520   7.852 -0.0896  0.0052 -0.2977
34366POPC   C4A58379  14.441  26.128   7.817  0.0237  0.3219  0.0436
34366POPC   C1B58380  15.048  27.025   7.899  0.0066  0.1702 -0.0033
34366POPC   C2B58381  14.973  26.858   7.478 -0.0966  0.2786 -0.0622
34366POPC   C3B58382  14.951  26.546   7.116 -0.1858 -0.2863 -0.2171
34366POPC   C4B58383  14.759  26.374   6.718 -0.5068  0.2648 -0.1312
34367POPC   NC358384   0.271  24.598   9.239  0.2296 -0.1975  0.0217
34367POPC   PO458385  -0.054  24.694   9.448 -0.2089  0.1582  0.2558
34367POPC   GL158386  -0.457  24.526   9.337  0.3479  0.1282 -0.1269
34367POPC   GL258387  -0.377  24.403   9.126  0.3070 -0.0443 -0.2130
34367POPC   C1A58388  -0.771  24.574   8.931 -0.1955 -0.0623  0.0243
34367POPC   D2A58389  -0.767  24.726   8.505 -0.1980  0.2928  0.2244
34367POPC   C3A58390  -1.008  24.571   8.154 -0.1961  0.0844  0.0220
34367POPC   C4A58391  -1.066  24.337   7.759  0.1661 -0.0577 -0.1132
34367POPC   C1B58392  -0.564  24.097   8.845  0.1346 -0.0120 -0.0625
34367POPC   C2B58393  -0.576  24.253   8.407 -0.1174  0.0855 -0.1550
34367POPC   C3B58394  -0.588  24.203   7.968 -0.1175 -0.1004 -0.0078
34367POPC   C4B58395  -0.694  23.876   7.602 -0.0119 -0.0235  0.0996
34368POPC   NC358396   3.201  27.424   8.130 -0.1658 -0.1393 -0.4007
34368POPC   PO458397   3.444  27.592   8.423 -0.0799 -0.1757 -0.1419
34368POPC   GL158398   3.720  27.615   8.077 -0.1439 -0.0073  0.4525
34368POPC   GL258399   3.634  27.898   8.047 -0.0845  0.2984  0.0542
34368POPC   C1A58400   3.972  27.700   7.685  0.0819  0.3369 -0.1204
34368POPC   D2A58401   4.198  27.697   7.278 -0.2118 -0.0598  0.1934
34368POPC   C3A58402   4.266  27.468   6.841 -0.1892  0.0886  0.0319
34368POPC   C4A58403   4.525  27.197   6.562  0.2313 -0.0307  0.1438
34368POPC   C1B58404   3.453  27.709   7.663  0.3585 -0.0214 -0.0229
34368POPC   C2B58405   3.561  27.514   7.255  0.3274 -0.3757 -0.1484
34368POPC   C3B58406   3.798  27.262   6.949  0.2348  0.0912  0.1439
34368POPC   C4B58407   3.886  26.830   6.781  0.0829 -0.0735  0.0361
34369POPC   NC358408   3.749  23.748   9.787  0.6121  0.0051 -0.0709
34369POPC   PO458409   3.499  23.574   9.563 -0.0671 -0.0843  0.1107
34369POPC   GL158410   3.506  23.629   9.138  0.2773 -0.2153  0.1257
34369POPC   GL258411   3.709  23.373   9.091 -0.1833  0.1787 -0.1469
34369POPC   C1A58412   3.271  23.473   8.719  0.2217  0.2186  0.1367
34369POPC   D2A58413   2.988  23.308   8.450  0.0617  0.0129 -0.1152
34369POPC   C3A58414   3.168  23.142   8.067 -0.2754  0.1510 -0.3173
34369POPC   C4A58415   3.163  23.068   7.640 -0.0141 -0.0115 -0.2979
34369POPC   C1B58416   3.828  23.556   8.673  0.0314 -0.1707 -0.0462
34369POPC   C2B58417   3.590  23.782   8.283  0.1085  0.0808 -0.1702
34369POPC   C3B58418   3.269  23.662   7.935 -0.4213  0.0474  0.1237
34369POPC   C4B58419   3.135  23.540   7.520  0.1078 -0.2920  0.2497
34370POPC   NC358420  11.426  16.496   9.051  0.1136  0.0282  0.1859
34370POPC   PO458421  11.743  16.665   9.176 -0.2261  0.0100 -0.0918
34370POPC   GL158422  11.725  16.917   8.911 -0.0175  0.1362 -0.1831
34370POPC   GL258423  11.587  17.189   8.930  0.1086 -0.3345  0.2113
34370POPC   C1A58424  11.495  16.976   8.510  0.2010 -0.2489  0.0111
34370POPC   D2A58425  11.300  17.292   8.268  0.4042 -0.0303  0.1275
34370POPC   C3A58426  11.139  17.746   8.429 -0.0425  0.4610 -0.0472
34370POPC   C4A58427  10.941  18.109   8.668 -0.2726 -0.0654  0.1182
34370POPC   C1B58428  11.182  17.371   8.745 -0.1882  0.1661 -0.1996
34370POPC   C2B58429  10.759  17.614   8.765  0.0372  0.0033 -0.1122
34370POPC   C3B58430  10.497  17.774   8.401  0.3320 -0.3044  0.3387
34370POPC   C4B58431  10.122  18.066   8.253  0.2428 -0.0314  0.3099
34371POPC   NC358432   7.253  32.358   9.211 -0.0372 -0.2831  0.0302
34371POPC   PO458433   7.341  32.713   9.381  0.0318 -0.1039 -0.1288
34371POPC   GL158434   7.284  33.091   9.219 -0.2349  0.1740  0.0005
34371POPC   GL258435   7.311  33.132   8.923 -0.0609  0.1269 -0.0358
34371POPC   C1A58436   7.591  33.383   9.180 -0.0257  0.0549  0.3162
34371POPC   D2A58437   7.831  33.764   9.133  0.0827  0.1639 -0.0877
34371POPC   C3A58438   7.778  34.063   8.841 -0.0845  0.3125 -0.0231
34371POPC   C4A58439   7.637  34.328   8.496  0.1888 -0.2216  0.0718
34371POPC   C1B58440   7.622  33.410   8.677  0.1467  0.0766 -0.2900
34371POPC   C2B58441   7.715  33.808   8.425 -0.2711  0.0511 -0.3117
34371POPC   C3B58442   8.103  34.086   8.442 -0.1472 -0.0374  0.4121
34371POPC   C4B58443   8.535  34.153   8.385 -0.3384 -0.0587 -0.1976
34372POPC   NC358444  12.479  29.373   8.540  0.0657  0.1365  0.2846
34372POPC   PO458445  12.154  29.307   8.388 -0.1548  0.0345  0.0437
34372POPC   GL158446  11.956  29.090   8.052  0.0255 -0.1356 -0.0605
34372POPC   GL258447  11.731  29.332   8.068  0.3354  0.2404 -0.3001
34372POPC   C1A58448  11.684  29.079   7.648  0.0015 -0.1498  0.2587
34372POPC   D2A58449  11.415  29.186   7.269  0.0879  0.1304 -0.3136
34372POPC   C3A58450  11.399  29.133   6.878 -0.0176  0.4411  0.0927
34372POPC   C4A58451  11.558  28.902   6.535 -0.3505 -0.0293  0.3195
34372POPC   C1B58452  11.292  29.199   8.015 -0.0558  0.1412 -0.1408
34372POPC   C2B58453  10.952  29.205   7.721  0.2578 -0.1087  0.0267
34372POPC   C3B58454  10.654  29.310   7.373  0.2563 -0.1525 -0.0493
34372POPC   C4B58455  10.249  29.524   7.130 -0.1361  0.2458 -0.2881
34373POPC   NC358456   4.537  32.327   8.661 -0.2212  0.0641 -0.0276
34373POPC   PO458457   4.551  32.656   8.935  0.0303 -0.0017  0.1202
34373POPC   GL158458   4.687  32.784   8.579 -0.1124 -0.1780 -0.1348
34373POPC   GL258459   4.945  32.925   8.658 -0.0982  0.2849 -0.0398
34373POPC   C1A58460   4.888  32.657   8.147 -0.1273  0.0854 -0.5187
34373POPC   D2A58461   4.941  32.704   7.681 -0.2449  0.3327  0.2609
34373POPC   C3A58462   5.313  32.571   7.452 -0.2383  0.0575  0.0387
34373POPC   C4A58463   5.511  32.601   7.074  0.2481 -0.1998 -0.1715
34373POPC   C1B58464   4.886  33.236   8.325 -0.1260  0.1389  0.5626
34373POPC   C2B58465   4.957  33.348   7.862 -0.1552  0.1134  0.1077
34373POPC   C3B58466   4.869  33.461   7.467 -0.1072 -0.0209  0.2992
34373POPC   C4B58467   5.202  33.503   7.148 -0.2581 -0.1631  0.2104
34374POPC   NC358468  10.706  17.142  11.134 -0.0763 -0.0228  0.0129
34374POPC   PO458469  10.952  17.428  10.991  0.1034  0.0869  0.2315
34374POPC   GL158470  10.963  17.765  10.835  0.2655 -0.4189 -0.1635
34374POPC   GL258471  10.693  17.900  10.856  0.0140  0.5138 -0.0715
34374POPC   C1A58472  11.056  18.189  10.636 -0.0216 -0.3495 -0.3449
34374POPC   D2A58473  10.759  18.575  10.510 -0.4251 -0.3354 -0.0539
34374POPC   C3A58474  10.641  19.025  10.425 -0.0831 -0.0967  0.0558
34374POPC   C4A58475  10.474  19.284  10.083 -0.1073  0.1059 -0.0578
34374POPC   C1B58476  10.755  18.345  10.977 -0.2293  0.2345  0.1561
34374POPC   C2B58477  10.771  18.809  10.958  0.0898  0.1553  0.1046
34374POPC   C3B58478  10.747  19.236  10.851  0.0339 -0.0413  0.2119
34374POPC   C4B58479  10.919  19.633  10.651  0.0393 -0.1434  0.4561
34375POPC   NC358480  16.109  27.410   9.255  0.1407 -0.2939 -0.0954
34375POPC   PO458481  15.827  27.501   9.014 -0.2026  0.0786  0.0530
34375POPC   GL158482  15.920  27.495   8.563  0.1154 -0.3325 -0.2771
34375POPC   GL258483  15.727  27.540   8.343  0.2436  0.0748  0.0870
34375POPC   C1A58484  15.930  27.092   8.357 -0.1396  0.0401  0.2534
34375POPC   D2A58485  16.199  27.011   8.004 -0.1952  0.0124 -0.0815
34375POPC   C3A58486  16.056  26.845   7.552 -0.0025 -0.0174 -0.0343
34375POPC   C4A58487  16.005  26.804   7.079 -0.0190  0.0495 -0.1056
34375POPC   C1B58488  15.949  27.496   8.035  0.0519 -0.0081  0.3184
34375POPC   C2B58489  15.792  27.263   7.632  0.2824  0.1146  0.4431
34375POPC   C3B58490  15.661  27.202   7.174  0.1579 -0.1234 -0.1058
34375POPC   C4B58491  15.464  26.809   7.039 -0.3139  0.1602  0.1184
34376POPC   NC358492   9.424  16.765  14.090 -0.1769  0.1157  0.0782
34376POPC   PO458493   9.548  16.504  14.377 -0.3542  0.0342 -0.3289
34376POPC   GL158494   9.638  16.886  14.576 -0.0221  0.1768  0.0912
34376POPC   GL258495   9.375  16.950  14.613 -0.0187 -0.0317  0.2087
34376POPC   C1A58496   9.824  17.313  14.731 -0.0640  0.2924 -0.3624
34376POPC   D2A58497   9.682  17.706  14.888  0.0264 -0.1873  0.3196
34376POPC   C3A58498   9.816  18.174  14.882 -0.0226  0.1850  0.1407
34376POPC   C4A58499   9.745  18.537  14.566  0.0945  0.0582  0.1431
34376POPC   C1B58500   9.275  17.318  14.875 -0.0052 -0.2108  0.0874
34376POPC   C2B58501   9.303  17.678  15.186 -0.3166  0.1953 -0.0561
34376POPC   C3B58502   9.502  17.854  15.523 -0.2124  0.2615  0.0041
34376POPC   C4B58503   9.626  18.007  15.953 -0.0708  0.1160  0.1110
34377POPC   NC358504   2.630  26.828   8.107 -0.2982 -0.0206  0.4403
34377POPC   PO458505   2.844  27.081   8.352 -0.1686  0.0045  0.1701
34377POPC   GL158506   3.051  26.960   8.050  0.0070  0.2670  0.0493
34377POPC   GL258507   3.310  26.841   8.016 -0.2596  0.1309 -0.1215
34377POPC   C1A58508   3.167  27.164   7.626  0.3391  0.1183 -0.0965
34377POPC   D2A58509   2.977  27.309   7.210  0.1813 -0.0892 -0.0094
34377POPC   C3A58510   2.624  27.220   6.926  0.2111  0.1781 -0.1493
34377POPC   C4A58511   2.447  27.131   6.493 -0.0365  0.3725  0.1580
34377POPC   C1B58512   3.619  26.515   7.846  0.1254  0.1523 -0.1964
34377POPC   C2B58513   3.881  26.364   7.510  0.1000  0.1192  0.0585
34377POPC   C3B58514   4.027  26.008   7.254  0.0159 -0.0684  0.2069
34377POPC   C4B58515   3.965  25.614   7.001 -0.4159  0.0378 -0.0397
34378POPC   NC358516  15.153  19.278   8.732  0.2577  0.2728 -0.1984
34378POPC   PO458517  14.975  18.951   8.887 -0.0852  0.2828 -0.2782
34378POPC   GL158518  14.688  19.138   8.718  0.1142  0.1564  0.1063
34378POPC   GL258519  14.764  19.034   8.428 -0.1864 -0.1102  0.1197
34378POPC   C1A58520  14.666  19.557   8.587  0.0234 -0.0958  0.0263
34378POPC   D2A58521  14.411  19.841   8.380  0.2610  0.1163  0.1669
34378POPC   C3A58522  14.562  20.166   8.089  0.0826 -0.2557 -0.0235
34378POPC   C4A58523  14.337  20.509   7.954 -0.0877  0.3499  0.0996
34378POPC   C1B58524  14.952  19.353   8.227  0.3236  0.3450  0.2787
34378POPC   C2B58525  14.768  19.704   8.006 -0.0538 -0.0800 -0.0923
34378POPC   C3B58526  14.722  19.939   7.629  0.0750 -0.2130 -0.0695
34378POPC   C4B58527  14.400  20.289   7.471  0.0124  0.1123 -0.2644
34379POPC   NC358528   3.350  25.243   9.821 -0.2339  0.1972  0.2583
34379POPC   PO458529   3.359  25.106   9.458  0.1064  0.3500 -0.1318
34379POPC   GL158530   3.436  25.044   9.108  0.2300 -0.4294  0.0406
34379POPC   GL258531   3.355  24.932   8.896 -0.0443  0.3344  0.0313
34379POPC   C1A58532   3.703  25.206   8.806 -0.1183 -0.0802 -0.1116
34379POPC   D2A58533   3.509  25.216   8.396  0.1795  0.0150  0.0213
34379POPC   C3A58534   3.665  25.004   8.024 -0.0904  0.1259  0.0362
34379POPC   C4A58535   3.528  25.065   7.590  0.2577 -0.4228 -0.0313
34379POPC   C1B58536   3.645  24.747   8.512  0.0254 -0.0210  0.2119
34379POPC   C2B58537   4.021  24.747   8.320 -0.0419 -0.1428  0.1695
34379POPC   C3B58538   4.168  24.817   7.930  0.2572  0.2592 -0.0114
34379POPC   C4B58539   4.424  24.763   7.545 -0.1642 -0.2399  0.0106
34380POPC   NC358540  11.244  17.413  10.632 -0.3295 -0.1821  0.1006
34380POPC   PO458541  11.602  17.533  10.600 -0.2538 -0.2934 -0.1007
34380POPC   GL158542  11.412  17.857  10.473  0.1879  0.0190  0.4175
34380POPC   GL258543  11.418  18.008  10.237 -0.0688  0.1078 -0.2707
34380POPC   C1A58544  10.997  17.790  10.404  0.0650  0.0190 -0.1539
34380POPC   D2A58545  10.609  17.940  10.323  0.1173  0.0457  0.3768
34380POPC   C3A58546  10.602  18.376  10.085  0.0449  0.0922  0.4012
34380POPC   C4A58547  10.497  18.793   9.916  0.1412 -0.3589 -0.1455
34380POPC   C1B58548  11.189  18.375  10.150  0.2767  0.1418  0.0285
34380POPC   C2B58549  10.988  18.724   9.996  0.1798  0.1855  0.1430
34380POPC   C3B58550  11.049  19.172   9.984  0.0709  0.0426  0.0421
34380POPC   C4B58551  10.991  19.572  10.199 -0.1508  0.0170  0.2045
34381POPC   NC358552   4.453  27.599   8.512  0.1455 -0.0547  0.0595
34381POPC   PO458553   4.060  27.467   8.468 -0.0753 -0.0165  0.0512
34381POPC   GL158554   4.239  27.376   8.167 -0.0357 -0.2374 -0.2139
34381POPC   GL258555   4.294  27.747   8.047  0.1397 -0.2022  0.0185
34381POPC   C1A58556   4.302  27.276   7.717 -0.2199 -0.2673  0.0653
34381POPC   D2A58557   4.327  27.018   7.364 -0.2197 -0.2065  0.0381
34381POPC   C3A58558   4.103  26.659   7.192 -0.1166  0.1448 -0.3854
34381POPC   C4A58559   3.788  26.355   6.944  0.0008 -0.0409  0.2452
34381POPC   C1B58560   4.558  27.749   7.603  0.0117  0.1913  0.0897
34381POPC   C2B58561   4.710  27.690   7.129 -0.0247 -0.4154 -0.2712
34381POPC   C3B58562   4.693  27.819   6.702 -0.0590  0.1697 -0.0062
34381POPC   C4B58563   4.580  28.024   6.299 -0.2227  0.1800  0.2515
34382POPC   NC358564   6.068  18.932  10.286 -0.2160 -0.4055 -0.1842
34382POPC   PO458565   5.703  19.125  10.279  0.1917 -0.0737  0.1389
34382POPC   GL158566   5.777  19.311   9.999 -0.0171  0.1239 -0.0941
34382POPC   GL258567   5.931  19.120   9.841 -0.1270  0.0328 -0.0971
34382POPC   C1A58568   5.580  19.465   9.608 -0.4389  0.0768 -0.4706
34382POPC   D2A58569   5.732  19.877   9.557 -0.4261  0.3474 -0.1303
34382POPC   C3A58570   6.071  20.133   9.517  0.1523  0.2595 -0.1703
34382POPC   C4A58571   6.511  20.329   9.476  0.1031 -0.2344 -0.1870
34382POPC   C1B58572   6.073  19.410   9.488  0.0942 -0.2232  0.0792
34382POPC   C2B58573   6.137  19.707   9.150 -0.2941 -0.0332  0.2979
34382POPC   C3B58574   6.035  19.632   8.737  0.1493 -0.0303  0.0099
34382POPC   C4B58575   5.997  19.814   8.288 -0.1113  0.0914  0.0736
34383POPC   NC358576   6.304  18.193  13.022 -0.0606 -0.0050 -0.1302
34383POPC   PO458577   6.476  18.508  13.218 -0.4363  0.0101  0.2476
34383POPC   GL158578   6.671  18.846  13.450  0.2422  0.0193 -0.3513
34383POPC   GL258579   6.981  18.871  13.488 -0.0398 -0.0313  0.1262
34383POPC   C1A58580   6.645  19.305  13.501  0.2167  0.0683 -0.2473
34383POPC   D2A58581   6.914  19.507  13.848 -0.0429 -0.1565 -0.0516
34383POPC   C3A58582   7.340  19.682  13.723 -0.0323 -0.2917 -0.1819
34383POPC   C4A58583   7.666  19.992  13.744 -0.1376 -0.0287  0.1723
34383POPC   C1B58584   7.251  19.132  13.723 -0.2681 -0.1327 -0.1976
34383POPC   C2B58585   7.379  19.346  14.093 -0.0874  0.1673 -0.0194
34383POPC   C3B58586   7.245  19.799  14.283  0.3303  0.0687 -0.1036
34383POPC   C4B58587   6.894  19.909  14.541  0.1704 -0.0853  0.1080
34384POPC   NC358588   2.160  18.240   8.395 -0.1519 -0.2067 -0.2305
34384POPC   PO458589   2.156  18.515   8.641 -0.2010 -0.1743 -0.0189
34384POPC   GL158590   2.173  18.647   8.222 -0.0660 -0.2803 -0.0779
34384POPC   GL258591   2.119  18.934   8.342  0.1496  0.1085 -0.0564
34384POPC   C1A58592   2.359  18.956   7.935  0.0365 -0.0131  0.2749
34384POPC   D2A58593   2.554  19.014   7.493  0.1691  0.3259  0.0568
34384POPC   C3A58594   2.908  18.810   7.312  0.3477 -0.2577 -0.1152
34384POPC   C4A58595   3.277  18.944   7.188 -0.0669 -0.2060  0.3723
34384POPC   C1B58596   1.862  19.093   8.052 -0.0976 -0.1332 -0.4337
34384POPC   C2B58597   1.843  19.411   7.739  0.0149 -0.2198 -0.1371
34384POPC   C3B58598   2.039  19.616   7.372 -0.0494  0.0061 -0.0141
34384POPC   C4B58599   2.277  19.823   6.964 -0.1164  0.0130  0.0148
34385POPC   NC358600  15.997  31.461   8.052 -0.1442  0.3665  0.1714
34385POPC   PO458601  15.889  31.472   7.680 -0.1294  0.2188 -0.0861
34385POPC   GL158602  15.717  31.516   7.292 -0.0045  0.0534 -0.0086
34385POPC   GL258603  15.782  31.228   7.206  0.0691 -0.2638 -0.1623
34385POPC   C1A58604  15.735  31.467   6.796  0.1657  0.3151  0.0611
34385POPC   D2A58605  15.702  31.242   6.385  0.0226  0.1531  0.0736
34385POPC   C3A58606  15.876  30.807   6.297 -0.2192 -0.3850  0.1092
34385POPC   C4A58607  16.016  30.446   6.462  0.0069  0.1331  0.1409
34385POPC   C1B58608  16.049  31.020   6.880  0.1613 -0.0856  0.1726
34385POPC   C2B58609  16.226  31.132   6.489  0.1903 -0.2817  0.0647
34385POPC   C3B58610  16.201  31.202   6.058  0.0914  0.0661 -0.0125
34385POPC   C4B58611  16.092  31.247   5.594 -0.1853 -0.0359  0.2053
34386POPC   NC358612   3.724  24.744  10.455  0.2962  0.1196 -0.1272
34386POPC   PO458613   4.025  24.469  10.313  0.0631 -0.1254 -0.3578
34386POPC   GL158614   4.307  24.512   9.994  0.1132 -0.1509 -0.0007
34386POPC   GL258615   4.576  24.637  10.048  0.0461 -0.1453  0.2163
34386POPC   C1A58616   4.456  24.318   9.573 -0.1154 -0.0333 -0.1390
34386POPC   D2A58617   4.671  24.257   9.070 -0.1047  0.3775 -0.3504
34386POPC   C3A58618   4.864  23.899   8.924  0.0471 -0.0223  0.3339
34386POPC   C4A58619   5.304  23.734   8.865  0.2343  0.0851  0.0434
34386POPC   C1B58620   4.857  24.477   9.780 -0.2919  0.1442 -0.0378
34386POPC   C2B58621   5.056  24.444   9.399 -0.1756 -0.1540 -0.3058
34386POPC   C3B58622   5.311  24.170   9.197 -0.0383  0.0314  0.0599
34386POPC   C4B58623   5.677  23.908   9.087 -0.0470 -0.2663 -0.1783
34387POPC   NC358624   1.693  17.605   8.377 -0.0433 -0.0119  0.3366
34387POPC   PO458625   1.749  17.986   8.318  0.0878  0.0964 -0.0783
34387POPC   GL158626   1.787  18.271   8.065  0.1451  0.2968  0.2262
34387POPC   GL258627   1.762  18.495   8.157 -0.0446 -0.2333  0.0042
34387POPC   C1A58628   1.651  18.295   7.628  0.1597 -0.2045  0.2054
34387POPC   D2A58629   1.749  18.451   7.171 -0.0709  0.4785  0.0681
34387POPC   C3A58630   2.129  18.362   6.902  0.1820 -0.0239 -0.0424
34387POPC   C4A58631   2.473  18.355   6.635 -0.3020 -0.0556  0.1827
34387POPC   C1B58632   1.982  18.669   7.807 -0.4030 -0.1335 -0.1917
34387POPC   C2B58633   2.048  19.042   7.506 -0.1254 -0.3363  0.0467
34387POPC   C3B58634   2.119  19.225   7.115  0.3098 -0.0336  0.4325
34387POPC   C4B58635   1.961  19.158   6.692  0.4448 -0.1563 -0.0829
34388POPC   NC358636   1.213  15.195   8.196 -0.1879  0.0424  0.0457
34388POPC   PO458637   0.999  15.514   8.247 -0.2025 -0.1693 -0.2647
34388POPC   GL158638   0.973  15.708   7.845 -0.1980  0.0621 -0.1540
34388POPC   GL258639   1.046  15.522   7.664  0.1370  0.2565 -0.0044
34388POPC   C1A58640   0.623  15.874   7.579  0.0071 -0.2229  0.1651
34388POPC   D2A58641   0.270  16.171   7.444 -0.0156  0.0583 -0.0494
34388POPC   C3A58642   0.023  16.321   7.066  0.2576 -0.1439 -0.2759
34388POPC   C4A58643  -0.115  16.517   6.679  0.2116 -0.0041  0.0721
34388POPC   C1B58644   1.000  15.535   7.171  0.0845  0.0846  0.1619
34388POPC   C2B58645   1.193  15.525   6.759  0.0102  0.0172 -0.4555
34388POPC   C3B58646   1.162  15.399   6.345  0.2972  0.1080  0.0066
34388POPC   C4B58647   1.090  15.346   5.898  0.0359  0.3631  0.3266
34389POPC   NC358648   3.463  18.662   9.294 -0.0548 -0.1731  0.0067
34389POPC   PO458649   3.173  18.881   9.427 -0.0840 -0.1149  0.0668
34389POPC   GL158650   3.199  19.038   9.070 -0.0728 -0.2190  0.2887
34389POPC   GL258651   3.104  19.278   9.114 -0.3421 -0.0978  0.3397
34389POPC   C1A58652   3.433  18.702   8.774 -0.3153 -0.0123  0.0876
34389POPC   D2A58653   3.513  18.273   8.667  0.1088 -0.0092  0.2445
34389POPC   C3A58654   3.738  18.162   8.253  0.1898  0.2852  0.1872
34389POPC   C4A58655   4.154  17.892   8.187 -0.1752  0.0914  0.3051
34389POPC   C1B58656   3.359  19.448   8.802 -0.0922  0.2586  0.3473
34389POPC   C2B58657   3.628  19.596   8.452  0.3526  0.2189  0.3380
34389POPC   C3B58658   3.769  19.909   8.152  0.2186  0.0421 -0.0676
34389POPC   C4B58659   3.800  20.359   8.268 -0.1799  0.3171  0.3101
34390POPC   NC358660   2.334  30.654   7.565  0.1404  0.0064 -0.1987
34390POPC   PO458661   2.306  30.982   7.761 -0.0676  0.2260  0.0361
34390POPC   GL158662   2.396  31.319   7.537 -0.1732 -0.0242  0.2120
34390POPC   GL258663   2.526  31.094   7.349 -0.2120  0.1179 -0.1809
34390POPC   C1A58664   2.186  31.575   7.250 -0.0855  0.1940  0.1984
34390POPC   D2A58665   2.217  31.685   6.756  0.0333  0.2328 -0.1653
34390POPC   C3A58666   2.162  31.371   6.436  0.0643 -0.1406 -0.0198
34390POPC   C4A58667   2.238  31.257   5.950 -0.3050 -0.0792 -0.3280
34390POPC   C1B58668   2.681  31.317   7.017 -0.0353  0.1365  0.0200
34390POPC   C2B58669   2.916  31.511   6.657 -0.3364  0.1142  0.4011
34390POPC   C3B58670   3.383  31.543   6.714 -0.1406  0.0990  0.0109
34390POPC   C4B58671   3.815  31.511   6.591 -0.1194  0.1837  0.0200
34391POPC   NC358672  14.842  23.559  14.477 -0.1866  0.0991 -0.0066
34391POPC   PO458673  14.688  23.797  14.189  0.1100  0.0215  0.1591
34391POPC   GL158674  14.470  23.374  14.192  0.0906  0.1329  0.2231
34391POPC   GL258675  14.365  23.358  14.418  0.1662  0.3558 -0.1252
34391POPC   C1A58676  14.185  23.042  14.045  0.0101  0.0496 -0.0425
34391POPC   D2A58677  13.700  22.973  14.049  0.0509  0.0987 -0.3480
34391POPC   C3A58678  13.429  22.676  14.307  0.1773 -0.3345  0.2182
34391POPC   C4A58679  13.022  22.575  14.222  0.1505 -0.1237 -0.0756
34391POPC   C1B58680  13.906  23.416  14.442 -0.1971  0.0400 -0.0371
34391POPC   C2B58681  13.480  23.231  14.442 -0.1385 -0.0808  0.0054
34391POPC   C3B58682  13.082  23.089  14.520  0.1590  0.1382 -0.3240
34391POPC   C4B58683  12.771  22.739  14.614 -0.1026 -0.0073  0.0697
34392POPC   NC358684   1.420  21.685   8.996  0.0820 -0.2610  0.1817
34392POPC   PO458685   1.406  22.053   9.068 -0.0046 -0.0931 -0.0005
34392POPC   GL158686   1.311  22.097   8.717 -0.2054  0.2726 -0.2203
34392POPC   GL258687   1.596  22.253   8.683  0.2724  0.0086  0.1892
34392POPC   C1A58688   1.486  22.000   8.232  0.1493  0.0692 -0.2770
34392POPC   D2A58689   1.656  21.997   7.789  0.0238  0.1020 -0.0074
34392POPC   C3A58690   2.115  22.076   7.815  0.1900  0.0286  0.1058
34392POPC   C4A58691   2.553  22.095   7.710  0.2039  0.2282 -0.0866
34392POPC   C1B58692   1.263  22.430   8.375  0.2916 -0.0531  0.1772
34392POPC   C2B58693   1.353  22.437   7.920 -0.0181  0.3135  0.2703
34392POPC   C3B58694   1.320  22.631   7.501  0.4403 -0.1826  0.0256
34392POPC   C4B58695   1.494  22.542   7.044 -0.0325 -0.1468 -0.2582
34393POPC   NC358696  11.050  27.686   9.934 -0.2365  0.0415  0.2418
34393POPC   PO458697  11.341  27.941  10.057  0.1913  0.0594 -0.0846
34393POPC   GL158698  11.449  27.520  10.088  0.0116  0.0049 -0.2399
34393POPC   GL258699  11.674  27.469   9.868  0.3755 -0.0835  0.0387
34393POPC   C1A58700  11.269  27.151   9.908 -0.0984  0.1168 -0.3101
34393POPC   D2A58701  11.173  26.762   9.646 -0.0240  0.3401 -0.0857
34393POPC   C3A58702  11.321  26.335   9.492  0.0123 -0.0523 -0.0356
34393POPC   C4A58703  11.042  25.971   9.556  0.0554 -0.0677  0.0742
34393POPC   C1B58704  11.395  27.501   9.516 -0.2274 -0.1087  0.2684
34393POPC   C2B58705  11.063  27.211   9.484 -0.0176 -0.1600  0.1487
34393POPC   C3B58706  10.972  26.887   9.172 -0.0658 -0.0720 -0.1308
34393POPC   C4B58707  10.783  26.596   8.879  0.0522 -0.0720  0.0239
34394POPC   NC358708   5.440  16.435   9.700 -0.2183 -0.0541 -0.0673
34394POPC   PO458709   5.472  16.637   9.348  0.0498  0.4136  0.1888
34394POPC   GL158710   5.626  16.966   9.096  0.2868 -0.0423  0.1259
34394POPC   GL258711   5.396  16.923   8.858 -0.4139 -0.2156  0.3536
34394POPC   C1A58712   5.854  16.873   8.686  0.2087  0.1533  0.0429
34394POPC   D2A58713   5.920  16.831   8.272  0.0507 -0.1764  0.0613
34394POPC   C3A58714   5.752  17.073   7.978 -0.1346  0.3106 -0.0211
34394POPC   C4A58715   5.885  17.390   7.694 -0.0937 -0.0984 -0.1276
34394POPC   C1B58716   5.534  17.191   8.460 -0.1161  0.2094 -0.0134
34394POPC   C2B58717   5.369  17.464   8.145  0.0650 -0.1793  0.1153
34394POPC   C3B58718   5.514  17.838   7.927  0.1073 -0.0208 -0.0334
34394POPC   C4B58719   5.853  18.081   8.064 -0.0437 -0.4761 -0.0779
34395POPC   NC358720  14.492  18.696   8.726 -0.0490 -0.0080  0.1709
34395POPC   PO458721  14.825  18.497   8.636 -0.1765  0.0534  0.1422
34395POPC   GL158722  14.931  18.314   8.314 -0.1356  0.0786 -0.0948
34395POPC   GL258723  15.007  18.547   8.099  0.0274  0.1264 -0.1162
34395POPC   C1A58724  14.674  18.175   7.933 -0.3975 -0.1082  0.0474
34395POPC   D2A58725  14.780  18.067   7.456 -0.2240 -0.0248  0.0589
34395POPC   C3A58726  14.812  18.135   6.990 -0.0231 -0.0961  0.1039
34395POPC   C4A58727  14.499  18.037   6.583 -0.1234  0.1829 -0.1810
34395POPC   C1B58728  14.935  18.580   7.656  0.3213 -0.3253  0.0069
34395POPC   C2B58729  15.086  18.569   7.208 -0.1486 -0.0352  0.0802
34395POPC   C3B58730  15.059  18.535   6.758 -0.1093  0.0494 -0.2597
34395POPC   C4B58731  14.998  18.852   6.425  0.1145 -0.1886 -0.1773
34396POPC   NC358732   2.069  23.248   9.140 -0.1447 -0.1624  0.1479
34396POPC   PO458733   1.818  22.982   9.214  0.1474 -0.3029 -0.2082
34396POPC   GL158734   1.873  22.977   8.823  0.1122  0.0235  0.0273
34396POPC   GL258735   2.106  22.799   8.836 -0.1851 -0.1297  0.0398
34396POPC   C1A58736   1.677  23.188   8.405 -0.1139  0.0365 -0.0380
34396POPC   D2A58737   1.459  22.948   8.006  0.1315 -0.0485 -0.0046
34396POPC   C3A58738   1.325  23.185   7.661 -0.0535  0.0727 -0.0252
34396POPC   C4A58739   1.385  23.179   7.225  0.0227 -0.1915 -0.0776
34396POPC   C1B58740   2.144  22.870   8.360  0.0983 -0.1926  0.2702
34396POPC   C2B58741   1.993  22.875   7.954  0.1350 -0.3105  0.0769
34396POPC   C3B58742   1.868  22.549   7.710 -0.3038  0.1015  0.1566
34396POPC   C4B58743   1.797  22.307   7.318 -0.6333  0.1502 -0.3156
34397POPC   NC358744  14.612  30.805   8.624 -0.0495 -0.3903 -0.4875
34397POPC   PO458745  14.522  31.211   8.689  0.2318  0.0766 -0.0669
34397POPC   GL158746  14.483  31.414   8.328 -0.4476 -0.1320  0.1317
34397POPC   GL258747  14.295  31.433   8.104  0.2373 -0.0065  0.4837
34397POPC   C1A58748  14.415  31.849   8.252  0.1211  0.2250  0.0052
34397POPC   D2A58749  14.106  32.179   8.262  0.0579  0.1247 -0.2007
34397POPC   C3A58750  13.978  32.379   7.862 -0.0029 -0.0493 -0.1430
34397POPC   C4A58751  14.024  32.571   7.452 -0.1258 -0.5035 -0.0813
34397POPC   C1B58752  14.363  31.689   7.697  0.0848  0.1758 -0.0797
34397POPC   C2B58753  14.454  31.764   7.247 -0.0783 -0.0147 -0.1289
34397POPC   C3B58754  14.359  31.830   6.822 -0.3784 -0.1799 -0.0524
34397POPC   C4B58755  14.406  31.755   6.402  0.1405 -0.1216 -0.0661
34398POPC   NC358756   2.983  23.423   9.667  0.1006 -0.1110  0.2828
34398POPC   PO458757   3.235  23.170   9.811 -0.1893  0.1439  0.2316
34398POPC   GL158758   3.391  23.009   9.469 -0.1758 -0.3925 -0.2079
34398POPC   GL258759   3.310  23.184   9.280 -0.1417 -0.1903  0.2302
34398POPC   C1A58760   3.749  22.743   9.263 -0.2886 -0.0691 -0.0872
34398POPC   D2A58761   3.856  22.751   8.833  0.1297 -0.2189  0.0628
34398POPC   C3A58762   3.910  22.877   8.342  0.1419 -0.0104 -0.0324
34398POPC   C4A58763   3.726  22.898   7.933  0.1308 -0.2127  0.2406
34398POPC   C1B58764   3.391  23.017   8.899  0.2490 -0.0834 -0.1263
34398POPC   C2B58765   3.493  23.112   8.475 -0.3032 -0.2400 -0.1596
34398POPC   C3B58766   3.716  23.365   8.155  0.3275  0.2608 -0.1373
34398POPC   C4B58767   3.847  23.713   7.902  0.2956 -0.0646  0.0632
34399POPC   NC358768  13.818  24.985  12.804 -0.0697  0.1121 -0.0013
34399POPC   PO458769  13.906  25.026  12.421  0.0569  0.1023 -0.1013
34399POPC   GL158770  13.547  24.985  12.224  0.0049  0.0535  0.2763
34399POPC   GL258771  13.663  24.696  12.179  0.2667  0.2728 -0.0321
34399POPC   C1A58772  13.223  24.651  12.232  0.0688  0.3590 -0.1539
34399POPC   D2A58773  13.039  24.278  12.410 -0.0468  0.1007 -0.2410
34399POPC   C3A58774  12.762  24.218  12.122  0.1234 -0.2276  0.3021
34399POPC   C4A58775  12.641  24.292  11.672 -0.1003  0.0051 -0.3306
34399POPC   C1B58776  13.533  24.218  12.154  0.0667 -0.0130  0.1760
34399POPC   C2B58777  13.205  23.965  11.983  0.4412 -0.3732 -0.0131
34399POPC   C3B58778  12.795  23.829  11.875 -0.0485  0.3018  0.1712
34399POPC   C4B58779  12.297  23.913  11.867  0.0792 -0.0573 -0.1845
34400POPC   NC358780   7.001  18.721  12.045 -0.0634 -0.1611 -0.0752
34400POPC   PO458781   7.316  18.790  11.830 -0.3586  0.2406  0.3858
34400POPC   GL158782   7.569  19.092  11.925 -0.3180  0.2960  0.1076
34400POPC   GL258783   7.294  19.192  12.124 -0.3902 -0.1621 -0.4016
34400POPC   C1A58784   7.788  19.470  11.757  0.1584  0.4387 -0.3329
34400POPC   D2A58785   8.192  19.662  11.565  0.1682  0.3118  0.1786
34400POPC   C3A58786   8.388  19.729  11.156  0.2239 -0.0800  0.0930
34400POPC   C4A58787   8.810  19.537  10.995  0.2423 -0.0101  0.0513
34400POPC   C1B58788   7.642  19.420  12.316  0.0706  0.1418 -0.1519
34400POPC   C2B58789   7.899  19.768  12.364 -0.2645  0.2840  0.1206
34400POPC   C3B58790   8.134  20.127  12.446 -0.0164  0.3346  0.1130
34400POPC   C4B58791   8.097  20.518  12.747 -0.0489  0.0717 -0.2604
34401POPC   NC358792   3.958  22.381  10.794 -0.0840  0.0535 -0.2641
34401POPC   PO458793   4.258  22.369  10.550  0.0122  0.1194  0.1089
34401POPC   GL158794   4.521  22.402  10.215 -0.2412  0.1439 -0.0282
34401POPC   GL258795   4.717  22.530  10.287 -0.2069 -0.0655 -0.3613
34401POPC   C1A58796   4.645  22.152   9.811  0.0107  0.4663  0.2674
34401POPC   D2A58797   4.733  22.028   9.357  0.1288 -0.0005  0.2416
34401POPC   C3A58798   4.763  22.140   8.873 -0.2299  0.1323 -0.1928
34401POPC   C4A58799   4.729  22.451   8.506 -0.0496  0.2319 -0.1739
34401POPC   C1B58800   4.995  22.520   9.909 -0.1406 -0.0848 -0.1153
34401POPC   C2B58801   5.123  22.437   9.449 -0.2467  0.0417  0.2473
34401POPC   C3B58802   5.319  22.420   8.953 -0.0312  0.1856 -0.0034
34401POPC   C4B58803   5.222  22.235   8.517  0.2284  0.2923 -0.1843
34402POPC   NC358804   9.713  17.920  11.295 -0.2143 -0.0791  0.0196
34402POPC   PO458805   9.395  17.713  11.134  0.0468 -0.1012 -0.1538
34402POPC   GL158806   9.323  18.000  10.927  0.2626  0.2793  0.2305
34402POPC   GL258807   9.617  18.060  10.801 -0.1226 -0.2542  0.2707
34402POPC   C1A58808   9.408  18.343  11.246  0.1735  0.0574 -0.2885
34402POPC   D2A58809   9.782  18.447  11.550  0.0471 -0.1207  0.1207
34402POPC   C3A58810   9.932  18.900  11.550 -0.1237 -0.1536 -0.1130
34402POPC   C4A58811  10.029  19.335  11.513 -0.0690 -0.0280 -0.1141
34402POPC   C1B58812   9.354  18.440  10.776 -0.0733 -0.0678 -0.4458
34402POPC   C2B58813   8.965  18.649  10.605  0.0581 -0.0406 -0.0879
34402POPC   C3B58814   8.645  18.900  10.752 -0.1868  0.1004 -0.0964
34402POPC   C4B58815   8.212  18.897  10.771  0.2551  0.3143 -0.0934
34403POPC   NC358816  10.931  27.928  10.704  0.1342  0.1936 -0.1912
34403POPC   PO458817  10.619  27.841  10.928  0.1668 -0.1912  0.1959
34403POPC   GL158818  10.563  27.592  10.623 -0.2201  0.0123 -0.4996
34403POPC   GL258819  10.681  27.539  10.437 -0.2468  0.2235 -0.1378
34403POPC   C1A58820  10.462  27.141  10.581 -0.0835 -0.2214  0.2530
34403POPC   D2A58821  10.514  26.684  10.424 -0.0901  0.0778  0.0802
34403POPC   C3A58822  10.270  26.257  10.400 -0.2021  0.0063  0.1622
34403POPC   C4A58823  10.165  25.836  10.421 -0.0266 -0.0819 -0.0258
34403POPC   C1B58824  10.772  27.265  10.065  0.0434 -0.1741  0.0279
34403POPC   C2B58825  10.675  26.882   9.753 -0.0816  0.3956  0.1061
34403POPC   C3B58826  10.546  26.597   9.461  0.3806  0.0247  0.0062
34403POPC   C4B58827  10.644  26.153   9.254 -0.0545  0.0822 -0.1583
34404POPC   NC358828  15.459  18.042   9.346  0.2513 -0.1305 -0.1856
34404POPC   PO458829  15.629  18.196   9.079 -0.3823 -0.3602  0.0895
34404POPC   GL158830  15.891  18.303   8.728  0.1092 -0.0676  0.1900
34404POPC   GL258831  15.771  18.578   8.641  0.2146 -0.1781  0.1397
34404POPC   C1A58832  15.968  18.046   8.398 -0.1191 -0.0512 -0.2540
34404POPC   D2A58833  16.368  17.986   8.186 -0.0433 -0.1298 -0.0642
34404POPC   C3A58834  16.277  17.968   7.726 -0.4130  0.1091 -0.0628
34404POPC   C4A58835  16.488  18.007   7.332 -0.2012  0.0350  0.0005
34404POPC   C1B58836  15.565  18.426   8.221  0.0735 -0.3174  0.0450
34404POPC   C2B58837  15.592  18.629   7.801  0.1563  0.2421 -0.1461
34404POPC   C3B58838  15.530  19.007   7.549 -0.2617 -0.0993 -0.0051
34404POPC   C4B58839  15.727  19.243   7.120  0.0536  0.0558 -0.2260
34405POPC   NC358840   7.176  27.083  10.994 -0.0883 -0.1763  0.1154
34405POPC   PO458841   7.020  27.001  10.664 -0.1826 -0.0895  0.0605
34405POPC   GL158842   7.309  26.869  10.526 -0.1368  0.0745 -0.3850
34405POPC   GL258843   7.462  26.693  10.698 -0.0980  0.1705  0.0928
34405POPC   C1A58844   7.729  26.765  10.292  0.0006  0.3420  0.0483
34405POPC   D2A58845   8.068  26.458  10.141  0.0373  0.0700  0.0538
34405POPC   C3A58846   8.083  26.147   9.797  0.2585 -0.0667  0.0484
34405POPC   C4A58847   8.179  25.752   9.591  0.0389  0.0292 -0.1420
34405POPC   C1B58848   7.739  26.330  10.531 -0.2122  0.1725 -0.0324
34405POPC   C2B58849   7.987  25.992  10.351  0.2070  0.3129  0.2361
34405POPC   C3B58850   8.322  25.840  10.081 -0.1804  0.5872  0.0101
34405POPC   C4B58851   8.604  25.867   9.756  0.3534  0.0739 -0.0613
34406POPC   NC358852   8.924  30.125   9.665  0.3345  0.1847 -0.0077
34406POPC   PO458853   8.804  30.010   9.302 -0.3412  0.3764  0.0607
34406POPC   GL158854   8.909  30.051   8.864  0.4765 -0.0451  0.3910
34406POPC   GL258855   8.738  29.809   8.842  0.4085  0.2425  0.0977
34406POPC   C1A58856   8.799  30.256   8.423 -0.0620  0.2311  0.0242
34406POPC   D2A58857   8.959  30.262   7.984 -0.0565  0.0583  0.1000
34406POPC   C3A58858   8.820  30.515   7.596 -0.1755  0.1911 -0.0628
34406POPC   C4A58859   8.871  30.601   7.092  0.0423 -0.2369 -0.3171
34406POPC   C1B58860   8.829  29.699   8.373 -0.2047 -0.0724 -0.1460
34406POPC   C2B58861   8.773  29.730   7.902  0.3091  0.0293  0.0121
34406POPC   C3B58862   8.845  29.970   7.496  0.0054  0.2735  0.1991
34406POPC   C4B58863   8.906  30.116   7.027 -0.0597 -0.0415  0.0584
34407POPC   NC358864   3.440  26.944   8.931 -0.1932  0.1973 -0.0617
34407POPC   PO458865   3.314  27.101   8.576 -0.0174 -0.0057 -0.0940
34407POPC   GL158866   3.604  27.077   8.336 -0.0644  0.3686  0.3839
34407POPC   GL258867   3.753  27.163   8.127 -0.6442 -0.6990  0.5415
34407POPC   C1A58868   3.843  26.698   8.212  0.0748 -0.0419 -0.2308
34407POPC   D2A58869   4.070  26.330   7.989  0.0862 -0.0164 -0.0996
34407POPC   C3A58870   4.496  26.230   7.878 -0.1637  0.1615 -0.0888
34407POPC   C4A58871   4.940  26.302   7.628  0.0086 -0.1227  0.0054
34407POPC   C1B58872   3.796  27.056   7.644 -0.1186  0.2760  0.0090
34407POPC   C2B58873   3.642  26.823   7.261  0.0855  0.2036 -0.0027
34407POPC   C3B58874   3.356  27.013   6.970 -0.0506  0.0003 -0.0905
34407POPC   C4B58875   3.003  27.028   6.660  0.1041 -0.3893  0.2577
34408POPC   NC358876   4.518  23.267  11.009 -0.4786 -0.2602  0.0648
34408POPC   PO458877   4.863  23.053  11.056  0.0656 -0.3167  0.1496
34408POPC   GL158878   5.258  22.827  10.939  0.0148  0.0735 -0.2388
34408POPC   GL258879   5.229  22.603  10.943 -0.3268  0.1166 -0.2679
34408POPC   C1A58880   5.327  22.751  10.496 -0.0563  0.0431  0.2999
34408POPC   D2A58881   5.670  22.841  10.157  0.3323  0.2525 -0.0478
34408POPC   C3A58882   5.900  22.708   9.834  0.0026 -0.1616  0.3063
34408POPC   C4A58883   6.321  22.721   9.545  0.0469 -0.3464  0.0342
34408POPC   C1B58884   5.657  22.530  10.792 -0.1259 -0.0971  0.1502
34408POPC   C2B58885   5.923  22.498  10.365  0.0180  0.0072  0.2441
34408POPC   C3B58886   6.252  22.784  10.249 -0.1319 -0.1270  0.1416
34408POPC   C4B58887   6.294  23.090   9.888  0.1021  0.1273  0.4644
34409POPC   NC358888  12.464  26.261  13.968  0.0877 -0.1950  0.1661
34409POPC   PO458889  12.154  26.467  13.873  0.0568 -0.0423  0.0823
34409POPC   GL158890  12.015  26.080  13.841  0.1682 -0.2090  0.0570
34409POPC   GL258891  12.203  25.852  13.828  0.1685 -0.2013 -0.2108
34409POPC   C1A58892  11.667  25.796  13.721 -0.2231  0.1408  0.0191
34409POPC   D2A58893  11.536  25.380  13.667  0.1199 -0.2656 -0.2272
34409POPC   C3A58894  11.632  25.321  13.231  0.3249  0.3678  0.1532
34409POPC   C4A58895  11.529  25.648  12.869  0.2931 -0.2007 -0.2202
34409POPC   C1B58896  11.963  25.574  14.040  0.2837 -0.2887  0.1009
34409POPC   C2B58897  11.844  25.113  14.096 -0.0439 -0.0294  0.1757
34409POPC   C3B58898  11.499  24.799  14.168  0.1972 -0.3976 -0.0216
34409POPC   C4B58899  11.314  24.414  14.408 -0.1759 -0.1489 -0.0993
34410POPC   NC358900   3.090  23.878   9.383 -0.0870 -0.1354 -0.2186
34410POPC   PO458901   3.463  24.034   9.368 -0.1859 -0.3322  0.0525
34410POPC   GL158902   3.656  24.263   9.089  0.1330  0.1039  0.2270
34410POPC   GL258903   3.557  24.502   8.980  0.0260  0.0068 -0.1284
34410POPC   C1A58904   4.113  24.416   9.142 -0.1166 -0.1840  0.3077
34410POPC   D2A58905   4.232  24.530   8.734  0.2330  0.4484 -0.1597
34410POPC   C3A58906   4.487  24.208   8.573  0.2071 -0.0385  0.0818
34410POPC   C4A58907   4.885  24.025   8.373  0.1779 -0.4702  0.1708
34410POPC   C1B58908   3.788  24.291   8.656  0.2070  0.0713 -0.2511
34410POPC   C2B58909   4.050  24.090   8.374 -0.3753 -0.1284  0.0859
34410POPC   C3B58910   4.313  23.781   8.060 -0.2460  0.2429  0.1850
34410POPC   C4B58911   4.699  23.622   7.921  0.3265  0.0019  0.1977
34411POPC   NC358912  13.366  17.540  14.710 -0.2128 -0.2220 -0.3843
34411POPC   PO458913  13.476  17.264  14.961  0.4182 -0.3349  0.0316
34411POPC   GL158914  13.405  17.493  15.193  0.0969  0.0980 -0.1202
34411POPC   GL258915  13.654  17.607  15.218 -0.1977  0.2362 -0.2558
34411POPC   C1A58916  13.347  17.976  15.256  0.1403  0.0703  0.1011
34411POPC   D2A58917  13.312  18.413  15.393 -0.1209  0.4151  0.0591
34411POPC   C3A58918  13.036  18.516  15.644 -0.0740  0.2923 -0.0713
34411POPC   C4A58919  12.586  18.606  15.668  0.1486 -0.2001 -0.0087
34411POPC   C1B58920  13.497  17.627  15.642 -0.4273  0.0521 -0.0338
34411POPC   C2B58921  13.320  17.758  16.070 -0.2153 -0.1966 -0.0525
34411POPC   C3B58922  12.992  17.611  16.346  0.1468 -0.2746 -0.1934
34411POPC   C4B58923  12.910  17.698  16.794  0.1748  0.0573  0.2897
34412POPC   NC358924   5.613  17.356  14.787 -0.0199 -0.2007 -0.0012
34412POPC   PO458925   5.921  17.546  14.961  0.1811 -0.0223 -0.1452
34412POPC   GL158926   6.013  17.744  15.217  0.2804  0.0758 -0.2770
34412POPC   GL258927   6.043  18.006  15.294 -0.0219 -0.0547 -0.0370
34412POPC   C1A58928   6.377  17.604  15.473 -0.4178  0.1078  0.1758
34412POPC   D2A58929   6.599  17.803  15.819 -0.3129 -0.1831  0.1101
34412POPC   C3A58930   6.897  17.845  16.164 -0.0765 -0.4719  0.0731
34412POPC   C4A58931   7.103  18.076  16.451 -0.0351  0.0217  0.1291
34412POPC   C1B58932   6.198  18.136  15.698 -0.0600  0.4238  0.0878
34412POPC   C2B58933   6.264  18.020  16.064  0.0305  0.1109 -0.0215
34412POPC   C3B58934   6.514  18.103  16.491 -0.1966 -0.0223  0.2272
34412POPC   C4B58935   6.810  18.166  16.872  0.0946 -0.0947  0.3737
34413POPC   NC358936  14.020  19.310   9.090  0.2159  0.0723 -0.0603
34413POPC   PO458937  14.338  19.078   9.021 -0.1523  0.0675 -0.0124
34413POPC   GL158938  14.285  19.266   8.653  0.2277 -0.0825  0.3233
34413POPC   GL258939  14.184  19.022   8.479 -0.1342  0.0740  0.0457
34413POPC   C1A58940  14.426  19.286   8.161 -0.2968  0.1944 -0.0621
34413POPC   D2A58941  14.467  19.388   7.726  0.0954 -0.0128  0.0930
34413POPC   C3A58942  14.095  19.375   7.468  0.0758 -0.1865 -0.0951
34413POPC   C4A58943  13.737  19.598   7.524 -0.2551 -0.2558 -0.3644
34413POPC   C1B58944  14.084  18.888   8.024  0.0062  0.1467  0.1027
34413POPC   C2B58945  14.183  18.892   7.511  0.0763 -0.0053  0.1631
34413POPC   C3B58946  14.059  18.901   7.096 -0.3625  0.4019  0.1247
34413POPC   C4B58947  14.238  19.058   6.670 -0.0252  0.1881 -0.0749
34414POPC   NC358948   5.310  19.730  10.948 -0.2767 -0.1437 -0.1664
34414POPC   PO458949   5.114  19.986  10.709  0.0319 -0.0645  0.1588
34414POPC   GL158950   5.159  20.071  10.331  0.3338  0.0251  0.2171
34414POPC   GL258951   5.076  19.903  10.117  0.0375  0.4529 -0.1677
34414POPC   C1A58952   5.414  20.294  10.048 -0.0326  0.3543  0.1355
34414POPC   D2A58953   5.454  20.312   9.662  0.1119 -0.2499 -0.1512
34414POPC   C3A58954   5.749  20.573   9.421 -0.2110 -0.1980  0.1028
34414POPC   C4A58955   6.164  20.558   9.296  0.2214  0.0244  0.2904
34414POPC   C1B58956   5.131  19.968   9.672  0.0949 -0.2121 -0.1350
34414POPC   C2B58957   5.348  20.063   9.261  0.0550  0.0110  0.1866
34414POPC   C3B58958   5.785  20.158   9.102  0.0009 -0.0263  0.0180
34414POPC   C4B58959   6.189  20.115   8.933  0.1295 -0.2649 -0.1415
34415POPC   NC358960   6.045  28.717   9.567 -0.1421  0.0675 -0.1873
34415POPC   PO458961   6.165  28.864   9.231  0.3430 -0.4803  0.3066
34415POPC   GL158962   6.286  28.897   8.890 -0.0427  0.2968 -0.0332
34415POPC   GL258963   6.211  28.652   8.746  0.1209  0.1237 -0.2750
34415POPC   C1A58964   6.635  28.759   8.586 -0.0347 -0.3461  0.1201
34415POPC   D2A58965   6.631  28.792   8.142  0.0812  0.0468  0.0252
34415POPC   C3A58966   6.798  28.512   7.846 -0.0626  0.2477 -0.3426
34415POPC   C4A58967   7.032  28.324   7.459 -0.2782  0.1057  0.2227
34415POPC   C1B58968   6.335  28.316   8.460  0.3555  0.0225 -0.0407
34415POPC   C2B58969   6.620  27.937   8.567 -0.0876  0.0923 -0.0927
34415POPC   C3B58970   6.730  27.567   8.362 -0.2044 -0.3616 -0.0853
34415POPC   C4B58971   7.082  27.303   8.310  0.2100 -0.1048 -0.1540
34416POPC   NC358972   9.400  17.072  12.803 -0.0208  0.2213  0.0120
34416POPC   PO458973   9.744  17.097  12.622  0.2225  0.1282 -0.0091
34416POPC   GL158974   9.683  17.489  12.773  0.2916  0.0236  0.1883
34416POPC   GL258975   9.734  17.688  12.603  0.0766  0.2560 -0.1761
34416POPC   C1A58976   9.938  17.747  13.131 -0.1175  0.2686  0.1657
34416POPC   D2A58977  10.088  18.183  13.254  0.0267 -0.0263 -0.1047
34416POPC   C3A58978  10.494  18.150  13.519  0.2806 -0.3112  0.1526
34416POPC   C4A58979  10.696  17.730  13.637  0.2017 -0.0279  0.0424
34416POPC   C1B58980   9.693  18.119  12.392 -0.0347  0.3603  0.0530
34416POPC   C2B58981   9.904  18.507  12.432 -0.1241  0.1307 -0.0981
34416POPC   C3B58982  10.070  18.885  12.705  0.0699  0.0438  0.1907
34416POPC   C4B58983  10.495  18.945  12.827 -0.1629 -0.0981  0.3269
34417POPC   NC358984   3.017  32.460   9.041  0.2322  0.1277  0.1882
34417POPC   PO458985   3.149  32.459   8.683 -0.1356  0.1330 -0.0934
34417POPC   GL158986   3.290  32.679   8.314 -0.0750 -0.1014 -0.0614
34417POPC   GL258987   3.440  32.471   8.235 -0.1708  0.1475  0.3371
34417POPC   C1A58988   3.202  32.904   7.943  0.1791  0.0673  0.0803
34417POPC   D2A58989   3.149  33.043   7.488 -0.1853 -0.2045 -0.3924
34417POPC   C3A58990   3.335  32.935   7.087 -0.0434  0.1424  0.0347
34417POPC   C4A58991   3.540  32.911   6.654 -0.1751 -0.0766 -0.0578
34417POPC   C1B58992   3.619  32.650   7.870 -0.1206 -0.2631  0.1306
34417POPC   C2B58993   3.679  32.748   7.395  0.0464  0.0688 -0.0098
34417POPC   C3B58994   3.913  32.856   7.037 -0.1513  0.0139  0.1222
34417POPC   C4B58995   4.146  32.712   6.691  0.1063  0.0818  0.2573
34418POPC   NC358996  12.144  17.828  11.002 -0.0543 -0.1584 -0.0122
34418POPC   PO458997  11.869  17.598  11.092  0.0033 -0.0017 -0.0490
34418POPC   GL158998  11.751  17.964  10.957 -0.0686 -0.2049  0.1029
34418POPC   GL258999  11.777  18.151  11.173  0.0383  0.1550 -0.0184
34418POPC   C1A59000  11.598  18.240  10.621  0.0877 -0.3593  0.0819
34418POPC   D2A59001  11.643  18.554  10.255  0.2536 -0.0614  0.2588
34418POPC   C3A59002  11.547  18.962  10.129  0.0113  0.1578 -0.0414
34418POPC   C4A59003  11.419  19.419  10.114 -0.0769 -0.3453  0.0276
34418POPC   C1B59004  11.584  18.548  11.334 -0.0968  0.1529  0.2337
34418POPC   C2B59005  11.621  19.014  11.158 -0.1615  0.1727 -0.1791
34418POPC   C3B59006  11.538  19.442  11.351  0.0221  0.0668 -0.2179
34418POPC   C4B59007  11.657  19.852  11.602  0.2278  0.0459 -0.0315
34419POPC   NC359008   1.727  32.039   7.885  0.2752 -0.2046  0.0094
34419POPC   PO459009   1.592  31.699   8.019  0.0948  0.0684 -0.0386
34419POPC   GL159010   1.470  31.781   7.582 -0.2292  0.0646 -0.1180
34419POPC   GL259011   1.659  31.771   7.397  0.0809  0.0875 -0.1618
34419POPC   C1A59012   1.144  31.939   7.266  0.3305 -0.1736 -0.1102
34419POPC   D2A59013   0.778  32.098   7.059 -0.0902  0.0574 -0.1941
34419POPC   C3A59014   1.015  32.367   6.769 -0.2091 -0.0236 -0.3602
34419POPC   C4A59015   1.455  32.490   6.710 -0.2093 -0.1935  0.2595
34419POPC   C1B59016   1.691  31.601   6.953  0.1671  0.0447 -0.1215
34419POPC   C2B59017   1.438  31.442   6.535 -0.0067 -0.0302  0.2271
34419POPC   C3B59018   1.037  31.652   6.296 -0.0372 -0.1122 -0.0721
34419POPC   C4B59019   0.696  31.745   6.035 -0.2908  0.0349  0.0257
34420POPC   NC359020   8.859  32.484   9.567 -0.1598 -0.0591  0.0049
34420POPC   PO459021   9.122  32.484   9.254 -0.1171  0.0743  0.0375
34420POPC   GL159022   9.148  32.883   9.139  0.0965 -0.0472 -0.0426
34420POPC   GL259023   9.457  32.903   8.925 -0.3398  0.0897  0.1239
34420POPC   C1A59024   8.996  33.084   8.740  0.1361 -0.4286 -0.0549
34420POPC   D2A59025   9.118  33.295   8.338  0.3257 -0.1378 -0.4577
34420POPC   C3A59026   9.219  33.754   8.260  0.2594 -0.2509 -0.0998
34420POPC   C4A59027   9.443  34.040   7.977  0.2125  0.1787 -0.1400
34420POPC   C1B59028   9.616  33.190   8.546  0.0060 -0.0863 -0.2529
34420POPC   C2B59029   9.679  33.610   8.435 -0.3239 -0.1403  0.0459
34420POPC   C3B59030   9.926  33.982   8.183 -0.1242  0.0111  0.1123
34420POPC   C4B59031   9.869  33.978   7.681  0.1458 -0.2343 -0.0023
34421POPC   NC359032   1.012  20.026   8.882  0.1051 -0.2839 -0.4144
34421POPC   PO459033   0.866  20.280   9.215 -0.2670  0.0447 -0.0428
34421POPC   GL159034   0.867  20.463   8.819 -0.1124  0.2562 -0.2919
34421POPC   GL259035   1.135  20.535   8.724  0.1445  0.2127 -0.3014
34421POPC   C1A59036   0.829  20.368   8.382 -0.3207 -0.0498 -0.3458
34421POPC   D2A59037   0.930  20.647   7.993  0.0438 -0.0013  0.2228
34421POPC   C3A59038   1.169  20.592   7.606 -0.0746  0.0095  0.2898
34421POPC   C4A59039   1.277  20.290   7.236  0.0438 -0.2322 -0.1629
34421POPC   C1B59040   1.274  20.787   8.363 -0.1558  0.2013  0.1016
34421POPC   C2B59041   1.332  21.085   7.989  0.3343  0.0594 -0.1741
34421POPC   C3B59042   1.015  21.231   7.687 -0.1185  0.1038 -0.0367
34421POPC   C4B59043   0.638  21.422   7.406 -0.2480 -0.1593 -0.0741
34422POPC   NC359044   3.882  19.311  15.013  0.1715  0.2579  0.0650
34422POPC   PO459045   4.286  19.405  14.936 -0.1240  0.1920 -0.0304
34422POPC   GL159046   4.565  19.304  15.172  0.0508  0.0111 -0.0737
34422POPC   GL259047   4.525  19.471  15.387 -0.3409  0.0083 -0.1669
34422POPC   C1A59048   4.805  19.027  15.475  0.0153  0.0746  0.2300
34422POPC   D2A59049   5.146  18.688  15.580 -0.1131 -0.0264 -0.1765
34422POPC   C3A59050   5.359  18.689  15.982  0.4808 -0.1692  0.0958
34422POPC   C4A59051   5.598  18.641  16.352 -0.3951 -0.0259  0.1300
34422POPC   C1B59052   4.570  19.295  15.815  0.1276  0.0471  0.0020
34422POPC   C2B59053   4.636  19.239  16.281  0.1943  0.3931 -0.0714
34422POPC   C3B59054   4.760  19.269  16.653 -0.0435 -0.0566  0.2685
34422POPC   C4B59055   4.990  19.524  17.007 -0.0129 -0.1674 -0.1980
34423POPC   NC359056   0.693  18.074  16.260  0.0935  0.1078 -0.1519
34423POPC   PO459057   0.892  18.185  15.950  0.1187 -0.0856  0.1383
34423POPC   GL159058   0.816  18.502  16.186 -0.1866  0.1552  0.2989
34423POPC   GL259059   0.576  18.614  16.216  0.1005  0.0733  0.1407
34423POPC   C1A59060   0.825  18.446  16.646  0.0451  0.2329 -0.0846
34423POPC   D2A59061   0.805  18.324  17.082  0.3299  0.1231 -0.2376
34423POPC   C3A59062   1.070  18.579  17.325  0.1089 -0.0556  0.5247
34423POPC   C4A59063   1.150  18.743  17.756 -0.0487 -0.2982  0.3627
34423POPC   C1B59064   0.597  18.869  16.590 -0.2292 -0.0426  0.0200
34423POPC   C2B59065   0.601  18.814  17.007 -0.0459 -0.1273 -0.2162
34423POPC   C3B59066   0.593  18.706  17.470 -0.0035  0.1120 -0.2889
34423POPC   C4B59067   0.529  18.881  17.868  0.3288 -0.1705  0.0005
34424POPC   NC359068  15.417  19.379   9.125  0.0344 -0.1274  0.1883
34424POPC   PO459069  15.717  19.671   9.091  0.4140  0.2103 -0.2753
34424POPC   GL159070  15.453  19.700   8.786  0.0377  0.1272  0.2072
34424POPC   GL259071  15.227  19.842   8.795  0.0370 -0.4466  0.0083
34424POPC   C1A59072  15.461  19.514   8.350 -0.1052 -0.1192 -0.1294
34424POPC   D2A59073  15.588  19.306   7.935 -0.0670 -0.0157 -0.2310
34424POPC   C3A59074  15.528  19.510   7.548 -0.0220 -0.1594 -0.0235
34424POPC   C4A59075  15.473  19.680   7.104  0.3164 -0.0382 -0.0266
34424POPC   C1B59076  15.111  19.824   8.352  0.2928 -0.1452  0.1151
34424POPC   C2B59077  15.249  19.705   7.929 -0.2287  0.2566  0.0689
34424POPC   C3B59078  15.311  19.945   7.550  0.1512  0.1076  0.0794
34424POPC   C4B59079  15.236  20.169   7.179  0.0658 -0.3075  0.1890
34425POPC   NC359080   6.934  29.411   8.655  0.0271 -0.0483 -0.0307
34425POPC   PO459081   7.252  29.516   8.860 -0.2322 -0.0000 -0.1419
34425POPC   GL159082   7.261  29.784   8.520 -0.0216  0.0327 -0.1205
34425POPC   GL259083   7.456  29.958   8.692 -0.0246  0.2025  0.0065
34425POPC   C1A59084   7.406  30.107   8.181  0.0497 -0.0733 -0.0506
34425POPC   D2A59085   7.478  30.240   7.742 -0.1109  0.0007 -0.1619
34425POPC   C3A59086   7.407  30.097   7.319 -0.2623  0.2732  0.0240
34425POPC   C4A59087   7.351  29.940   6.903 -0.2876 -0.0700  0.2760
34425POPC   C1B59088   7.745  29.769   8.367  0.1974  0.3997  0.0899
34425POPC   C2B59089   7.678  29.485   7.993 -0.1247  0.1901 -0.3211
34425POPC   C3B59090   7.542  29.214   7.661 -0.0588 -0.2540 -0.5654
34425POPC   C4B59091   7.294  29.036   7.332 -0.2178 -0.1953  0.0754
34426POPC   NC359092  10.653  31.288   8.852 -0.1771  0.2434  0.3859
34426POPC   PO459093  10.846  31.379   8.526 -0.0550 -0.0536  0.1784
34426POPC   GL159094  11.015  31.154   8.211 -0.2289 -0.0279 -0.0676
34426POPC   GL259095  10.798  31.213   7.982 -0.1753 -0.2598  0.2121
34426POPC   C1A59096  11.191  31.107   7.772 -0.1063  0.0328 -0.0264
34426POPC   D2A59097  11.120  30.911   7.350 -0.2107  0.0339 -0.0453
34426POPC   C3A59098  10.829  31.171   7.108 -0.1298 -0.0955  0.2570
34426POPC   C4A59099  10.637  31.170   6.691  0.0793  0.1828 -0.3247
34426POPC   C1B59100  10.713  31.007   7.608  0.0985  0.0307  0.0622
34426POPC   C2B59101  10.383  31.052   7.280 -0.1632  0.2016  0.0824
34426POPC   C3B59102  10.088  31.148   6.914  0.0607 -0.1677  0.0406
34426POPC   C4B59103   9.665  31.263   6.898 -0.3394  0.1548  0.0055
34427POPC   NC359104   3.650  23.084  10.129  0.0933 -0.1160 -0.1153
34427POPC   PO459105   3.880  23.394  10.210 -0.3140 -0.2147  0.0613
34427POPC   GL159106   4.102  23.445   9.927  0.0716 -0.2359  0.2050
34427POPC   GL259107   4.372  23.341  10.029 -0.0775 -0.3095 -0.1274
34427POPC   C1A59108   4.320  23.800   9.717  0.1544  0.0369 -0.0716
34427POPC   D2A59109   4.533  23.788   9.297  0.0656 -0.1994  0.1295
34427POPC   C3A59110   4.481  23.487   9.006 -0.0639 -0.2133 -0.1610
34427POPC   C4A59111   4.621  23.048   9.089  0.0456  0.0684  0.1264
34427POPC   C1B59112   4.640  23.443   9.668 -0.0673  0.5111  0.2391
34427POPC   C2B59113   4.963  23.525   9.337  0.2231 -0.0525  0.1969
34427POPC   C3B59114   4.980  23.342   8.895 -0.2879  0.0620  0.1167
34427POPC   C4B59115   4.747  23.282   8.467  0.1736 -0.1447  0.1947
34428POPC   NC359116  14.303  26.444   9.669 -0.2865  0.1069 -0.0613
34428POPC   PO459117  14.621  26.339   9.843  0.0128  0.0961  0.2085
34428POPC   GL159118  14.617  26.146   9.486 -0.3182  0.4913  0.1987
34428POPC   GL259119  14.418  26.121   9.297  0.2589 -0.3294 -0.2869
34428POPC   C1A59120  14.804  25.839   9.188 -0.1856 -0.1196 -0.0323
34428POPC   D2A59121  14.686  25.564   8.896 -0.2729 -0.0684 -0.0053
34428POPC   C3A59122  14.242  25.351   8.828 -0.1624 -0.2644  0.0183
34428POPC   C4A59123  13.991  25.381   8.459 -0.1318 -0.0924 -0.0781
34428POPC   C1B59124  14.454  26.094   8.829 -0.1946  0.1449 -0.2016
34428POPC   C2B59125  14.432  25.780   8.458 -0.1399  0.1826  0.1549
34428POPC   C3B59126  14.383  25.494   8.092 -0.0676 -0.3904  0.0665
34428POPC   C4B59127  14.344  25.397   7.599 -0.0807  0.0365  0.1225
34429POPC   NC359128   0.810  27.775   8.381 -0.0166 -0.1130 -0.0414
34429POPC   PO459129   0.811  28.172   8.516  0.0728 -0.1195 -0.0256
34429POPC   GL159130   0.890  28.159   8.094 -0.2746  0.2625 -0.0760
34429POPC   GL259131   0.787  28.389   8.018 -0.1982  0.0755 -0.1005
34429POPC   C1A59132   0.838  27.965   7.719  0.1478 -0.0201 -0.0752
34429POPC   D2A59133   0.732  27.755   7.324  0.0427 -0.1675 -0.0161
34429POPC   C3A59134   0.949  27.756   6.885 -0.2503 -0.0397 -0.0034
34429POPC   C4A59135   1.364  27.915   6.747 -0.2923  0.4450  0.1672
34429POPC   C1B59136   0.501  28.453   7.677 -0.2689  0.0293 -0.1508
34429POPC   C2B59137   0.472  28.286   7.243 -0.2263 -0.0773  0.1107
34429POPC   C3B59138   0.475  28.228   6.831 -0.0480 -0.1905  0.2128
34429POPC   C4B59139   0.521  28.248   6.381 -0.0646 -0.3796  0.1808
34430POPC   NC359140   8.806  17.130   9.897  0.0964  0.1013 -0.0775
34430POPC   PO459141   9.208  17.109   9.842 -0.3649 -0.1725  0.2431
34430POPC   GL159142   9.198  17.387   9.582 -0.0160 -0.1757 -0.1913
34430POPC   GL259143   9.054  17.576   9.780 -0.0124 -0.4394 -0.0619
34430POPC   C1A59144   9.516  17.607   9.352  0.2012 -0.2073  0.2241
34430POPC   D2A59145   9.497  17.786   8.926 -0.4830  0.3743  0.1444
34430POPC   C3A59146   9.070  17.958   8.784 -0.1829 -0.1525 -0.0728
34430POPC   C4A59147   8.661  18.110   8.943  0.0478  0.1618 -0.0647
34430POPC   C1B59148   8.761  17.955   9.877 -0.4148 -0.2738  0.1457
34430POPC   C2B59149   8.561  18.364   9.972  0.1087  0.1591 -0.1918
34430POPC   C3B59150   8.639  18.742   9.687 -0.0814 -0.1225 -0.1366
34430POPC   C4B59151   8.748  19.156   9.832  0.0803  0.1630  0.2043
34431POPC   NC359152  15.066  17.497   8.575 -0.2838  0.1386  0.0321
34431POPC   PO459153  15.034  17.098   8.534 -0.2450 -0.0965  0.0953
34431POPC   GL159154  14.888  17.127   8.171  0.0960 -0.1415  0.2356
34431POPC   GL259155  14.840  17.443   8.114 -0.1862  0.0922 -0.0737
34431POPC   C1A59156  14.943  17.214   7.676  0.1716  0.0120 -0.0405
34431POPC   D2A59157  14.659  17.246   7.392  0.0361 -0.0261 -0.0656
34431POPC   C3A59158  14.598  17.281   6.895 -0.2204 -0.0826  0.4207
34431POPC   C4A59159  14.609  16.986   6.483  0.1446  0.0130 -0.0257
34431POPC   C1B59160  14.665  17.672   7.753 -0.2279  0.0760 -0.3101
34431POPC   C2B59161  14.562  17.685   7.265 -0.0816  0.5088  0.0459
34431POPC   C3B59162  14.346  18.075   7.086  0.2353 -0.0094 -0.0182
34431POPC   C4B59163  14.238  18.461   6.927  0.3876 -0.2546 -0.1757
34432POPC   NC359164   4.753  19.856  15.112 -0.0556  0.2580 -0.1251
34432POPC   PO459165   4.386  19.869  14.942  0.1058 -0.0894  0.0883
34432POPC   GL159166   4.342  19.943  15.338 -0.1926 -0.0684 -0.0123
34432POPC   GL259167   4.542  20.169  15.400 -0.1287 -0.2526  0.0300
34432POPC   C1A59168   4.551  19.807  15.712 -0.0826 -0.4043 -0.1363
34432POPC   D2A59169   4.769  19.715  16.062  0.0700 -0.0636 -0.2781
34432POPC   C3A59170   4.712  19.822  16.521 -0.2550  0.1538  0.1001
34432POPC   C4A59171   4.513  19.829  16.948 -0.1602 -0.0286  0.1672
34432POPC   C1B59172   4.445  20.368  15.866  0.1100 -0.0363  0.1958
34432POPC   C2B59173   4.576  20.649  16.231 -0.1737  0.0741 -0.0713
34432POPC   C3B59174   4.842  20.756  16.664 -0.1450 -0.0828  0.1662
34432POPC   C4B59175   4.891  20.542  17.105  0.0437  0.0235 -0.0394
34433POPC   NC359176   0.429  22.947   9.179  0.3795 -0.0734  0.0455
34433POPC   PO459177   0.515  23.305   9.327 -0.3480  0.3076 -0.1631
34433POPC   GL159178   0.309  23.345   9.020  0.1669 -0.2701  0.1164
34433POPC   GL259179   0.309  23.687   8.955  0.1317  0.0953 -0.0184
34433POPC   C1A59180   0.287  23.034   8.630 -0.2711  0.1279 -0.1925
34433POPC   D2A59181   0.150  22.794   8.271  0.0118  0.0562  0.4545
34433POPC   C3A59182  -0.053  22.598   7.920 -0.0389  0.0807  0.1026
34433POPC   C4A59183  -0.248  22.515   7.538 -0.2338  0.1145  0.3623
34433POPC   C1B59184   0.306  23.613   8.492  0.0458 -0.2347 -0.2091
34433POPC   C2B59185   0.277  23.699   8.095  0.1465  0.1421  0.1070
34433POPC   C3B59186   0.233  23.767   7.655 -0.2726 -0.0958  0.0880
34433POPC   C4B59187   0.234  24.008   7.263 -0.1666 -0.1315 -0.1794
34434POPC   NC359188  12.210  28.541   9.427  0.0017 -0.0091  0.0789
34434POPC   PO459189  12.354  28.580   9.047  0.2453 -0.0881 -0.1728
34434POPC   GL159190  12.257  28.460   8.682  0.0473 -0.2278 -0.6116
34434POPC   GL259191  11.986  28.396   8.634 -0.2181  0.1192  0.3756
34434POPC   C1A59192  12.317  28.064   8.433 -0.0110  0.0604 -0.4301
34434POPC   D2A59193  12.446  27.786   8.032  0.0843  0.1144 -0.1017
34434POPC   C3A59194  12.128  27.958   7.678 -0.0701 -0.0005  0.2148
34434POPC   C4A59195  11.750  27.822   7.447  0.1404 -0.0824 -0.0036
34434POPC   C1B59196  11.997  28.674   8.242  0.0786  0.2557  0.2238
34434POPC   C2B59197  11.961  28.642   7.781 -0.0044  0.1543  0.0378
34434POPC   C3B59198  12.178  28.426   7.505  0.1846  0.0831  0.2895
34434POPC   C4B59199  12.095  28.203   7.100 -0.0201  0.0664 -0.2743
34435POPC   NC359200  14.142  31.526   8.718 -0.3866  0.1228  0.0803
34435POPC   PO459201  13.778  31.374   8.771 -0.2945  0.0322 -0.3586
34435POPC   GL159202  13.735  31.481   8.514 -0.0291  0.0246  0.2214
34435POPC   GL259203  13.780  31.743   8.372  0.0473 -0.2680 -0.0860
34435POPC   C1A59204  13.791  31.324   8.069 -0.1276  0.3734  0.0451
34435POPC   D2A59205  13.559  31.124   7.670 -0.0769  0.4434 -0.1792
34435POPC   C3A59206  13.578  31.357   7.274 -0.1932 -0.0624 -0.1099
34435POPC   C4A59207  13.526  31.566   6.883  0.1405 -0.1283  0.1959
34435POPC   C1B59208  13.949  31.779   7.958  0.1908  0.0143 -0.1959
34435POPC   C2B59209  13.911  31.936   7.483  0.2041 -0.1106 -0.2445
34435POPC   C3B59210  14.124  32.189   7.129  0.0790 -0.0742  0.0967
34435POPC   C4B59211  14.270  32.397   6.723  0.2959  0.1591  0.2683
34436POPC   NC359212   8.892  17.985  11.102 -0.2122 -0.0870  0.0331
34436POPC   PO459213   8.826  17.808  10.763  0.0284 -0.1807 -0.1581
34436POPC   GL159214   9.088  18.108  10.553 -0.2800 -0.2670 -0.0637
34436POPC   GL259215   8.964  18.265  10.280 -0.0447 -0.2594 -0.0793
34436POPC   C1A59216   9.433  18.348  10.299  0.3463 -0.0621  0.1215
34436POPC   D2A59217   9.602  18.645   9.981 -0.2034 -0.0700  0.1825
34436POPC   C3A59218   9.884  18.999   9.907  0.3140 -0.1309  0.2034
34436POPC   C4A59219  10.041  19.471   9.852 -0.0201 -0.1028 -0.0233
34436POPC   C1B59220   9.062  18.594   9.944 -0.0170  0.1776  0.0863
34436POPC   C2B59221   9.359  18.780   9.601  0.0484 -0.0398  0.1590
34436POPC   C3B59222   9.618  19.005   9.272  0.2007 -0.0748 -0.1329
34436POPC   C4B59223   9.996  19.047   9.053 -0.1386  0.2401 -0.0856
34437POPC   NC359224   9.225  30.419   8.786  0.1976  0.2260 -0.0154
34437POPC   PO459225   9.558  30.236   8.972 -0.1796 -0.3003 -0.1088
34437POPC   GL159226   9.521  30.222   8.522 -0.0156  0.5766 -0.1633
34437POPC   GL259227   9.785  30.026   8.409  0.0371 -0.1807  0.1910
34437POPC   C1A59228   9.519  30.395   8.116  0.1964  0.0380  0.2171
34437POPC   D2A59229   9.396  30.263   7.731  0.1011 -0.1057  0.3552
34437POPC   C3A59230   9.275  30.297   7.349  0.3515 -0.0629  0.3477
34437POPC   C4A59231   9.294  30.413   6.900  0.1227  0.1461  0.3079
34437POPC   C1B59232   9.712  29.912   7.958  0.2417 -0.0599  0.2671
34437POPC   C2B59233   9.823  29.811   7.559 -0.0085  0.1331 -0.0207
34437POPC   C3B59234   9.731  29.592   7.217 -0.0148 -0.0506  0.5394
34437POPC   C4B59235   9.689  29.353   6.816  0.0181  0.0654 -0.0676
34438POPC   NC359236  15.400  18.182   8.612 -0.1259 -0.1700 -0.1349
34438POPC   PO459237  15.149  17.944   8.524  0.1425 -0.0716  0.2651
34438POPC   GL159238  14.991  17.895   8.127  0.4016 -0.3341  0.2271
34438POPC   GL259239  15.176  18.107   7.892 -0.0044  0.3037 -0.0912
34438POPC   C1A59240  15.174  17.656   7.752  0.2443 -0.1060  0.1841
34438POPC   D2A59241  15.134  17.622   7.306 -0.5547  0.0184 -0.1887
34438POPC   C3A59242  14.888  17.672   6.898 -0.2151 -0.0404 -0.2592
34438POPC   C4A59243  14.897  17.679   6.461  0.3877 -0.6720 -0.0115
34438POPC   C1B59244  15.216  18.151   7.454 -0.1353 -0.0331  0.1838
34438POPC   C2B59245  15.333  18.033   7.062 -0.2789  0.0659  0.4821
34438POPC   C3B59246  15.230  18.039   6.618 -0.1122  0.1796 -0.1331
34438POPC   C4B59247  14.905  18.236   6.358  0.1163 -0.1631  0.1207
34439POPC   NC359248   3.025  30.345   8.015  0.0076  0.1583 -0.1724
34439POPC   PO459249   2.869  30.039   8.193  0.0647 -0.1255  0.0539
34439POPC   GL159250   2.969  29.865   7.864  0.1649  0.1870 -0.0258
34439POPC   GL259251   3.214  29.637   7.896 -0.1983 -0.0278 -0.1612
34439POPC   C1A59252   2.815  29.687   7.457 -0.2968  0.2904  0.1749
34439POPC   D2A59253   2.671  29.654   7.063  0.2341 -0.1153  0.2027
34439POPC   C3A59254   2.695  29.704   6.582  0.3568 -0.0890 -0.1788
34439POPC   C4A59255   2.703  29.463   6.201 -0.0286 -0.0038 -0.0258
34439POPC   C1B59256   3.364  29.704   7.420  0.2837  0.1149 -0.0879
34439POPC   C2B59257   3.540  29.410   7.071  0.0495 -0.1413 -0.1278
34439POPC   C3B59258   3.767  29.335   6.649  0.2616  0.0961 -0.0277
34439POPC   C4B59259   3.661  29.339   6.224 -0.1623 -0.3519  0.1057
34440POPC   NC359260  14.005  17.058   8.606  0.0520 -0.1117 -0.1221
34440POPC   PO459261  14.194  17.293   8.789  0.1141 -0.0503 -0.1446
34440POPC   GL159262  14.069  17.478   8.443 -0.0620  0.0838 -0.0186
34440POPC   GL259263  14.143  17.389   8.139  0.0487 -0.0480 -0.1302
34440POPC   C1A59264  13.774  17.688   8.226  0.0978  0.1021  0.2705
34440POPC   D2A59265  13.393  17.916   8.185  0.2065 -0.4667 -0.3268
34440POPC   C3A59266  13.222  17.939   7.750 -0.3000 -0.2581  0.0263
34440POPC   C4A59267  13.047  17.748   7.329 -0.1108  0.1314  0.2521
34440POPC   C1B59268  14.000  17.571   7.766  0.1398  0.1235 -0.3636
34440POPC   C2B59269  14.007  17.665   7.303 -0.1202  0.0322 -0.1946
34440POPC   C3B59270  14.083  17.597   6.802 -0.2138  0.0347  0.1828
34440POPC   C4B59271  14.018  17.861   6.423 -0.1201 -0.1830  0.0921
34441POPC   NC359272   5.444  20.874  12.763  0.1999 -0.0362 -0.2876
34441POPC   PO459273   5.706  21.122  12.635 -0.0627 -0.1126 -0.1228
34441POPC   GL159274   6.098  21.079  12.575 -0.0102 -0.1920  0.0109
34441POPC   GL259275   6.193  21.389  12.541 -0.0207 -0.2589 -0.0694
34441POPC   C1A59276   6.449  20.890  12.344  0.1812  0.0537 -0.4075
34441POPC   D2A59277   6.629  20.863  11.913 -0.0622 -0.0823  0.0283
34441POPC   C3A59278   7.072  20.962  12.022  0.2298 -0.0857  0.1149
34441POPC   C4A59279   7.463  20.921  12.320 -0.1665  0.1554  0.0625
34441POPC   C1B59280   6.670  21.339  12.496  0.1631  0.2344 -0.2825
34441POPC   C2B59281   7.137  21.329  12.361 -0.2257 -0.1944 -0.5214
34441POPC   C3B59282   7.554  21.446  12.345 -0.2498  0.0355  0.1838
34441POPC   C4B59283   7.944  21.477  12.098  0.1689  0.0812 -0.2419
34442POPC   NC359284   1.534  26.796   8.144 -0.1440 -0.1929  0.1434
34442POPC   PO459285   1.769  26.668   8.438 -0.1528  0.1926 -0.1633
34442POPC   GL159286   2.045  26.599   8.148 -0.2380  0.2698  0.1195
34442POPC   GL259287   2.088  26.829   8.127  0.0609 -0.3848 -0.4880
34442POPC   C1A59288   1.881  26.524   7.735  0.1267  0.0611 -0.1509
34442POPC   D2A59289   1.675  26.320   7.407 -0.0826  0.0072 -0.3396
34442POPC   C3A59290   1.513  26.415   7.038 -0.1730  0.3233  0.1111
34442POPC   C4A59291   1.603  26.382   6.600  0.3017 -0.2126  0.2224
34442POPC   C1B59292   2.143  26.894   7.718 -0.0941  0.1169  0.1491
34442POPC   C2B59293   2.352  26.670   7.361 -0.0135  0.0045 -0.0768
34442POPC   C3B59294   2.623  26.374   7.079 -0.3211  0.0165  0.0030
34442POPC   C4B59295   2.974  26.382   6.799  0.0807  0.0929 -0.0367
34443POPC   NC359296   5.413  28.905   8.842  0.3773  0.0374  0.1228
34443POPC   PO459297   5.433  29.305   8.800 -0.1378  0.0372  0.2123
34443POPC   GL159298   5.388  29.154   8.380  0.2300 -0.3443 -0.1282
34443POPC   GL259299   5.546  29.359   8.264 -0.1855 -0.0146  0.2489
34443POPC   C1A59300   5.287  29.030   7.942 -0.1289 -0.1218  0.3373
34443POPC   D2A59301   5.113  28.919   7.469 -0.0116 -0.1713 -0.0656
34443POPC   C3A59302   4.658  28.733   7.312  0.0378  0.3033 -0.3158
34443POPC   C4A59303   4.299  28.622   7.031  0.0093 -0.0566 -0.1530
34443POPC   C1B59304   5.654  29.453   7.830 -0.0877 -0.0346 -0.0704
34443POPC   C2B59305   5.673  29.715   7.442 -0.0864  0.1408  0.0877
34443POPC   C3B59306   5.381  29.518   7.125 -0.0674  0.1675 -0.1416
34443POPC   C4B59307   5.347  29.453   6.676  0.1945 -0.0336 -0.2415
34444POPC   NC359308  14.126  28.796   8.893  0.3186 -0.0996  0.2648
34444POPC   PO459309  14.013  28.420   8.811 -0.0590 -0.0528  0.0334
34444POPC   GL159310  13.874  28.556   8.405  0.2489  0.3296 -0.0014
34444POPC   GL259311  13.562  28.632   8.249 -0.0280 -0.0512 -0.2938
34444POPC   C1A59312  13.982  28.513   7.933 -0.1697  0.0703  0.0131
34444POPC   D2A59313  13.947  28.315   7.527 -0.0676  0.3358  0.1108
34444POPC   C3A59314  14.211  28.286   7.168 -0.1641 -0.0865 -0.0944
34444POPC   C4A59315  14.388  27.945   6.940 -0.3491  0.0424  0.1599
34444POPC   C1B59316  13.436  28.508   7.869 -0.1655 -0.0885  0.4329
34444POPC   C2B59317  13.445  28.469   7.426 -0.0854 -0.1206  0.1344
34444POPC   C3B59318  13.609  28.144   7.178  0.0085  0.0983 -0.1687
34444POPC   C4B59319  13.905  27.838   6.999 -0.2064  0.3745  0.2932
34445POPC   NC359320   6.778  18.448  14.217 -0.2915  0.2618 -0.0945
34445POPC   PO459321   6.562  18.089  14.126  0.1375 -0.0076 -0.0386
34445POPC   GL159322   6.511  18.104  14.492  0.0152 -0.2421 -0.2228
34445POPC   GL259323   6.411  18.400  14.583  0.2160 -0.0601  0.1028
34445POPC   C1A59324   6.835  18.211  14.781  0.1109 -0.1288 -0.0581
34445POPC   D2A59325   7.191  18.524  14.838 -0.0975 -0.0582  0.0228
34445POPC   C3A59326   7.407  18.746  15.171  0.0079 -0.3429  0.1065
34445POPC   C4A59327   7.311  19.030  15.518 -0.0015  0.2524  0.0305
34445POPC   C1B59328   6.761  18.699  14.630  0.0751 -0.3556 -0.3182
34445POPC   C2B59329   7.007  19.005  14.872  0.0789  0.0352 -0.0337
34445POPC   C3B59330   7.408  19.238  15.014  0.4502  0.1360 -0.1063
34445POPC   C4B59331   7.769  19.050  15.248  0.0105 -0.0183 -0.1036
34446POPC   NC359332   2.766  28.764   8.313  0.2032  0.0688 -0.2432
34446POPC   PO459333   2.637  28.935   7.997 -0.2864 -0.1762  0.1148
34446POPC   GL159334   2.478  28.937   7.625  0.2146  0.0166 -0.0055
34446POPC   GL259335   2.631  29.097   7.446 -0.0637  0.1785  0.3191
34446POPC   C1A59336   2.408  28.708   7.253 -0.1533  0.4287  0.1451
34446POPC   D2A59337   2.175  28.390   7.079  0.3422  0.0445 -0.3111
34446POPC   C3A59338   2.219  27.977   6.962 -0.3923  0.4981 -0.3653
34446POPC   C4A59339   2.253  27.618   6.635  0.0117  0.0579 -0.1212
34446POPC   C1B59340   2.502  29.140   7.006 -0.0244  0.3526 -0.0393
34446POPC   C2B59341   2.449  29.103   6.530 -0.1258  0.0050  0.1634
34446POPC   C3B59342   2.451  29.049   6.043  0.0242 -0.1062 -0.2378
34446POPC   C4B59343   2.874  29.168   5.854 -0.3143  0.0209 -0.0547
34447POPC   NC359344  10.896  29.786   9.248  0.0669  0.2283  0.1386
34447POPC   PO459345  10.756  29.983   8.959 -0.3009 -0.0025 -0.1917
34447POPC   GL159346  10.762  29.802   8.615 -0.0982  0.1935 -0.0459
34447POPC   GL259347  10.675  29.882   8.315  0.1586  0.0639 -0.0663
34447POPC   C1A59348  10.865  29.473   8.271 -0.2139  0.1074  0.1157
34447POPC   D2A59349  10.789  29.019   8.234  0.1083  0.1378  0.0971
34447POPC   C3A59350  10.940  28.665   7.904 -0.2133 -0.1153  0.2777
34447POPC   C4A59351  10.962  28.348   7.514 -0.0260 -0.3184  0.0124
34447POPC   C1B59352  10.698  29.836   7.864  0.1062  0.0165 -0.2579
34447POPC   C2B59353  10.774  29.887   7.411 -0.0649  0.0896 -0.1975
34447POPC   C3B59354  10.726  29.901   6.973 -0.2266 -0.4086  0.0889
34447POPC   C4B59355  10.901  30.242   6.648  0.0135  0.0139  0.0327
34448POPC   NC359356  14.903  24.111  10.062 -0.1606  0.1110  0.2023
34448POPC   PO459357  15.043  23.937  10.367 -0.3107 -0.0572 -0.0788
34448POPC   GL159358  14.752  23.635  10.274 -0.4596  0.3238  0.0724
34448POPC   GL259359  14.536  23.775  10.333 -0.1670 -0.2562  0.2149
34448POPC   C1A59360  14.733  23.311   9.964 -0.0748  0.0897 -0.4046
34448POPC   D2A59361  14.536  22.903   9.795  0.2524 -0.0860 -0.1564
34448POPC   C3A59362  14.584  22.582  10.114  0.2604  0.1103 -0.0440
34448POPC   C4A59363  14.460  22.308  10.459 -0.0589 -0.1630  0.1583
34448POPC   C1B59364  14.226  23.638   9.990  0.1489 -0.2068  0.0456
34448POPC   C2B59365  14.040  23.293   9.799  0.0080 -0.2379  0.0595
34448POPC   C3B59366  13.874  23.318   9.425 -0.0767 -0.3519 -0.1115
34448POPC   C4B59367  13.556  23.400   9.017  0.1702 -0.2834 -0.1618
34449POPC   NC359368   3.369  23.946   8.842 -0.2187  0.2553  0.0901
34449POPC   PO459369   3.082  24.188   9.012 -0.1862 -0.1149 -0.0249
34449POPC   GL159370   3.102  24.520   8.743  0.1373  0.0376 -0.0495
34449POPC   GL259371   3.283  24.320   8.538  0.0016 -0.1329 -0.1039
34449POPC   C1A59372   2.870  24.482   8.341  0.3589 -0.1086  0.2166
34449POPC   D2A59373   2.843  24.584   7.891  0.4180  0.2625 -0.0624
34449POPC   C3A59374   2.758  24.468   7.434 -0.0367  0.1650 -0.3182
34449POPC   C4A59375   2.654  24.724   7.035  0.2366 -0.0058 -0.1264
34449POPC   C1B59376   3.506  24.236   8.110  0.1343 -0.1465  0.0847
34449POPC   C2B59377   3.920  24.298   7.901  0.2147  0.0941 -0.1898
34449POPC   C3B59378   4.341  24.282   7.755  0.0775 -0.1086 -0.3483
34449POPC   C4B59379   4.484  24.245   7.283 -0.1607  0.1107 -0.0335
34450POPC   NC359380   4.195  31.176   9.212 -0.0307 -0.1280  0.4204
34450POPC   PO459381   4.252  31.252   8.825 -0.2125 -0.0763  0.0598
34450POPC   GL159382   4.389  31.274   8.438 -0.1503 -0.3099  0.0570
34450POPC   GL259383   4.571  31.433   8.309 -0.1097  0.0318  0.1178
34450POPC   C1A59384   4.206  31.300   8.026 -0.0336  0.2565  0.0336
34450POPC   D2A59385   4.085  31.358   7.575 -0.0836  0.4741 -0.3192
34450POPC   C3A59386   4.223  31.516   7.217  0.1656  0.2925  0.1162
34450POPC   C4A59387   4.306  31.515   6.778  0.5808  0.1803  0.0078
34450POPC   C1B59388   4.742  31.320   7.883 -0.1001  0.0560 -0.0733
34450POPC   C2B59389   4.760  31.347   7.420 -0.1888  0.1701  0.0150
34450POPC   C3B59390   4.724  31.346   6.960  0.4815  0.2080 -0.0007
34450POPC   C4B59391   4.768  31.643   6.624 -0.4362  0.1616 -0.0865
34451POPC   NC359392   6.390  24.213  12.594 -0.0419 -0.0150  0.0002
34451POPC   PO459393   6.171  23.920  12.439  0.1008 -0.0510 -0.1511
34451POPC   GL159394   6.450  23.656  12.687 -0.2787  0.0291  0.0561
34451POPC   GL259395   6.709  23.830  12.500  0.1980  0.2295 -0.1935
34451POPC   C1A59396   6.515  23.238  12.747  0.3016 -0.1631  0.1411
34451POPC   D2A59397   6.784  22.876  12.678 -0.2625  0.0982  0.3682
34451POPC   C3A59398   6.991  22.688  12.270 -0.2592  0.1597 -0.1030
34451POPC   C4A59399   7.357  22.580  12.009 -0.0195  0.0249  0.1065
34451POPC   C1B59400   7.012  23.644  12.216 -0.3520  0.2337  0.2299
34451POPC   C2B59401   7.347  23.674  11.879 -0.1065 -0.0390 -0.0469
34451POPC   C3B59402   7.768  23.504  12.054 -0.1438 -0.2760 -0.2917
34451POPC   C4B59403   8.087  23.251  12.230 -0.1809  0.1705  0.0571
34452POPC   NC359404  13.912  19.227  11.800 -0.1148  0.0006 -0.0610
34452POPC   PO459405  14.008  19.254  12.208 -0.0233  0.1812 -0.2877
34452POPC   GL159406  13.706  19.370  12.304  0.0821  0.0222 -0.1114
34452POPC   GL259407  13.505  19.434  12.063  0.1560 -0.0522  0.2209
34452POPC   C1A59408  13.555  19.733  12.569 -0.3865  0.2468 -0.0641
34452POPC   D2A59409  13.811  19.970  12.877 -0.3329  0.1967 -0.1581
34452POPC   C3A59410  13.725  20.449  12.761  0.2370  0.4089 -0.1040
34452POPC   C4A59411  13.436  20.718  12.481 -0.0983 -0.1317 -0.1716
34452POPC   C1B59412  13.167  19.679  12.170  0.3495 -0.1229  0.2352
34452POPC   C2B59413  12.917  20.066  12.326 -0.2222 -0.0679 -0.0796
34452POPC   C3B59414  12.850  20.105  12.774 -0.0776 -0.2275 -0.1003
34452POPC   C4B59415  12.665  20.439  12.998  0.1028 -0.1997 -0.0606
34453POPC   NC359416  14.434  19.525  13.255  0.0683 -0.0130  0.1054
34453POPC   PO459417  14.564  19.490  12.906 -0.0922  0.1092 -0.2772
34453POPC   GL159418  14.201  19.722  12.883  0.1663  0.4512 -0.3022
34453POPC   GL259419  14.329  20.010  12.970 -0.0007  0.1275 -0.2567
34453POPC   C1A59420  13.841  19.584  13.155  0.1945  0.3299  0.2259
34453POPC   D2A59421  13.588  19.419  13.439 -0.1131 -0.1011  0.4596
34453POPC   C3A59422  13.144  19.632  13.492  0.1369  0.2555 -0.2028
34453POPC   C4A59423  12.762  19.776  13.671 -0.0746  0.0272 -0.2531
34453POPC   C1B59424  14.232  20.277  12.608  0.0383 -0.0011 -0.0406
34453POPC   C2B59425  14.033  20.647  12.383  0.0600  0.2681  0.0445
34453POPC   C3B59426  13.829  20.997  12.554  0.4052 -0.2687 -0.0140
34453POPC   C4B59427  13.792  21.452  12.513  0.0768  0.0696  0.1731
34454POPC   NC359428   2.866  20.477  15.697  0.0989  0.3967 -0.0054
34454POPC   PO459429   3.242  20.411  15.575  0.1670 -0.0344  0.1664
34454POPC   GL159430   3.270  20.476  15.967 -0.2282  0.1721  0.2938
34454POPC   GL259431   3.535  20.391  15.965 -0.1238 -0.0240 -0.1069
34454POPC   C1A59432   3.339  20.394  16.429  0.0168 -0.0053  0.1856
34454POPC   D2A59433   3.444  20.287  16.899 -0.1200 -0.1637  0.4062
34454POPC   C3A59434   3.159  20.108  17.211 -0.0673 -0.2425  0.0029
34454POPC   C4A59435   2.939  19.984  17.574  0.2316 -0.2981 -0.0247
34454POPC   C1B59436   3.552  20.841  16.012 -0.1223 -0.1820 -0.1367
34454POPC   C2B59437   3.784  21.046  16.399  0.3035  0.2415 -0.0970
34454POPC   C3B59438   4.224  20.980  16.432 -0.0747 -0.0498  0.2240
34454POPC   C4B59439   4.370  20.647  16.694 -0.1119  0.1984  0.2321
34455POPC   NC359440  13.509  16.423   8.353  0.0673 -0.1831  0.1661
34455POPC   PO459441  13.748  16.567   8.609  0.0366  0.0002  0.1327
34455POPC   GL159442  13.771  16.774   8.230  0.0824  0.3668 -0.2630
34455POPC   GL259443  14.030  16.631   8.213 -0.1137  0.0505 -0.0806
34455POPC   C1A59444  13.588  16.976   7.840  0.0451 -0.0880 -0.1008
34455POPC   D2A59445  13.442  16.772   7.418  0.2239  0.1662  0.2220
34455POPC   C3A59446  13.198  16.782   7.049 -0.2623  0.1215 -0.1365
34455POPC   C4A59447  13.142  16.619   6.628  0.1711  0.1798 -0.0892
34455POPC   C1B59448  14.099  16.547   7.731  0.3248 -0.0084 -0.1004
34455POPC   C2B59449  13.877  16.552   7.301 -0.0209 -0.1948 -0.0221
34455POPC   C3B59450  14.010  16.598   6.899 -0.3011  0.0493  0.2289
34455POPC   C4B59451  14.029  16.255   6.560 -0.1982  0.0794 -0.2017
34456POPC   NC359452   4.158  22.118  10.096 -0.2447  0.0580  0.0210
34456POPC   PO459453   4.106  22.478  10.067 -0.0402  0.0590 -0.1666
34456POPC   GL159454   4.440  22.715   9.885  0.2030 -0.5712  0.0699
34456POPC   GL259455   4.619  22.923   9.899 -0.0217  0.2126  0.5732
34456POPC   C1A59456   4.635  22.538   9.508 -0.1543 -0.4787 -0.0391
34456POPC   D2A59457   4.765  22.588   9.032 -0.0124 -0.0277 -0.4158
34456POPC   C3A59458   5.018  22.818   8.680  0.4602 -0.0199  0.2431
34456POPC   C4A59459   5.081  22.901   8.198  0.1684  0.1900 -0.3828
34456POPC   C1B59460   4.901  23.024   9.534 -0.1682 -0.1910 -0.0702
34456POPC   C2B59461   5.254  22.918   9.205  0.1381  0.0128 -0.1709
34456POPC   C3B59462   5.450  22.960   8.759 -0.2290  0.2767 -0.2811
34456POPC   C4B59463   5.833  23.006   8.535 -0.0020  0.2091 -0.0357
34457POPC   NC359464  13.331  18.697  11.684  0.2067 -0.2174 -0.0796
34457POPC   PO459465  13.310  18.557  12.063 -0.2418 -0.0577 -0.0174
34457POPC   GL159466  13.218  18.907  12.223  0.3984  0.0072  0.1527
34457POPC   GL259467  12.946  18.930  12.325  0.0472 -0.0354  0.1650
34457POPC   C1A59468  13.254  19.315  12.509 -0.2612  0.4553  0.2249
34457POPC   D2A59469  13.429  19.440  12.941  0.0725 -0.0257 -0.0225
34457POPC   C3A59470  13.393  19.913  13.079  0.0237 -0.2576 -0.0671
34457POPC   C4A59471  13.289  20.339  12.914  0.4733 -0.2755 -0.2049
34457POPC   C1B59472  12.489  19.090  12.268  0.1072 -0.0357 -0.2195
34457POPC   C2B59473  12.156  19.390  12.148  0.1852 -0.1331 -0.0477
34457POPC   C3B59474  11.990  19.810  12.081 -0.0363  0.0273  0.2804
34457POPC   C4B59475  11.767  20.196  12.248  0.0599 -0.3484 -0.1336
34458POPC   NC359476  15.726  23.204   9.910 -0.0721 -0.0290  0.3018
34458POPC   PO459477  16.079  23.050   9.768  0.0859 -0.1662  0.0831
34458POPC   GL159478  15.997  22.954   9.475  0.0690  0.2789  0.2904
34458POPC   GL259479  16.191  22.838   9.330 -0.1180 -0.0556 -0.0601
34458POPC   C1A59480  15.823  23.089   9.058 -0.2212  0.0919  0.0814
34458POPC   D2A59481  15.557  23.071   8.673 -0.0832 -0.1323 -0.1110
34458POPC   C3A59482  15.609  23.312   8.270 -0.1966  0.0144 -0.2046
34458POPC   C4A59483  15.622  23.452   7.839  0.1624 -0.1423  0.0765
34458POPC   C1B59484  16.236  22.840   8.863  0.3102 -0.0026 -0.0173
34458POPC   C2B59485  16.011  22.959   8.441  0.1377  0.0074  0.0392
34458POPC   C3B59486  15.904  23.047   7.965  0.2305 -0.1817  0.0977
34458POPC   C4B59487  16.149  22.996   7.561 -0.0798  0.5187  0.1378
34459POPC   NC359488   3.377  31.904   8.390  0.0304 -0.1363 -0.2531
34459POPC   PO459489   3.296  31.540   8.428  0.2289 -0.0167  0.2844
34459POPC   GL159490   3.144  31.564   8.018 -0.0947 -0.0043  0.0692
34459POPC   GL259491   2.922  31.667   7.857 -0.0770 -0.0870 -0.1673
34459POPC   C1A59492   3.344  31.684   7.564  0.2583  0.2401 -0.1912
34459POPC   D2A59493   3.493  32.037   7.367  0.1241  0.1119  0.2196
34459POPC   C3A59494   3.403  32.415   7.142  0.2984 -0.0527 -0.0368
34459POPC   C4A59495   3.162  32.583   6.731  0.0620  0.0945  0.0670
34459POPC   C1B59496   2.837  31.537   7.452 -0.0176 -0.0126  0.0109
34459POPC   C2B59497   3.091  31.757   7.124 -0.0239  0.1525 -0.0299
34459POPC   C3B59498   3.314  32.035   6.753 -0.1834 -0.0247  0.0486
34459POPC   C4B59499   3.608  31.985   6.407  0.5536  0.1274 -0.1123
34460POPC   NC359500  16.132  19.414   8.719  0.0855  0.1882 -0.0515
34460POPC   PO459501  16.140  19.801   8.890  0.0706  0.0539 -0.3119
34460POPC   GL159502  15.888  19.785   8.622  0.3125  0.1828 -0.1326
34460POPC   GL259503  16.003  20.073   8.490 -0.2318  0.1062  0.2294
34460POPC   C1A59504  15.532  20.050   8.415 -0.0893 -0.1971 -0.0116
34460POPC   D2A59505  15.164  20.298   8.416  0.1000 -0.4209  0.0553
34460POPC   C3A59506  15.036  20.322   7.987  0.1479 -0.1633 -0.1752
34460POPC   C4A59507  14.973  20.402   7.542 -0.0554 -0.2620 -0.4067
34460POPC   C1B59508  15.877  20.373   8.199  0.0491 -0.1008 -0.2651
34460POPC   C2B59509  16.008  20.479   7.789  0.0561  0.3740  0.0722
34460POPC   C3B59510  16.295  20.434   7.449  0.1987 -0.1562 -0.0815
34460POPC   C4B59511  16.728  20.580   7.357  0.0292  0.1061  0.0586
34461POPC   NC359512  11.788  17.514  10.169  0.0104  0.1254  0.2525
34461POPC   PO459513  11.684  17.766   9.873 -0.2028 -0.2714  0.2533
34461POPC   GL159514  11.703  18.132   9.792  0.5820 -0.0291  0.0272
34461POPC   GL259515  11.927  18.279   9.936  0.1393  0.0311  0.1545
34461POPC   C1A59516  11.510  18.568   9.722 -0.0408 -0.4131 -0.1018
34461POPC   D2A59517  11.365  19.021   9.633  0.2522 -0.0789  0.1563
34461POPC   C3A59518  11.311  19.253   9.259 -0.0533 -0.0711  0.3194
34461POPC   C4A59519  11.344  19.681   9.150  0.1147  0.1717  0.1449
34461POPC   C1B59520  11.948  18.734   9.878 -0.1530  0.0508 -0.1476
34461POPC   C2B59521  11.842  19.137   9.724  0.1318 -0.0671 -0.0362
34461POPC   C3B59522  11.824  19.564   9.457 -0.1269 -0.0929 -0.0148
34461POPC   C4B59523  11.620  19.959   9.456  0.0106  0.2428  0.0843
34462POPC   NC359524   3.480  22.378   9.453  0.0408  0.0524 -0.1086
34462POPC   PO459525   3.744  22.269   9.748  0.0577 -0.1009 -0.0964
34462POPC   GL159526   3.928  22.260   9.480  0.1984 -0.1781  0.0138
34462POPC   GL259527   4.168  22.433   9.517  0.0178  0.1069 -0.1950
34462POPC   C1A59528   3.849  22.280   9.033 -0.0414 -0.0290  0.2107
34462POPC   D2A59529   3.955  22.178   8.621 -0.1528 -0.1489  0.0886
34462POPC   C3A59530   4.412  22.124   8.543 -0.2727 -0.0333  0.2449
34462POPC   C4A59531   4.759  22.048   8.192 -0.2056  0.0033 -0.0819
34462POPC   C1B59532   4.260  22.560   9.113 -0.2201 -0.0101  0.0500
34462POPC   C2B59533   4.368  22.746   8.696  0.0094  0.1112  0.1536
34462POPC   C3B59534   4.554  22.839   8.273  0.1310 -0.4834 -0.0109
34462POPC   C4B59535   4.729  23.123   7.896  0.0357 -0.0526 -0.3716
34463POPC   NC359536   8.794  29.731  16.240 -0.0236  0.1472  0.0318
34463POPC   PO459537   8.962  29.340  16.207 -0.1126  0.1287  0.1448
34463POPC   GL159538   8.969  29.152  16.574  0.3274 -0.0311 -0.2104
34463POPC   GL259539   9.074  28.875  16.556  0.1327  0.0208  0.0426
34463POPC   C1A59540   9.443  29.147  16.753  0.2029  0.1890  0.3455
34463POPC   D2A59541   9.611  29.198  17.162 -0.2034 -0.3172  0.1178
34463POPC   C3A59542   9.690  29.412  17.545  0.0747 -0.2478  0.1033
34463POPC   C4A59543   9.946  29.449  17.947 -0.0265 -0.1106  0.1453
34463POPC   C1B59544   8.965  28.958  17.037 -0.1643  0.1697 -0.0384
34463POPC   C2B59545   8.918  28.642  17.386  0.0119  0.1580 -0.1637
34463POPC   C3B59546   8.772  28.463  17.822 -0.1829 -0.0528  0.2010
34463POPC   C4B59547   8.492  28.061  17.901 -0.0522 -0.3680  0.2167
34464POPC   NC359548  15.551  17.125   8.642 -0.1047  0.1666  0.1220
34464POPC   PO459549  15.546  17.482   8.612 -0.1733  0.0372 -0.1555
34464POPC   GL159550  15.669  17.702   8.323 -0.1062 -0.1843  0.0525
34464POPC   GL259551  15.501  17.960   8.207 -0.0418 -0.0565  0.0649
34464POPC   C1A59552  15.971  17.668   8.002  0.3179 -0.0461  0.0256
34464POPC   D2A59553  16.129  17.435   7.697 -0.0594 -0.1966  0.2036
34464POPC   C3A59554  16.168  17.614   7.245 -0.2793  0.0333  0.0372
34464POPC   C4A59555  16.316  17.893   6.864  0.1173 -0.2628  0.0788
34464POPC   C1B59556  15.675  18.134   7.767 -0.1290 -0.0776 -0.1545
34464POPC   C2B59557  15.849  17.922   7.452 -0.1132 -0.0577  0.1521
34464POPC   C3B59558  15.828  18.005   6.984 -0.1400  0.0793 -0.1654
34464POPC   C4B59559  15.684  18.400   6.827 -0.0633 -0.1457  0.2800
34465POPC   NC359560   0.666  20.725   9.384 -0.1660 -0.1810 -0.0408
34465POPC   PO459561   0.466  20.619   9.059 -0.0325 -0.2641  0.2863
34465POPC   GL159562   0.358  20.838   8.743  0.0108 -0.1406 -0.0708
34465POPC   GL259563   0.278  20.620   8.581 -0.2350 -0.1020  0.2119
34465POPC   C1A59564  -0.038  21.001   8.539  0.0495 -0.0661 -0.1637
34465POPC   D2A59565  -0.154  21.208   8.114 -0.0471 -0.2895 -0.0148
34465POPC   C3A59566   0.124  21.336   7.720  0.1066 -0.1549 -0.0674
34465POPC   C4A59567   0.253  21.218   7.253 -0.0665 -0.2843  0.0182
34465POPC   C1B59568   0.470  20.564   8.091  0.2275  0.2230 -0.1767
34465POPC   C2B59569   0.637  20.367   7.719 -0.1797  0.1745  0.0851
34465POPC   C3B59570   0.713  20.295   7.279  0.0398  0.0903 -0.0460
34465POPC   C4B59571   0.685  19.934   6.988 -0.4140 -0.1420  0.2018
34466POPC   NC359572   8.433  16.986  12.935 -0.0454 -0.0124 -0.1910
34466POPC   PO459573   8.683  16.974  13.276 -0.2714 -0.0691 -0.1289
34466POPC   GL159574   8.735  17.247  13.519  0.3985 -0.0582  0.0070
34466POPC   GL259575   8.976  17.381  13.510  0.1875  0.1145  0.3158
34466POPC   C1A59576   8.527  17.593  13.796 -0.1275 -0.0923  0.0054
34466POPC   D2A59577   8.711  18.026  13.814  0.1528 -0.1929 -0.2227
34466POPC   C3A59578   8.762  18.441  13.880  0.0196  0.0222  0.2630
34466POPC   C4A59579   9.103  18.750  13.999  0.0527 -0.0330 -0.0122
34466POPC   C1B59580   9.003  17.808  13.500  0.0157  0.1333 -0.2802
34466POPC   C2B59581   9.234  18.218  13.623 -0.0887  0.0403 -0.1596
34466POPC   C3B59582   9.371  18.646  13.597 -0.2672  0.1278 -0.2453
34466POPC   C4B59583   9.526  18.922  13.873  0.0525 -0.0378 -0.1445
34467POPC   NC359584  14.636  27.122   9.336 -0.2155  0.0900 -0.0948
34467POPC   PO459585  14.391  27.324   9.115  0.2465 -0.1663 -0.1402
34467POPC   GL159586  14.454  27.152   8.860  0.0677 -0.0517 -0.0643
34467POPC   GL259587  14.535  26.872   8.894 -0.1389  0.1411 -0.1226
34467POPC   C1A59588  14.251  27.334   8.451  0.2846  0.3033  0.4275
34467POPC   D2A59589  14.006  27.397   8.097  0.1395  0.4240  0.2054
34467POPC   C3A59590  14.229  27.385   7.714  0.1668 -0.0587  0.0586
34467POPC   C4A59591  14.226  27.428   7.270  0.0384 -0.4143  0.0907
34467POPC   C1B59592  14.199  26.582   8.691 -0.1904  0.1199 -0.1046
34467POPC   C2B59593  13.788  26.376   8.665 -0.0928 -0.2822  0.0454
34467POPC   C3B59594  13.545  26.098   8.409  0.1323 -0.1963 -0.0107
34467POPC   C4B59595  13.169  25.915   8.581  0.2685  0.2593 -0.0122
34468POPC   NC359596  14.226  20.003  10.619 -0.3789  0.0078  0.0593
34468POPC   PO459597  14.160  19.881  10.263  0.0982  0.3220  0.0161
34468POPC   GL159598  13.794  20.017  10.149 -0.1500  0.3611 -0.0089
34468POPC   GL259599  13.632  19.828  10.307 -0.3422 -0.1732 -0.1156
34468POPC   C1A59600  13.553  20.228   9.835 -0.1688  0.3223 -0.0178
34468POPC   D2A59601  13.307  20.425   9.458 -0.2133 -0.0392 -0.1985
34468POPC   C3A59602  12.970  20.353   9.160  0.0148 -0.1047 -0.1077
34468POPC   C4A59603  12.710  20.225   8.804  0.2474 -0.1449  0.1392
34468POPC   C1B59604  13.565  20.296  10.442  0.0139  0.1517  0.2805
34468POPC   C2B59605  13.264  20.635  10.458  0.1160  0.0486  0.0512
34468POPC   C3B59606  13.040  21.006  10.543  0.1041  0.0847  0.1749
34468POPC   C4B59607  13.044  21.463  10.629 -0.1769 -0.3379 -0.1411
34469POPC   NC359608   1.419  29.460  16.736 -0.2498  0.2805 -0.3679
34469POPC   PO459609   1.076  29.456  16.532  0.0541  0.0545 -0.0296
34469POPC   GL159610   1.020  29.372  16.951  0.3844  0.1977 -0.4817
34469POPC   GL259611   1.074  29.153  17.147  0.0029 -0.0776  0.0839
34469POPC   C1A59612   1.293  29.581  17.307 -0.0885 -0.2511 -0.2443
34469POPC   D2A59613   1.495  29.387  17.709  0.2017  0.0871 -0.1199
34469POPC   C3A59614   1.584  29.617  18.096 -0.0228 -0.0715 -0.2214
34469POPC   C4A59615   1.285  29.846  18.445 -0.4165 -0.1756  0.0122
34469POPC   C1B59616   1.363  28.939  17.432 -0.0315 -0.0578 -0.0072
34469POPC   C2B59617   1.196  28.797  17.840 -0.1555 -0.3688 -0.2078
34469POPC   C3B59618   1.166  28.874  18.285 -0.0973 -0.2678  0.1017
34469POPC   C4B59619   1.340  28.967  18.670  0.1060  0.0250 -0.2772
34470POPC   NC359620   9.010  17.231  12.268  0.1452  0.2093  0.4016
34470POPC   PO459621   9.267  17.475  12.457 -0.1960 -0.1525 -0.2508
34470POPC   GL159622   9.216  17.851  12.328 -0.1351  0.0450 -0.2236
34470POPC   GL259623   9.268  18.018  12.604  0.0760 -0.1975  0.1469
34470POPC   C1A59624   9.293  18.297  12.200 -0.0580 -0.0520  0.1407
34470POPC   D2A59625   9.560  18.619  11.937 -0.0211  0.3909 -0.1183
34470POPC   C3A59626   9.447  19.093  11.901  0.0916 -0.0509  0.6583
34470POPC   C4A59627   9.331  19.549  11.737 -0.0408 -0.0292  0.0177
34470POPC   C1B59628   9.511  18.409  12.776  0.2697 -0.0004 -0.1974
34470POPC   C2B59629   9.408  18.844  13.021  0.1002 -0.0798 -0.0742
34470POPC   C3B59630   9.669  19.191  12.919 -0.0318  0.0687  0.2873
34470POPC   C4B59631  10.118  19.422  12.825 -0.0711  0.1115  0.3412
34471POPC   NC359632   0.595  28.725   8.440 -0.0937 -0.1101 -0.4361
34471POPC   PO459633   0.809  29.012   8.288  0.2419 -0.1305 -0.0415
34471POPC   GL159634   0.485  28.893   7.909 -0.0796 -0.0361 -0.0638
34471POPC   GL259635   0.158  28.994   7.861  0.1150 -0.0238  0.0248
34471POPC   C1A59636   0.474  29.017   7.476 -0.1363  0.0713 -0.2214
34471POPC   D2A59637   0.283  28.831   7.096 -0.0071 -0.0754  0.3305
34471POPC   C3A59638   0.549  28.706   6.712 -0.0508 -0.0253 -0.4343
34471POPC   C4A59639   1.058  28.779   6.729 -0.1005  0.2085  0.1246
34471POPC   C1B59640  -0.107  28.583   7.791  0.1336  0.1029  0.2205
34471POPC   C2B59641  -0.096  28.307   7.467 -0.0280 -0.3053  0.0566
34471POPC   C3B59642   0.041  28.360   7.008 -0.1064 -0.0642 -0.0669
34471POPC   C4B59643   0.035  28.521   6.551 -0.0760 -0.0948 -0.2726
34472POPC   NC359644   5.623  19.068  12.992 -0.1419 -0.0317 -0.3428
34472POPC   PO459645   5.890  19.320  13.142 -0.1490 -0.2309 -0.0207
34472POPC   GL159646   6.245  19.487  13.164 -0.0791 -0.1098  0.2238
34472POPC   GL259647   6.256  19.576  12.911  0.1074  0.0022  0.1382
34472POPC   C1A59648   6.430  19.846  13.431 -0.1968 -0.2241 -0.0528
34472POPC   D2A59649   6.506  20.260  13.724  0.1402  0.0264 -0.0552
34472POPC   C3A59650   6.815  20.587  13.612  0.0978  0.0757 -0.0075
34472POPC   C4A59651   7.219  20.719  13.716 -0.0320  0.2838 -0.0017
34472POPC   C1B59652   6.677  19.774  12.956 -0.4290  0.1280  0.0429
34472POPC   C2B59653   7.022  20.020  12.986 -0.0919 -0.0123 -0.3178
34472POPC   C3B59654   7.269  20.288  13.341 -0.0457  0.0349  0.0750
34472POPC   C4B59655   7.701  20.376  13.415  0.1044 -0.1515 -0.0855
34473POPC   NC359656   0.391  17.904   8.867 -0.0345  0.1363 -0.0957
34473POPC   PO459657   0.293  17.767   8.501  0.0837 -0.0006  0.0912
34473POPC   GL159658   0.297  17.705   8.025 -0.0054 -0.0551  0.1030
34473POPC   GL259659   0.112  17.518   8.027 -0.2299  0.2134  0.1120
34473POPC   C1A59660   0.282  18.137   7.834  0.0684 -0.0725  0.1068
34473POPC   D2A59661   0.146  18.479   7.518  0.1903  0.0924 -0.0108
34473POPC   C3A59662   0.326  18.408   7.081 -0.0240 -0.2688 -0.1176
34473POPC   C4A59663   0.506  18.580   6.715  0.0202  0.0759 -0.3323
34473POPC   C1B59664   0.158  17.511   7.568 -0.1086 -0.4414  0.2359
34473POPC   C2B59665   0.230  17.336   7.087  0.0091 -0.2352  0.1414
34473POPC   C3B59666  -0.006  17.051   6.876  0.1149  0.3851  0.1349
34473POPC   C4B59667  -0.364  16.966   6.579  0.0866 -0.1781  0.2758
34474POPC   NC359668  13.231  18.379  12.996  0.0061 -0.0392  0.0883
34474POPC   PO459669  13.558  18.548  12.864 -0.2653  0.1055 -0.1887
34474POPC   GL159670  13.318  18.783  13.082 -0.3806 -0.2268  0.0098
34474POPC   GL259671  13.202  18.920  12.833  0.3036 -0.3028  0.1475
34474POPC   C1A59672  13.222  19.087  13.373 -0.1027 -0.0080 -0.1827
34474POPC   D2A59673  12.852  19.263  13.682 -0.2581  0.1134 -0.0705
34474POPC   C3A59674  12.476  19.081  13.805  0.3301 -0.1764  0.0850
34474POPC   C4A59675  12.229  18.810  13.604  0.1529 -0.0492  0.0293
34474POPC   C1B59676  12.929  19.264  13.025  0.1330 -0.0393 -0.1590
34474POPC   C2B59677  12.633  19.589  13.003  0.1184 -0.2043 -0.0220
34474POPC   C3B59678  12.404  19.947  12.917 -0.2015 -0.1397 -0.3488
34474POPC   C4B59679  12.123  20.069  12.579 -0.2189  0.1190 -0.0413
34475POPC   NC359680   5.550  27.079   9.770  0.3086  0.0036 -0.2769
34475POPC   PO459681   5.761  26.740   9.839 -0.0696  0.1490  0.0792
34475POPC   GL159682   5.965  26.543   9.520  0.1906  0.2073  0.0424
34475POPC   GL259683   6.254  26.514   9.489 -0.2695  0.2467 -0.2277
34475POPC   C1A59684   5.791  26.304   9.169 -0.2234 -0.1952  0.0412
34475POPC   D2A59685   5.896  25.935   8.852 -0.0458  0.0076 -0.2058
34475POPC   C3A59686   6.139  25.606   9.120  0.0623  0.4062  0.2876
34475POPC   C4A59687   6.466  25.361   9.344 -0.1360 -0.2074  0.0837
34475POPC   C1B59688   6.285  26.416   9.051 -0.1279  0.0589 -0.0155
34475POPC   C2B59689   6.155  26.361   8.702  0.2853  0.0076  0.1446
34475POPC   C3B59690   5.777  26.314   8.454 -0.2123  0.0560  0.2933
34475POPC   C4B59691   5.493  26.267   8.112  0.1297 -0.2327 -0.2361
34476POPC   NC359692   0.675  21.598   9.084 -0.0892  0.0715 -0.1452
34476POPC   PO459693   0.935  21.802   8.924 -0.0438 -0.1465 -0.0336
34476POPC   GL159694   0.928  21.694   8.570 -0.3050 -0.2472 -0.0271
34476POPC   GL259695   0.942  21.395   8.612 -0.0246  0.0989  0.3705
34476POPC   C1A59696   0.994  21.936   8.224  0.0498 -0.1051  0.0443
34476POPC   D2A59697   0.838  22.306   8.012 -0.0265 -0.1069 -0.0225
34476POPC   C3A59698   1.068  22.193   7.644 -0.3167  0.0488  0.0112
34476POPC   C4A59699   1.414  22.078   7.342 -0.0109  0.4601 -0.3878
34476POPC   C1B59700   1.248  21.512   8.296 -0.2716 -0.0503  0.0151
34476POPC   C2B59701   1.246  21.674   7.891 -0.1459  0.3684  0.3502
34476POPC   C3B59702   1.131  21.618   7.404 -0.0707 -0.1290  0.1800
34476POPC   C4B59703   1.356  21.564   7.014  0.4259  0.1377  0.2187
34477POPC   NC359704   5.942  20.330  12.062 -0.0474  0.2687  0.0365
34477POPC   PO459705   5.702  20.500  11.823 -0.3971 -0.0099 -0.0646
34477POPC   GL159706   6.012  20.521  11.527  0.0955 -0.2222 -0.1983
34477POPC   GL259707   5.931  20.312  11.371 -0.1787 -0.1886 -0.0428
34477POPC   C1A59708   6.357  20.337  11.648  0.3854 -0.1988  0.2378
34477POPC   D2A59709   6.660  20.070  11.378 -0.1567  0.1910  0.0790
34477POPC   C3A59710   6.953  20.298  11.140 -0.1026 -0.2828 -0.2476
34477POPC   C4A59711   7.032  20.708  11.055 -0.2783  0.0936 -0.3346
34477POPC   C1B59712   6.294  20.538  11.149  0.0234  0.0912  0.2295
34477POPC   C2B59713   6.618  20.522  10.815  0.3039 -0.2041 -0.0616
34477POPC   C3B59714   6.757  20.550  10.378  0.1297  0.0115  0.0725
34477POPC   C4B59715   7.024  20.878  10.194 -0.1312  0.0084 -0.1342
34478POPC   NC359716  12.673  26.640  11.877 -0.3397  0.0141  0.1956
34478POPC   PO459717  12.908  26.558  12.177  0.2252  0.0131  0.2371
34478POPC   GL159718  12.639  26.231  12.158 -0.0201  0.0652 -0.3606
34478POPC   GL259719  12.392  26.380  12.192 -0.0790 -0.2738 -0.0837
34478POPC   C1A59720  12.408  25.938  12.471  0.1023  0.1704  0.0495
34478POPC   D2A59721  12.373  25.569  12.743  0.1619 -0.3728 -0.0606
34478POPC   C3A59722  11.974  25.268  12.731 -0.0458  0.2037  0.1161
34478POPC   C4A59723  11.553  25.124  12.706  0.0854 -0.0231  0.0769
34478POPC   C1B59724  12.236  25.981  11.995 -0.2469  0.0166 -0.2187
34478POPC   C2B59725  12.205  25.749  11.560  0.3319  0.4233 -0.0837
34478POPC   C3B59726  12.116  25.350  11.358 -0.0741  0.1593 -0.0760
34478POPC   C4B59727  11.814  25.148  11.057  0.1145  0.2563  0.2565
34479POPC   NC359728   2.410  20.371   9.636  0.0200 -0.0274  0.1117
34479POPC   PO459729   2.689  20.278   9.890  0.1910  0.1304 -0.0642
34479POPC   GL159730   3.017  20.402   9.741 -0.0894 -0.1371  0.0392
34479POPC   GL259731   2.979  20.622   9.495  0.4503  0.0284 -0.0617
34479POPC   C1A59732   3.321  20.274   9.437 -0.0908 -0.0551  0.1146
34479POPC   D2A59733   3.309  20.266   8.935 -0.3511 -0.2093  0.0942
34479POPC   C3A59734   3.682  20.399   8.772 -0.4419 -0.0335  0.1599
34479POPC   C4A59735   3.806  20.790   8.506 -0.3008  0.2379  0.1056
34479POPC   C1B59736   2.844  20.363   9.109 -0.2322  0.0232 -0.1942
34479POPC   C2B59737   2.883  20.143   8.725 -0.1066 -0.0424  0.1069
34479POPC   C3B59738   2.839  20.113   8.298  0.1559  0.1121  0.1744
34479POPC   C4B59739   2.727  20.216   7.857 -0.1932 -0.2253 -0.0009
34480POPC   NC359740  14.705  19.772   9.836  0.1443 -0.1814  0.0341
34480POPC   PO459741  14.402  20.019   9.816 -0.0410  0.0131 -0.0428
34480POPC   GL159742  14.110  20.241   9.701  0.6112 -0.2053  0.0227
34480POPC   GL259743  14.190  20.257   9.400  0.0121  0.0998  0.1432
34480POPC   C1A59744  13.762  20.427   9.378 -0.0601 -0.1386  0.0392
34480POPC   D2A59745  13.567  20.883   9.404 -0.0122 -0.0185  0.0853
34480POPC   C3A59746  13.435  21.158   9.726 -0.0076  0.0460 -0.0946
34480POPC   C4A59747  13.042  21.405   9.745 -0.0760 -0.0827 -0.2557
34480POPC   C1B59748  14.258  20.154   8.971  0.1470  0.1693 -0.1224
34480POPC   C2B59749  14.129  20.320   8.563  0.0427  0.0160 -0.0031
34480POPC   C3B59750  14.049  20.722   8.332 -0.0883  0.1371  0.0483
34480POPC   C4B59751  13.907  20.755   7.864 -0.0734  0.2215 -0.0226
34481POPC   NC359752   1.815  24.787   8.807  0.0019  0.4608 -0.2166
34481POPC   PO459753   2.028  24.494   8.840 -0.2432 -0.0483  0.0535
34481POPC   GL159754   2.368  24.521   8.707 -0.2087  0.3966  0.4632
34481POPC   GL259755   2.574  24.340   8.854  0.2350  0.0088  0.1721
34481POPC   C1A59756   2.368  24.502   8.253  0.0398 -0.1306 -0.0282
34481POPC   D2A59757   2.300  24.399   7.832  0.1226 -0.0830  0.2094
34481POPC   C3A59758   2.103  24.624   7.518  0.0427 -0.4579  0.2618
34481POPC   C4A59759   1.980  24.886   7.132  0.1491 -0.3703 -0.0444
34481POPC   C1B59760   2.567  24.104   8.464 -0.1214 -0.0463 -0.1197
34481POPC   C2B59761   2.657  24.046   8.014  0.1073 -0.2098 -0.3729
34481POPC   C3B59762   2.447  23.781   7.707 -0.1729  0.1242  0.0970
34481POPC   C4B59763   2.192  23.642   7.347 -0.0375  0.1035 -0.0016
34482POPC   NC359764   8.629  27.760  11.302 -0.2583  0.2062  0.0243
34482POPC   PO459765   8.288  27.521  11.335 -0.4661  0.0355  0.0070
34482POPC   GL159766   8.508  27.303  11.172 -0.0610  0.4849 -0.3134
34482POPC   GL259767   8.612  27.324  10.932 -0.2040  0.0056  0.3154
34482POPC   C1A59768   8.307  26.886  11.023 -0.0610  0.1054 -0.1832
34482POPC   D2A59769   8.606  26.548  10.923 -0.2907 -0.2883  0.0251
34482POPC   C3A59770   8.744  26.430  11.341  0.0843 -0.0456  0.1214
34482POPC   C4A59771   8.696  26.565  11.753 -0.0809  0.0122  0.1316
34482POPC   C1B59772   8.510  27.038  10.537  0.3406  0.1874  0.2346
34482POPC   C2B59773   8.515  26.698  10.201  0.1909  0.1871  0.0195
34482POPC   C3B59774   8.500  26.399   9.810  0.0987 -0.0468 -0.1702
34482POPC   C4B59775   8.367  26.320   9.398  0.0311  0.1837  0.2402
34483POPC   NC359776   5.906  29.180   8.974 -0.0802 -0.3269  0.2974
34483POPC   PO459777   5.802  29.009   8.591 -0.0784 -0.1615  0.1394
34483POPC   GL159778   5.905  28.976   8.289 -0.1863 -0.0184 -0.2396
34483POPC   GL259779   5.754  28.980   8.087 -0.1267 -0.2730  0.1821
34483POPC   C1A59780   6.241  29.087   8.017 -0.1328  0.0697  0.1802
34483POPC   D2A59781   6.424  28.856   7.676  0.0054 -0.1275 -0.2193
34483POPC   C3A59782   6.549  29.194   7.382 -0.1782 -0.2700  0.0693
34483POPC   C4A59783   6.836  29.442   7.155  0.1392 -0.1156 -0.0730
34483POPC   C1B59784   5.661  28.695   7.759  0.0861  0.0948 -0.3555
34483POPC   C2B59785   5.713  28.594   7.341  0.1310  0.0206 -0.3501
34483POPC   C3B59786   6.019  28.542   7.076 -0.5017 -0.0363 -0.0951
34483POPC   C4B59787   6.381  28.452   6.778 -0.0891  0.0723 -0.2752
34484POPC   NC359788   2.200  18.985   8.852  0.3142  0.3380 -0.4451
34484POPC   PO459789   2.421  18.891   9.162 -0.1865 -0.1909 -0.2869
34484POPC   GL159790   2.746  19.006   8.951 -0.0642  0.3791 -0.1410
34484POPC   GL259791   2.604  19.261   8.813 -0.2388 -0.3288  0.1166
34484POPC   C1A59792   3.073  19.058   8.567 -0.0234  0.1092 -0.2371
34484POPC   D2A59793   3.545  19.055   8.475  0.4512  0.3348  0.3345
34484POPC   C3A59794   3.867  19.215   8.247 -0.1892 -0.2992 -0.2166
34484POPC   C4A59795   4.120  19.222   7.891 -0.1002 -0.1014  0.0065
34484POPC   C1B59796   2.603  19.103   8.344  0.3636 -0.1779  0.3926
34484POPC   C2B59797   2.767  19.219   7.920 -0.0263  0.1947 -0.2969
34484POPC   C3B59798   2.969  19.225   7.571 -0.0019  0.0059 -0.3729
34484POPC   C4B59799   3.342  19.478   7.350 -0.0143 -0.0257 -0.2859
34485POPC   NC359800   5.954  32.149   8.889 -0.2546 -0.0742 -0.2705
34485POPC   PO459801   6.300  32.159   9.043  0.1596 -0.1757 -0.3332
34485POPC   GL159802   6.451  32.284   8.738 -0.0291 -0.3765 -0.2671
34485POPC   GL259803   6.558  32.077   8.543 -0.1048  0.0688  0.0680
34485POPC   C1A59804   6.773  32.537   8.499  0.1654 -0.0482  0.0368
34485POPC   D2A59805   6.750  32.811   8.125  0.1397 -0.0808  0.0221
34485POPC   C3A59806   6.656  32.881   7.682  0.2434  0.1588 -0.0108
34485POPC   C4A59807   6.687  32.930   7.232 -0.0228  0.0495 -0.1987
34485POPC   C1B59808   6.602  31.772   8.157 -0.1474  0.0695  0.2272
34485POPC   C2B59809   6.968  31.476   8.069  0.1375  0.1800 -0.2341
34485POPC   C3B59810   7.120  31.111   7.887  0.0215  0.4135  0.1908
34485POPC   C4B59811   7.499  30.868   7.670  0.1020 -0.2624  0.0862
34486POPC   NC359812   1.326  20.148   9.633 -0.2107  0.2336 -0.0117
34486POPC   PO459813   1.315  19.932   9.287  0.0220  0.2101 -0.3534
34486POPC   GL159814   1.511  19.902   8.871  0.1599  0.0657 -0.1455
34486POPC   GL259815   1.386  19.718   8.605  0.3400 -0.0351  0.0266
34486POPC   C1A59816   1.437  20.216   8.493 -0.2209  0.1316 -0.2876
34486POPC   D2A59817   1.273  20.350   8.065 -0.1820  0.0969  0.0809
34486POPC   C3A59818   1.108  20.082   7.703 -0.0219  0.1293 -0.1290
34486POPC   C4A59819   1.021  19.799   7.312  0.0985  0.2443 -0.1495
34486POPC   C1B59820   1.101  19.892   8.337 -0.1016  0.1226  0.1605
34486POPC   C2B59821   0.711  19.906   8.064 -0.0447  0.2692  0.1909
34486POPC   C3B59822   0.638  19.806   7.642 -0.2525 -0.1012  0.1121
34486POPC   C4B59823   0.507  19.558   7.263  0.1411 -0.0013  0.2260
34487POPC   NC359824   9.512   0.198   9.695 -0.1685 -0.1179  0.1853
34487POPC   PO459825   9.921   0.210   9.639  0.1496 -0.2171 -0.0036
34487POPC   GL159826   9.754   0.276   9.322  0.3564  0.0516 -0.1000
34487POPC   GL259827   9.863   0.351   9.153 -0.0833  0.1067  0.0477
34487POPC   C1A59828   9.381   0.509   9.129 -0.2751 -0.2580  0.0399
34487POPC   D2A59829   9.219   0.814   8.755 -0.2705  0.0139 -0.0690
34487POPC   C3A59830   9.504   1.181   8.533  0.0203  0.0438  0.0563
34487POPC   C4A59831   9.807   1.550   8.511  0.0876  0.2220 -0.3136
34487POPC   C1B59832   9.750   0.748   8.920 -0.2323  0.2163  0.0601
34487POPC   C2B59833   9.930   1.067   8.704 -0.1952 -0.0727  0.1180
34487POPC   C3B59834  10.302   1.242   8.551  0.3036 -0.0564  0.1421
34487POPC   C4B59835  10.283   1.722   8.396  0.2515  0.2889 -0.0496
34488POPC   NC359836  12.147  16.717   8.922  0.2806  0.2902  0.2526
34488POPC   PO459837  12.141  16.342   8.851 -0.3350  0.0631  0.1025
34488POPC   GL159838  11.785  16.345   8.780  0.2039 -0.0673 -0.1451
34488POPC   GL259839  11.743  16.580   8.673  0.1127 -0.0498  0.0546
34488POPC   C1A59840  11.353  16.398   8.528  0.1915  0.0117 -0.2501
34488POPC   D2A59841  10.965  16.174   8.328 -0.3088  0.0878 -0.0592
34488POPC   C3A59842  10.849  16.018   7.888  0.0556  0.4379 -0.1719
34488POPC   C4A59843  10.648  16.010   7.476 -0.0331  0.1261 -0.2110
34488POPC   C1B59844  11.694  16.687   8.172 -0.1440  0.0170  0.0173
34488POPC   C2B59845  11.483  16.840   7.837  0.1280  0.3615  0.0205
34488POPC   C3B59846  11.405  16.972   7.395  0.3896  0.0190 -0.1586
34488POPC   C4B59847  11.209  17.007   6.977 -0.0414 -0.0952  0.0253
34489POPC   NC359848   8.964  31.545   9.080 -0.1224 -0.4427 -0.0721
34489POPC   PO459849   9.183  31.243   8.972 -0.2050  0.1100 -0.1341
34489POPC   GL159850   9.368  31.118   8.648 -0.4602 -0.3486  0.2111
34489POPC   GL259851   9.638  31.290   8.544  0.2859  0.0500  0.0695
34489POPC   C1A59852   9.518  30.887   8.224  0.0416 -0.0697  0.1413
34489POPC   D2A59853   9.769  30.918   7.790  0.2721 -0.0024 -0.1739
34489POPC   C3A59854   9.729  31.260   7.535  0.0261 -0.3008 -0.0958
34489POPC   C4A59855   9.565  31.644   7.263 -0.0013  0.3219  0.1419
34489POPC   C1B59856   9.877  31.240   8.128 -0.1504  0.3969  0.0436
34489POPC   C2B59857  10.178  31.190   7.780  0.0348 -0.2714  0.0296
34489POPC   C3B59858  10.485  31.464   7.586 -0.0584  0.0198 -0.0645
34489POPC   C4B59859  10.826  31.621   7.299 -0.0744  0.0458  0.0980
34490POPC   NC359860   7.185  30.734   8.819  0.2180 -0.0019  0.1082
34490POPC   PO459861   7.079  30.344   8.858  0.0734 -0.2959 -0.1369
34490POPC   GL159862   6.978  30.253   8.463 -0.1623  0.1883  0.1053
34490POPC   GL259863   6.871  29.977   8.435 -0.0280 -0.0340  0.2959
34490POPC   C1A59864   6.942  30.203   7.986 -0.2325  0.0544  0.0401
34490POPC   D2A59865   6.980  30.018   7.524 -0.3069  0.2000  0.3362
34490POPC   C3A59866   6.982  30.314   7.208  0.2941  0.1803  0.1208
34490POPC   C4A59867   7.024  30.292   6.735 -0.0176 -0.1133  0.2264
34490POPC   C1B59868   7.033  29.642   8.169  0.1389 -0.2131 -0.1793
34490POPC   C2B59869   7.302  29.783   7.840  0.1855 -0.3058 -0.1263
34490POPC   C3B59870   7.691  29.714   7.570 -0.2525 -0.0496 -0.3198
34490POPC   C4B59871   7.844  29.775   7.121  0.2155 -0.1842 -0.5500
34491POPC   NC359872   7.003  15.995   9.490  0.0735  0.1017  0.1574
34491POPC   PO459873   6.878  16.338   9.354 -0.0687  0.0213  0.0462
34491POPC   GL159874   6.900  16.603   9.072 -0.1807  0.0390  0.3380
34491POPC   GL259875   6.773  16.562   8.828  0.1113 -0.1146  0.1469
34491POPC   C1A59876   7.215  16.645   8.718  0.0190  0.0268 -0.0622
34491POPC   D2A59877   7.188  16.733   8.249  0.1703  0.2478 -0.0426
34491POPC   C3A59878   7.389  17.057   7.991  0.3283  0.1953 -0.6499
34491POPC   C4A59879   7.848  16.956   7.846 -0.1104 -0.2164  0.0731
34491POPC   C1B59880   6.783  16.748   8.414  0.2734 -0.2371 -0.3720
34491POPC   C2B59881   6.735  17.052   8.025  0.3038  0.1060  0.0027
34491POPC   C3B59882   6.932  17.155   7.672 -0.0905 -0.1600  0.0441
34491POPC   C4B59883   7.298  16.968   7.482 -0.0181 -0.0134  0.2042
34492POPC   NC359884  12.370  18.122   9.633 -0.0454  0.0713 -0.1266
34492POPC   PO459885  12.572  17.890   9.365 -0.3245  0.0649  0.0882
34492POPC   GL159886  12.250  18.004   9.145 -0.0376  0.1345 -0.0376
34492POPC   GL259887  12.347  18.275   9.206  0.2507 -0.2018 -0.2739
34492POPC   C1A59888  12.382  18.187   8.719  0.0605  0.2102 -0.3650
34492POPC   D2A59889  12.471  18.586   8.494 -0.1874 -0.1772  0.0286
34492POPC   C3A59890  12.346  18.833   8.123 -0.0119  0.1722 -0.3621
34492POPC   C4A59891  12.103  18.874   7.732  0.0473 -0.0113  0.3472
34492POPC   C1B59892  11.937  18.421   8.978 -0.2345  0.0819  0.1720
34492POPC   C2B59893  11.818  18.524   8.582 -0.1781  0.0312 -0.0720
34492POPC   C3B59894  11.979  18.470   8.140 -0.0052  0.0250 -0.0830
34492POPC   C4B59895  11.806  18.507   7.738 -0.0544  0.0608 -0.1203
34493POPC   NC359896   5.338  29.813   8.522 -0.1085  0.0522 -0.0345
34493POPC   PO459897   5.055  30.041   8.705 -0.0548 -0.0097 -0.0173
34493POPC   GL159898   4.820  30.088   8.320  0.1852 -0.2951  0.1544
34493POPC   GL259899   4.702  29.862   8.222  0.4889  0.0234 -0.2457
34493POPC   C1A59900   4.963  30.317   7.920 -0.1558  0.1956 -0.1569
34493POPC   D2A59901   4.904  30.255   7.477 -0.1125  0.1417  0.0345
34493POPC   C3A59902   5.115  30.411   7.110 -0.1700 -0.0479 -0.0215
34493POPC   C4A59903   5.083  30.360   6.650  0.0812 -0.1995  0.0939
34493POPC   C1B59904   4.862  29.864   7.748  0.0516 -0.0428  0.1740
34493POPC   C2B59905   5.085  29.798   7.372 -0.2946 -0.0276  0.3500
34493POPC   C3B59906   5.080  29.908   6.951  0.4969  0.0313 -0.1440
34493POPC   C4B59907   5.177  29.907   6.492  0.0948 -0.3697 -0.2545
34494POPC   NC359908   6.088  22.357  13.479  0.3294  0.0815  0.2574
34494POPC   PO459909   5.871  22.035  13.378  0.1176  0.1126  0.1078
34494POPC   GL159910   6.183  21.832  13.606 -0.1145 -0.4227  0.0377
34494POPC   GL259911   6.346  21.700  13.840  0.0379 -0.0530  0.1118
34494POPC   C1A59912   6.501  22.162  13.749  0.1199  0.0943  0.0010
34494POPC   D2A59913   6.934  22.387  13.789  0.0433 -0.1918 -0.0895
34494POPC   C3A59914   7.301  22.108  13.976 -0.0255  0.1606  0.0478
34494POPC   C4A59915   7.686  21.877  13.978  0.3254 -0.1146 -0.2028
34494POPC   C1B59916   6.818  21.726  13.725 -0.1906  0.2233  0.2208
34494POPC   C2B59917   7.086  21.995  13.558 -0.2216  0.1869 -0.1081
34494POPC   C3B59918   7.546  21.982  13.451  0.0827 -0.2503 -0.1755
34494POPC   C4B59919   7.981  22.009  13.571 -0.1428 -0.0495  0.1158
34495POPC   NC359920   6.937  24.640  12.407  0.3358  0.0879  0.4524
34495POPC   PO459921   6.893  25.000  12.256 -0.0953 -0.2553  0.2769
34495POPC   GL159922   7.200  25.167  12.509  0.5061 -0.0936  0.1918
34495POPC   GL259923   7.087  24.987  12.773 -0.2981 -0.3529  0.1522
34495POPC   C1A59924   7.592  24.880  12.551  0.0365 -0.2485 -0.0561
34495POPC   D2A59925   7.908  24.531  12.384  0.1118 -0.2439 -0.2026
34495POPC   C3A59926   8.176  24.157  12.352 -0.1402 -0.1906  0.0009
34495POPC   C4A59927   8.152  23.712  12.458  0.1093  0.1112 -0.0693
34495POPC   C1B59928   7.274  24.583  12.790  0.1934 -0.0564 -0.1463
34495POPC   C2B59929   7.590  24.255  12.628  0.1947  0.0493 -0.1475
34495POPC   C3B59930   7.847  23.879  12.799 -0.3827 -0.0164  0.2152
34495POPC   C4B59931   7.900  23.477  13.003  0.0340  0.1174  0.1145
34496POPC   NC359932   9.844  31.968   9.112  0.1957 -0.3625  0.0993
34496POPC   PO459933   9.396  31.971   9.083  0.1836 -0.0532 -0.0387
34496POPC   GL159934   9.290  31.842   8.735 -0.0029 -0.2284 -0.1185
34496POPC   GL259935   9.118  31.614   8.600  0.4405  0.2342 -0.3719
34496POPC   C1A59936   9.022  32.115   8.430 -0.1373 -0.1639  0.1274
34496POPC   D2A59937   8.918  32.437   8.105  0.0882 -0.0450 -0.1143
34496POPC   C3A59938   9.212  32.680   8.368 -0.2766  0.2676  0.0112
34496POPC   C4A59939   9.633  32.663   8.555 -0.0417 -0.1655  0.1567
34496POPC   C1B59940   8.949  31.698   8.186 -0.0257 -0.0801 -0.1716
34496POPC   C2B59941   8.943  32.042   7.829 -0.2278 -0.1417 -0.0514
34496POPC   C3B59942   8.788  32.295   7.495 -0.4049  0.1514  0.0369
34496POPC   C4B59943   8.664  32.711   7.407  0.0962 -0.3471  0.2061
34497POPC   NC359944   8.930  32.474  15.381  0.1494  0.1743 -0.0443
34497POPC   PO459945   8.561  32.527  15.264  0.1366  0.2037 -0.1596
34497POPC   GL159946   8.494  32.711  15.631 -0.0600  0.1744  0.1415
34497POPC   GL259947   8.649  32.464  15.778  0.1718 -0.1217 -0.4150
34497POPC   C1A59948   8.324  32.817  16.037 -0.0187 -0.1068  0.0192
34497POPC   D2A59949   8.596  32.974  16.388  0.0178 -0.0924  0.2972
34497POPC   C3A59950   8.333  33.030  16.759  0.0659 -0.2023  0.0678
34497POPC   C4A59951   8.058  33.139  17.130 -0.2470 -0.0517 -0.1442
34497POPC   C1B59952   8.534  32.097  16.030  0.0514 -0.2554 -0.0839
34497POPC   C2B59953   8.554  32.031  16.449  0.1250  0.4003 -0.1844
34497POPC   C3B59954   8.635  32.184  16.840 -0.0059 -0.0796  0.1632
34497POPC   C4B59955   8.538  32.366  17.236  0.2131  0.0862  0.0276
34498POPC   NC359956   9.042  29.270   9.403 -0.3128 -0.1008 -0.2915
34498POPC   PO459957   9.053  29.608   9.182  0.3974 -0.1924  0.0393
34498POPC   GL159958   9.196  29.606   8.715 -0.1106 -0.3036  0.4697
34498POPC   GL259959   9.338  29.831   8.762 -0.2054 -0.0778 -0.0455
34498POPC   C1A59960   9.231  29.311   8.343 -0.2323  0.1478  0.0646
34498POPC   D2A59961   9.444  29.068   8.021 -0.1298 -0.0527 -0.2113
34498POPC   C3A59962   9.129  28.795   7.781 -0.3085  0.2981 -0.1194
34498POPC   C4A59963   8.922  28.513   7.508 -0.0440  0.0607  0.1427
34498POPC   C1B59964   9.347  29.841   8.276  0.1535  0.2004  0.2014
34498POPC   C2B59965   9.275  29.692   7.813  0.1689 -0.0133 -0.0406
34498POPC   C3B59966   9.290  29.820   7.377 -0.0106  0.0915 -0.0049
34498POPC   C4B59967   9.291  29.778   6.897 -0.3228 -0.0195  0.3246
34499POPC   NC359968   6.733  17.534   9.494  0.0136 -0.4250  0.1077
34499POPC   PO459969   6.375  17.616   9.554 -0.0107 -0.0412  0.1691
34499POPC   GL159970   6.325  17.848   9.254  0.0019  0.0602 -0.1458
34499POPC   GL259971   6.572  17.963   9.172 -0.1391 -0.0251 -0.2502
34499POPC   C1A59972   5.961  17.906   8.994 -0.3606 -0.1590  0.3308
34499POPC   D2A59973   5.836  17.987   8.514 -0.3047  0.0687 -0.0201
34499POPC   C3A59974   6.312  18.036   8.336 -0.4924 -0.1587 -0.0425
34499POPC   C4A59975   6.468  18.393   8.070  0.1808 -0.1002 -0.0627
34499POPC   C1B59976   6.529  18.131   8.798 -0.0102  0.1172  0.0609
34499POPC   C2B59977   6.459  18.533   8.551 -0.2758  0.1487 -0.2923
34499POPC   C3B59978   6.406  18.839   8.232  0.3714 -0.0535 -0.1495
34499POPC   C4B59979   6.324  19.199   7.988 -0.0848 -0.0307 -0.0787
34500POPC   NC359980   3.186  29.493   8.385  0.2273 -0.0938 -0.0139
34500POPC   PO459981   3.474  29.314   8.600 -0.4653  0.0202 -0.1533
34500POPC   GL159982   3.574  29.215   8.222  0.1053 -0.1886  0.0428
34500POPC   GL259983   3.646  29.497   8.149  0.1672 -0.2074  0.1280
34500POPC   C1A59984   3.621  28.895   7.899 -0.1948 -0.1106  0.0845
34500POPC   D2A59985   3.527  28.627   7.560 -0.0135 -0.0868 -0.1351
34500POPC   C3A59986   3.367  28.860   7.201 -0.2374 -0.0206  0.0384
34500POPC   C4A59987   3.362  28.930   6.764  0.2260  0.2670 -0.2440
34500POPC   C1B59988   3.732  29.381   7.691  0.0775 -0.0652  0.1178
34500POPC   C2B59989   3.811  29.071   7.367 -0.1151  0.1150 -0.1193
34500POPC   C3B59990   3.844  28.864   6.933 -0.1856  0.2414  0.3630
34500POPC   C4B59991   4.035  28.941   6.526 -0.2487  0.1040  0.2824
34501POPC   NC359992  16.270  18.553   8.892  0.2932  0.0432 -0.0151
34501POPC   PO459993  16.166  18.907   8.732  0.3283 -0.1897 -0.3748
34501POPC   GL159994  16.357  19.138   8.440 -0.2388  0.0207 -0.0307
34501POPC   GL259995  16.155  19.150   8.300  0.1981  0.0575  0.0183
34501POPC   C1A59996  16.701  19.163   8.145 -0.1938  0.0314  0.1281
34501POPC   D2A59997  16.922  19.313   7.755  0.2030 -0.2629 -0.2161
34501POPC   C3A59998  16.920  19.050   7.443  0.2135  0.2017  0.1578
34501POPC   C4A59999  17.182  18.717   7.262  0.0499  0.1297 -0.0292
34501POPC   C1B60000  15.979  19.509   8.125  0.0686 -0.3716 -0.1340
34501POPC   C2B60001  15.727  19.902   7.941 -0.3763 -0.4914  0.0868
34501POPC   C3B60002  15.546  20.284   7.867  0.1904 -0.0262  0.1027
34501POPC   C4B60003  15.461  20.502   7.451  0.0381  0.1091 -0.1294
34502POPC   NC360004  11.224  17.272  11.851  0.1952  0.2676 -0.0805
34502POPC   PO460005  11.027  17.294  11.482  0.2179  0.2348 -0.3206
34502POPC   GL160006  11.102  17.657  11.465  0.0320 -0.5088  0.2916
34502POPC   GL260007  11.008  17.734  11.751 -0.0591  0.0763 -0.1212
34502POPC   C1A60008  10.871  18.054  11.409  0.2936  0.2105 -0.0725
34502POPC   D2A60009  10.977  18.504  11.429  0.0398  0.1347  0.1423
34502POPC   C3A60010  11.127  18.924  11.459 -0.0545 -0.1285  0.4285
34502POPC   C4A60011  11.084  19.306  11.260 -0.2764 -0.1446 -0.2881
34502POPC   C1B60012  11.007  18.168  11.895 -0.3003 -0.0176 -0.3796
34502POPC   C2B60013  10.803  18.603  12.044  0.0778  0.0389 -0.2151
34502POPC   C3B60014  10.775  19.064  12.010  0.4830 -0.0041 -0.0067
34502POPC   C4B60015  10.902  19.508  12.040  0.0497  0.0981  0.1752
34503POPC   NC360016   2.459  32.241   8.355  0.0438  0.0487 -0.2650
34503POPC   PO460017   2.460  32.597   8.212 -0.1184  0.2429  0.2135
34503POPC   GL160018   2.371  32.513   7.851 -0.0279 -0.1711  0.2159
34503POPC   GL260019   2.136  32.287   7.887 -0.2434 -0.0975  0.2702
34503POPC   C1A60020   2.597  32.434   7.453  0.1686 -0.0404  0.0196
34503POPC   D2A60021   2.910  32.650   7.185  0.0047 -0.2370  0.1979
34503POPC   C3A60022   2.836  33.097   6.962 -0.0203 -0.1822  0.2207
34503POPC   C4A60023   2.719  33.547   6.804  0.0347  0.1928  0.3785
34503POPC   C1B60024   2.025  32.161   7.470  0.1343  0.3238 -0.4020
34503POPC   C2B60025   1.971  32.221   6.964 -0.1604  0.0096  0.0599
34503POPC   C3B60026   2.211  32.224   6.555  0.3050 -0.0679  0.2431
34503POPC   C4B60027   2.215  31.863   6.321  0.2380  0.3672  0.6124
34504POPC   NC360028   2.103  17.391   8.616  0.2039 -0.0939  0.2940
34504POPC   PO460029   2.230  17.748   8.544 -0.0410  0.1108 -0.5373
34504POPC   GL160030   2.302  17.862   8.212  0.0106 -0.4489  0.1814
34504POPC   GL260031   2.595  18.006   8.271  0.2788 -0.0343  0.4865
34504POPC   C1A60032   2.471  17.756   7.781  0.0749 -0.1084 -0.0658
34504POPC   D2A60033   2.537  17.439   7.470  0.2207  0.0789 -0.0167
34504POPC   C3A60034   2.736  17.540   7.098 -0.0031  0.0643 -0.2418
34504POPC   C4A60035   3.117  17.725   6.964  0.1014  0.2407  0.2094
34504POPC   C1B60036   2.821  18.075   7.913 -0.1393  0.3478  0.1521
34504POPC   C2B60037   2.699  18.028   7.426  0.0768 -0.3241  0.0075
34504POPC   C3B60038   2.579  18.020   7.017 -0.0145 -0.0799 -0.0129
34504POPC   C4B60039   2.352  17.830   6.675  0.2463  0.2812 -0.3207
34505POPC   NC360040   4.213  20.126  10.335 -0.0521  0.1357 -0.2457
34505POPC   PO460041   4.450  20.415  10.385  0.2563 -0.0910  0.0735
34505POPC   GL160042   4.724  20.620  10.144 -0.1622 -0.2998 -0.3005
34505POPC   GL260043   4.888  20.348  10.035  0.1058 -0.0003  0.3019
34505POPC   C1A60044   4.518  20.752   9.778  0.1191 -0.3016  0.0511
34505POPC   D2A60045   4.469  20.435   9.453 -0.2330 -0.0750 -0.0904
34505POPC   C3A60046   4.727  20.545   9.104 -0.1860 -0.0575  0.1919
34505POPC   C4A60047   5.064  20.528   8.775 -0.0524 -0.0268  0.1781
34505POPC   C1B60048   4.960  20.478   9.593 -0.1025  0.1453  0.1014
34505POPC   C2B60049   5.221  20.555   9.229  0.0710  0.6117 -0.0298
34505POPC   C3B60050   5.553  20.545   8.932  0.0771  0.3842  0.1742
34505POPC   C4B60051   6.002  20.645   8.859 -0.0099 -0.0621  0.0976
34506POPC   NC360052  14.823  29.398   7.922  0.0835 -0.2227  0.1274
34506POPC   PO460053  14.663  29.747   8.049 -0.1966 -0.4564 -0.1080
34506POPC   GL160054  14.309  29.867   7.866 -0.3237  0.0282 -0.1322
34506POPC   GL260055  14.325  30.067   7.705 -0.4209  0.2704  0.0515
34506POPC   C1A60056  14.086  29.802   7.419 -0.1212 -0.1274  0.0774
34506POPC   D2A60057  13.911  29.805   7.000  0.1648 -0.2245 -0.0127
34506POPC   C3A60058  13.777  30.236   6.781 -0.0443 -0.0796  0.0810
34506POPC   C4A60059  13.641  30.609   6.672  0.1416 -0.1958  0.2293
34506POPC   C1B60060  14.273  30.218   7.288  0.1340 -0.3306 -0.1834
34506POPC   C2B60061  14.018  30.534   7.054 -0.0630  0.3220  0.1927
34506POPC   C3B60062  13.629  30.767   7.107  0.0751  0.2115  0.0112
34506POPC   C4B60063  13.351  31.040   6.818  0.0819  0.0395  0.1449
34507POPC   NC360064   5.312  20.620  14.167 -0.5745 -0.2516  0.0179
34507POPC   PO460065   5.402  20.308  13.977  0.0564 -0.0193 -0.2150
34507POPC   GL160066   5.741  20.459  14.288  0.5274  0.0757  0.1723
34507POPC   GL260067   5.929  20.561  14.126 -0.2079 -0.2228 -0.0406
34507POPC   C1A60068   5.814  20.329  14.759  0.0852  0.2132  0.0211
34507POPC   D2A60069   5.722  20.285  15.202  0.0218  0.2585  0.0019
34507POPC   C3A60070   6.045  20.279  15.458  0.1477 -0.1132  0.3531
34507POPC   C4A60071   6.383  20.496  15.710 -0.0609 -0.2372  0.1766
34507POPC   C1B60072   6.198  20.352  14.441  0.0223  0.0336  0.2894
34507POPC   C2B60073   6.283  20.330  14.878  0.0847  0.0778  0.0592
34507POPC   C3B60074   6.634  20.365  15.131 -0.0930 -0.0901 -0.1130
34507POPC   C4B60075   6.698  20.104  15.519  0.0754 -0.1376  0.0786
34508POPC   NC360076   4.033  19.329   9.619 -0.3089  0.0026  0.1506
34508POPC   PO460077   4.342  19.560   9.644 -0.0886  0.3324  0.0258
34508POPC   GL160078   4.589  19.672   9.421  0.2659  0.0163 -0.2280
34508POPC   GL260079   4.730  19.938   9.370  0.4145  0.0287  0.0007
34508POPC   C1A60080   4.535  19.708   8.958  0.0020  0.0222 -0.2263
34508POPC   D2A60081   4.508  19.776   8.510  0.1958 -0.0400  0.0898
34508POPC   C3A60082   4.781  19.576   8.210  0.0284  0.0300  0.2389
34508POPC   C4A60083   5.181  19.435   7.991  0.1554 -0.1018  0.5520
34508POPC   C1B60084   4.898  20.030   8.936 -0.0767 -0.1398  0.0740
34508POPC   C2B60085   5.004  20.084   8.490 -0.0030 -0.2066 -0.2250
34508POPC   C3B60086   5.165  19.929   8.099 -0.3210  0.1289 -0.1977
34508POPC   C4B60087   5.407  19.799   7.715 -0.0603 -0.3978  0.1213
34509POPC   NC360088   3.071  24.680   9.195  0.0732 -0.2961 -0.5273
34509POPC   PO460089   2.725  24.791   9.042  0.0821 -0.0447 -0.0428
34509POPC   GL160090   2.702  24.912   8.693  0.4673  0.0603 -0.0436
34509POPC   GL260091   2.936  24.889   8.595 -0.0835  0.2319 -0.2144
34509POPC   C1A60092   2.615  24.948   8.250  0.1193  0.2566  0.2226
34509POPC   D2A60093   2.249  24.895   7.966  0.1467 -0.0216 -0.0457
34509POPC   C3A60094   1.977  25.059   7.669  0.3700  0.0205  0.0033
34509POPC   C4A60095   1.665  25.277   7.386 -0.0577 -0.0010 -0.0316
34509POPC   C1B60096   3.214  24.851   8.258 -0.1914  0.1712 -0.1341
34509POPC   C2B60097   3.346  24.653   7.847  0.0032  0.1150 -0.0206
34509POPC   C3B60098   3.241  24.435   7.457  0.1722  0.2046  0.1475
34509POPC   C4B60099   3.010  24.357   7.013 -0.0182  0.1258 -0.0934
34510POPC   NC360100   3.320  22.385  10.043  0.1641 -0.0031 -0.1977
34510POPC   PO460101   3.324  22.044   9.916 -0.2209  0.2490 -0.2784
34510POPC   GL160102   3.520  21.884   9.603 -0.1214  0.1616 -0.3977
34510POPC   GL260103   3.356  21.908   9.312  0.1889  0.1186 -0.2391
34510POPC   C1A60104   3.867  21.797   9.319 -0.1297  0.0136  0.3705
34510POPC   D2A60105   4.273  21.879   9.113 -0.3062 -0.1328  0.1380
34510POPC   C3A60106   4.355  21.629   8.752  0.2343 -0.1557  0.1928
34510POPC   C4A60107   4.596  21.551   8.394  0.0250  0.1392  0.1441
34510POPC   C1B60108   3.430  21.885   8.876  0.0858  0.2900 -0.2742
34510POPC   C2B60109   3.506  21.844   8.433  0.0800 -0.1805 -0.0815
34510POPC   C3B60110   3.709  21.933   8.053 -0.0615 -0.2184  0.2106
34510POPC   C4B60111   3.883  22.081   7.672  0.0470  0.0462  0.0359
34511POPC   NC360112  14.778  16.740   8.825  0.4083  0.1594 -0.1678
34511POPC   PO460113  14.729  16.426   8.567  0.1959  0.3075 -0.0314
34511POPC   GL160114  14.694  16.307   8.211  0.1126 -0.1596  0.2578
34511POPC   GL260115  14.509  16.497   8.113 -0.0791 -0.0464  0.1510
34511POPC   C1A60116  14.707  16.207   7.741 -0.1136  0.5757  0.0366
34511POPC   D2A60117  14.366  16.219   7.435  0.0185 -0.1721 -0.3081
34511POPC   C3A60118  14.290  16.073   6.993  0.1482 -0.1766  0.1787
34511POPC   C4A60119  14.597  16.021   6.678  0.0746  0.1006 -0.0645
34511POPC   C1B60120  14.424  16.973   7.951  0.1198  0.0731  0.2922
34511POPC   C2B60121  14.148  17.112   7.614  0.0193 -0.1267 -0.0437
34511POPC   C3B60122  13.832  17.065   7.332 -0.3009 -0.0890 -0.0962
34511POPC   C4B60123  13.510  17.196   7.058  0.1700  0.1683  0.1878
34512POPC   NC360124   8.020  30.286   9.444 -0.4006 -0.3168 -0.2071
34512POPC   PO460125   8.051  30.564   9.162 -0.4290 -0.1095 -0.1298
34512POPC   GL160126   8.175  30.297   8.847 -0.2625  0.0718  0.4212
34512POPC   GL260127   7.872  30.212   8.729  0.2189  0.2405 -0.1834
34512POPC   C1A60128   8.332  30.541   8.465  0.0810  0.0919 -0.0616
34512POPC   D2A60129   8.247  30.742   8.064  0.0486 -0.0952  0.3123
34512POPC   C3A60130   8.460  30.820   7.679  0.0201  0.2234  0.0372
34512POPC   C4A60131   8.766  31.025   7.474 -0.3246 -0.1740  0.0154
34512POPC   C1B60132   7.907  30.246   8.260  0.2787  0.0441  0.1189
34512POPC   C2B60133   7.926  29.926   7.939  0.0143 -0.0611 -0.0512
34512POPC   C3B60134   8.212  29.841   7.566 -0.1368  0.0972 -0.0449
34512POPC   C4B60135   8.403  29.968   7.156 -0.0829  0.1737 -0.2063
34513POPC   NC360136   5.684  22.701  14.112 -0.1065  0.0916 -0.1255
34513POPC   PO460137   5.736  22.688  13.730  0.0668  0.2554  0.2030
34513POPC   GL160138   6.088  22.776  13.829 -0.0845  0.5293  0.6996
34513POPC   GL260139   6.228  22.724  14.127  0.0194 -0.0968  0.0598
34513POPC   C1A60140   6.531  22.730  13.647  0.3996 -0.1099 -0.2720
34513POPC   D2A60141   7.010  22.784  13.568  0.2276 -0.3134 -0.3432
34513POPC   C3A60142   7.366  22.478  13.573  0.1912 -0.2927  0.2780
34513POPC   C4A60143   7.770  22.376  13.734 -0.0398 -0.3356 -0.1518
34513POPC   C1B60144   6.645  22.531  14.129  0.2707  0.0975 -0.1229
34513POPC   C2B60145   7.082  22.427  14.314 -0.1643 -0.0069 -0.3194
34513POPC   C3B60146   7.522  22.524  14.130  0.0797  0.2828 -0.0849
34513POPC   C4B60147   7.971  22.545  14.294  0.1276 -0.3051  0.2936
34514POPC   NC360148   4.244  31.678   8.580 -0.2984  0.0427  0.2117
34514POPC   PO460149   4.155  32.028   8.733  0.0323 -0.0068  0.1609
34514POPC   GL160150   4.161  32.279   8.333 -0.2341  0.0308  0.1023
34514POPC   GL260151   4.321  32.135   8.192  0.0340  0.0723  0.0173
34514POPC   C1A60152   3.922  32.354   7.989  0.0958  0.5262  0.0925
34514POPC   D2A60153   4.058  32.320   7.553  0.0183 -0.1210  0.0902
34514POPC   C3A60154   3.882  32.361   7.154 -0.0205 -0.1964  0.0480
34514POPC   C4A60155   3.743  32.439   6.778  0.2336 -0.0125  0.0015
34514POPC   C1B60156   4.131  31.849   7.919  0.1965 -0.0012  0.1670
34514POPC   C2B60157   3.894  31.834   7.479 -0.1092 -0.0763 -0.3885
34514POPC   C3B60158   3.867  31.807   7.034 -0.2375  0.0314 -0.1327
34514POPC   C4B60159   4.088  32.019   6.676  0.2329  0.0943  0.0188
34515POPC   NC360160   3.932  27.970   8.434  0.1528 -0.3969 -0.3424
34515POPC   PO460161   3.877  28.361   8.403  0.3100 -0.0694 -0.0135
34515POPC   GL160162   3.664  28.466   7.977  0.1655 -0.4448  0.1808
34515POPC   GL260163   3.428  28.324   7.931  0.1000 -0.0676 -0.0810
34515POPC   C1A60164   3.815  28.164   7.649 -0.1583  0.1853  0.1092
34515POPC   D2A60165   3.642  27.997   7.265  0.1374  0.1442  0.3382
34515POPC   C3A60166   3.609  27.982   6.838  0.1437 -0.0592 -0.0393
34515POPC   C4A60167   3.192  27.996   6.671  0.0029 -0.1563 -0.1447
34515POPC   C1B60168   3.275  28.143   7.569  0.2669 -0.1741 -0.0078
34515POPC   C2B60169   3.223  28.324   7.163  0.4486 -0.0092 -0.1704
34515POPC   C3B60170   3.508  28.460   6.813  0.1482 -0.0026  0.1379
34515POPC   C4B60171   3.687  28.600   6.411 -0.0261 -0.0009 -0.3616
34516POPC   NC360172  15.293  18.556   8.925 -0.1614  0.0967 -0.3087
34516POPC   PO460173  15.471  18.904   8.965 -0.1908 -0.0625 -0.2608
34516POPC   GL160174  15.358  18.903   8.584 -0.0211 -0.2410  0.2452
34516POPC   GL260175  15.232  18.729   8.481 -0.2080  0.1192  0.2608
34516POPC   C1A60176  15.729  18.888   8.258 -0.1224 -0.1261  0.0452
34516POPC   D2A60177  15.955  18.937   7.880  0.1431 -0.1474 -0.3293
34516POPC   C3A60178  16.008  19.299   7.543 -0.0982  0.0182  0.1192
34516POPC   C4A60179  16.130  19.619   7.197  0.2411  0.1679 -0.2677
34516POPC   C1B60180  15.241  18.964   8.085  0.1923 -0.1892 -0.1058
34516POPC   C2B60181  15.147  19.249   7.786 -0.1915 -0.2548  0.0225
34516POPC   C3B60182  14.955  19.546   7.493 -0.3605  0.1670 -0.1828
34516POPC   C4B60183  14.907  19.792   7.123 -0.0284 -0.1972 -0.0964
34517POPC   NC360184  10.670  17.337  11.808  0.0310  0.0820 -0.0853
34517POPC   PO460185  10.843  17.106  12.113 -0.3072 -0.0299  0.3214
34517POPC   GL160186  10.790  17.490  12.207  0.2034 -0.0567 -0.0393
34517POPC   GL260187  11.087  17.549  12.251  0.0449 -0.0552  0.0973
34517POPC   C1A60188  10.578  17.678  12.532  0.2658 -0.1739  0.0952
34517POPC   D2A60189  10.222  17.868  12.643 -0.0892  0.4375  0.0077
34517POPC   C3A60190  10.224  18.358  12.718  0.0337 -0.0686  0.1083
34517POPC   C4A60191  10.358  18.562  13.074 -0.0946 -0.0676 -0.1220
34517POPC   C1B60192  11.051  17.985  12.352 -0.0961 -0.0189  0.0231
34517POPC   C2B60193  11.157  18.445  12.382  0.2111  0.1491  0.1389
34517POPC   C3B60194  10.980  18.875  12.481 -0.1093  0.1380  0.3435
34517POPC   C4B60195  10.800  19.239  12.585 -0.2495  0.1083 -0.0786
34518POPC   NC360196   6.496  32.281   9.504  0.1924  0.0139  0.1730
34518POPC   PO460197   6.412  32.620   9.306  0.0826  0.0105  0.0362
34518POPC   GL160198   6.417  32.816   8.910 -0.0117 -0.1541  0.1228
34518POPC   GL260199   6.444  33.162   8.878 -0.3147 -0.1134 -0.1205
34518POPC   C1A60200   6.848  32.947   8.683  0.4694 -0.1447 -0.1235
34518POPC   D2A60201   7.168  33.241   8.477 -0.1735  0.0496  0.0083
34518POPC   C3A60202   7.277  33.548   8.114 -0.1470  0.3036 -0.3527
34518POPC   C4A60203   7.573  33.825   7.884 -0.1849 -0.0055  0.3103
34518POPC   C1B60204   6.294  33.041   8.506 -0.0312  0.3158  0.0485
34518POPC   C2B60205   6.411  33.173   8.080  0.2184 -0.2555 -0.0411
34518POPC   C3B60206   6.355  33.299   7.651 -0.1105 -0.0013 -0.0377
34518POPC   C4B60207   6.224  33.320   7.160  0.1415 -0.1275  0.2114
34519POPC   NC360208   1.351  17.610   8.929  0.1412 -0.0735  0.0855
34519POPC   PO460209   1.241  17.478   8.553 -0.1698 -0.1044 -0.3121
34519POPC   GL160210   1.215  17.411   8.239  0.1309 -0.0955  0.0304
34519POPC   GL260211   1.039  17.161   8.170  0.0229  0.0372  0.0852
34519POPC   C1A60212   1.556  17.385   7.912  0.1088  0.1283 -0.1195
34519POPC   D2A60213   1.876  17.365   7.620  0.1510  0.1174 -0.1560
34519POPC   C3A60214   2.112  17.665   7.423  0.2781 -0.2842  0.3082
34519POPC   C4A60215   2.137  18.116   7.321 -0.0087  0.0105 -0.0728
34519POPC   C1B60216   0.898  16.787   7.843 -0.0021  0.1463 -0.0869
34519POPC   C2B60217   0.836  16.807   7.371 -0.3722 -0.0825  0.0701
34519POPC   C3B60218   0.853  17.013   6.912 -0.1406  0.1764  0.2490
34519POPC   C4B60219   1.349  17.036   6.814 -0.1695  0.2755  0.2450
34520POPC   NC360220  14.872  22.562  14.675  0.2371  0.0864  0.0309
34520POPC   PO460221  14.825  22.794  14.967 -0.0653  0.1375 -0.0741
34520POPC   GL160222  14.591  22.553  15.084  0.1709  0.5929  0.4041
34520POPC   GL260223  14.392  22.571  14.845 -0.1841 -0.0913  0.0385
34520POPC   C1A60224  14.135  22.333  15.193  0.2024 -0.1686  0.0352
34520POPC   D2A60225  13.815  22.193  15.500 -0.0338  0.2682 -0.3181
34520POPC   C3A60226  13.483  21.968  15.790  0.0899  0.1253 -0.0327
34520POPC   C4A60227  13.316  21.555  15.898  0.0152  0.2281 -0.1444
34520POPC   C1B60228  13.933  22.593  14.861 -0.3518 -0.2433  0.0554
34520POPC   C2B60229  13.597  22.520  15.173 -0.1825 -0.0932  0.1931
34520POPC   C3B60230  13.334  22.411  15.582 -0.1839 -0.0656 -0.3175
34520POPC   C4B60231  13.050  22.695  15.848  0.0419  0.1486 -0.1515
34521POPC   NC360232  12.180  30.884  16.302 -0.1237  0.0479  0.3158
34521POPC   PO460233  12.468  30.609  16.289 -0.0932  0.2717 -0.0339
34521POPC   GL160234  12.552  30.836  16.507 -0.1787  0.0036 -0.1051
34521POPC   GL260235  12.613  30.739  16.746  0.0056  0.0045 -0.1429
34521POPC   C1A60236  12.293  31.129  16.812  0.0608  0.2169  0.0658
34521POPC   D2A60237  12.305  31.366  17.201 -0.1631 -0.1496  0.0206
34521POPC   C3A60238  12.434  31.561  17.604 -0.1919 -0.4979 -0.3758
34521POPC   C4A60239  12.219  31.782  17.978 -0.3395 -0.3717 -0.0972
34521POPC   C1B60240  12.754  31.084  17.010 -0.1215  0.0875 -0.1912
34521POPC   C2B60241  12.775  31.095  17.492  0.0112  0.1853  0.0042
34521POPC   C3B60242  12.700  31.248  17.968 -0.0669  0.3413  0.1753
34521POPC   C4B60243  12.682  31.471  18.371 -0.0753  0.1082 -0.1978
34522POPC   NC360244  14.814  21.597  13.337 -0.1607 -0.1548 -0.2303
34522POPC   PO460245  14.980  21.766  13.649 -0.0502 -0.0083 -0.0632
34522POPC   GL160246  14.650  21.695  13.761  0.0768  0.1736 -0.1001
34522POPC   GL260247  14.563  21.413  13.728  0.1216  0.0282  0.1185
34522POPC   C1A60248  14.335  21.702  14.124 -0.0288 -0.0924 -0.4138
34522POPC   D2A60249  13.981  21.651  14.407  0.0736 -0.2497 -0.1463
34522POPC   C3A60250  13.522  21.651  14.304 -0.3484 -0.0708 -0.0322
34522POPC   C4A60251  13.091  21.558  14.349  0.0713  0.2621  0.0364
34522POPC   C1B60252  14.117  21.314  13.870 -0.2348  0.2316  0.0095
34522POPC   C2B60253  13.679  21.304  13.982 -0.0284 -0.0535 -0.0997
34522POPC   C3B60254  13.405  21.156  14.301 -0.1216 -0.0241  0.0469
34522POPC   C4B60255  12.927  21.055  14.392 -0.0566  0.2588 -0.2481
34523POPC   NC360256   5.460  18.660  14.612 -0.0507  0.0222 -0.1387
34523POPC   PO460257   5.619  18.857  14.307  0.2569  0.1042 -0.0369
34523POPC   GL160258   5.828  19.077  14.617 -0.0105 -0.2326  0.1102
34523POPC   GL260259   5.925  18.802  14.713  0.2062 -0.0033 -0.0720
34523POPC   C1A60260   6.123  19.392  14.515  0.0837 -0.1506  0.2668
34523POPC   D2A60261   6.573  19.490  14.472  0.1145  0.2247  0.0481
34523POPC   C3A60262   6.757  19.437  14.881  0.2327 -0.1152 -0.4507
34523POPC   C4A60263   7.077  19.486  15.267  0.0560  0.0354  0.2928
34523POPC   C1B60264   6.037  18.985  15.119 -0.0196  0.2982  0.3651
34523POPC   C2B60265   6.256  19.152  15.502  0.4482 -0.2137 -0.0536
34523POPC   C3B60266   6.422  19.273  15.945  0.2654 -0.1663  0.0240
34523POPC   C4B60267   6.154  19.353  16.315 -0.0951  0.1752 -0.2534
34524POPC   NC360268   8.187   0.328   9.946  0.0726  0.0045  0.2775
34524POPC   PO460269   8.231   0.649  10.132  0.0063  0.0273  0.3250
34524POPC   GL160270   8.390   0.994   9.978  0.1110 -0.1216  0.0888
34524POPC   GL260271   8.519   1.163  10.144 -0.1447  0.0558 -0.0167
34524POPC   C1A60272   8.351   1.312   9.675  0.0720  0.0185 -0.1065
34524POPC   D2A60273   7.953   1.375   9.338 -0.1811  0.4019  0.0415
34524POPC   C3A60274   8.117   1.614   8.956  0.2308 -0.0091  0.2527
34524POPC   C4A60275   8.077   1.764   8.572  0.1269 -0.3088 -0.4025
34524POPC   C1B60276   8.857   1.267   9.890 -0.0702 -0.3889  0.1107
34524POPC   C2B60277   9.030   1.561   9.575 -0.1160  0.0005 -0.2634
34524POPC   C3B60278   9.020   1.827   9.219 -0.1794 -0.2100  0.1351
34524POPC   C4B60279   8.996   2.159   8.898  0.3059 -0.0496  0.2349
34525POPC   NC360280  13.878  26.079   9.629 -0.0294  0.0821  0.0336
34525POPC   PO460281  14.217  26.024   9.789 -0.1445 -0.0224 -0.2847
34525POPC   GL160282  14.314  25.738   9.502 -0.5269  0.1929 -0.0246
34525POPC   GL260283  14.051  25.603   9.603 -0.0938 -0.0915  0.0285
34525POPC   C1A60284  14.121  25.757   9.103  0.1281 -0.0816  0.1370
34525POPC   D2A60285  13.980  25.882   8.661 -0.0626  0.4618 -0.0582
34525POPC   C3A60286  14.003  25.783   8.192  0.2445 -0.2111  0.0206
34525POPC   C4A60287  13.923  25.508   7.866  0.0724  0.1044 -0.0737
34525POPC   C1B60288  13.717  25.535   9.264  0.1549  0.0396 -0.1030
34525POPC   C2B60289  13.568  25.256   8.936  0.2191 -0.1296 -0.0916
34525POPC   C3B60290  13.528  25.076   8.520 -0.0319  0.0812 -0.2416
34525POPC   C4B60291  13.658  25.176   8.098 -0.0908  0.1092  0.0164
34526POPC   NC360292   9.449  17.676  10.510 -0.2875 -0.0242 -0.0380
34526POPC   PO460293   9.358  17.470  10.209 -0.1505 -0.0139 -0.0825
34526POPC   GL160294   9.500  17.835  10.103  0.0218 -0.2756 -0.0539
34526POPC   GL260295   9.497  17.748   9.791  0.1105 -0.2553 -0.2812
34526POPC   C1A60296   9.727  18.127   9.780 -0.2320 -0.0357  0.1957
34526POPC   D2A60297  10.075  18.159   9.441  0.1110 -0.2554  0.2203
34526POPC   C3A60298  10.269  18.376   9.094  0.1268 -0.0420 -0.0877
34526POPC   C4A60299  10.403  18.760   8.889 -0.0681  0.1821  0.0384
34526POPC   C1B60300   9.194  18.114   9.785 -0.0896  0.0706  0.0724
34526POPC   C2B60301   8.905  18.343   9.528 -0.0070  0.1916 -0.2091
34526POPC   C3B60302   9.003  18.473   9.113 -0.3542  0.2058  0.1040
34526POPC   C4B60303   9.245  18.522   8.733 -0.2013  0.1930 -0.0619
34527POPC   NC360304  13.928  17.448  14.813  0.2330 -0.1659  0.2699
34527POPC   PO460305  13.918  17.695  14.515  0.0880  0.1317 -0.1206
34527POPC   GL160306  13.782  17.896  14.816 -0.4405  0.0253 -0.1993
34527POPC   GL260307  14.027  17.983  14.985 -0.0816 -0.2937 -0.0009
34527POPC   C1A60308  13.584  18.289  14.930  0.1846 -0.1406 -0.1056
34527POPC   D2A60309  13.402  18.779  14.933  0.1044  0.1491 -0.1389
34527POPC   C3A60310  13.390  18.913  15.423  0.3425  0.0825  0.1538
34527POPC   C4A60311  13.449  19.184  15.788  0.2304 -0.0838 -0.0295
34527POPC   C1B60312  13.818  18.034  15.405 -0.1883  0.1679 -0.0497
34527POPC   C2B60313  13.506  18.140  15.735  0.0224 -0.3382 -0.0275
34527POPC   C3B60314  13.465  18.309  16.167 -0.1441  0.0319 -0.0094
34527POPC   C4B60315  13.273  18.410  16.598 -0.2466  0.1238  0.0902
34528POPC   NC360316   7.758  32.368   9.056  0.2573 -0.0982 -0.1589
34528POPC   PO460317   7.485  32.191   8.826 -0.1899  0.1377  0.0177
34528POPC   GL160318   7.440  32.566   8.722  0.0851  0.1347 -0.0991
34528POPC   GL260319   7.213  32.658   8.801  0.2650  0.1001 -0.0492
34528POPC   C1A60320   7.599  32.942   8.597 -0.3359  0.1105  0.3474
34528POPC   D2A60321   7.605  33.160   8.177  0.0688  0.2536 -0.1870
34528POPC   C3A60322   7.727  33.290   7.751  0.0598 -0.0618  0.2966
34528POPC   C4A60323   8.163  33.240   7.556 -0.0743 -0.0896  0.0568
34528POPC   C1B60324   7.248  32.738   8.327  0.1944 -0.0082  0.0275
34528POPC   C2B60325   7.216  32.869   7.876  0.2228 -0.1791  0.3977
34528POPC   C3B60326   7.480  32.985   7.481  0.0857 -0.1583 -0.1018
34528POPC   C4B60327   7.633  33.248   7.135  0.3157  0.1906 -0.1778
34529POPC   NC360328   1.116  31.118   7.812  0.0077  0.0844  0.0983
34529POPC   PO460329   1.463  31.273   7.731  0.1311 -0.1773  0.0330
34529POPC   GL160330   1.335  31.278   7.356 -0.1986 -0.2015 -0.1435
34529POPC   GL260331   1.561  31.165   7.201 -0.0441  0.0185 -0.0803
34529POPC   C1A60332   1.244  31.563   7.024 -0.1046  0.0749  0.1436
34529POPC   D2A60333   1.366  31.944   6.817  0.3211  0.1550 -0.0363
34529POPC   C3A60334   1.732  32.055   6.541 -0.2892 -0.2357 -0.0845
34529POPC   C4A60335   1.874  32.365   6.169 -0.2060  0.0881 -0.1714
34529POPC   C1B60336   1.282  31.072   6.866  0.4170 -0.2198  0.1854
34529POPC   C2B60337   1.042  31.046   6.464 -0.1036 -0.4037  0.1049
34529POPC   C3B60338   0.639  31.246   6.489 -0.2021  0.0621  0.1555
34529POPC   C4B60339   0.303  31.333   6.172  0.0707  0.2018 -0.0933
34530POPC   NC360340   3.788  25.670   9.975 -0.3222 -0.1131 -0.1147
34530POPC   PO460341   3.536  25.674   9.707  0.2672 -0.0054 -0.0731
34530POPC   GL160342   3.853  25.714   9.426 -0.0833  0.0519  0.1007
34530POPC   GL260343   4.110  25.591   9.549 -0.1861 -0.2354 -0.1322
34530POPC   C1A60344   3.972  25.569   9.009 -0.1152  0.0797  0.0519
34530POPC   D2A60345   4.352  25.599   8.668  0.1141  0.1980  0.2828
34530POPC   C3A60346   4.569  25.453   8.309  0.1817 -0.4214  0.1211
34530POPC   C4A60347   4.952  25.178   8.183  0.2371  0.1680  0.3540
34530POPC   C1B60348   4.407  25.629   9.227  0.0422 -0.2648  0.0111
34530POPC   C2B60349   4.787  25.586   8.948 -0.4327  0.3314 -0.1421
34530POPC   C3B60350   4.961  25.757   8.567 -0.2494 -0.2268 -0.1773
34530POPC   C4B60351   5.225  25.637   8.223  0.3405  0.3103 -0.3000
34531POPC   NC360352  16.229  17.594   8.493 -0.1990  0.0364  0.0552
34531POPC   PO460353  16.193  17.257   8.619  0.1532 -0.1646 -0.1523
34531POPC   GL160354  16.003  17.193   8.311 -0.3540  0.5109  0.1849
34531POPC   GL260355  15.864  16.979   8.303  0.3955  0.2003 -0.0689
34531POPC   C1A60356  16.211  16.957   7.944  0.3049 -0.1104 -0.2110
34531POPC   D2A60357  16.428  17.027   7.539 -0.1900  0.1332 -0.3440
34531POPC   C3A60358  16.231  16.752   7.258 -0.2372 -0.0799 -0.0344
34531POPC   C4A60359  15.844  16.694   7.030 -0.0083  0.0580  0.4802
34531POPC   C1B60360  15.779  17.188   7.896  0.1219  0.0534 -0.5024
34531POPC   C2B60361  15.609  17.519   7.573  0.1544  0.3245 -0.3015
34531POPC   C3B60362  15.548  17.557   7.098  0.2270 -0.0630  0.1361
34531POPC   C4B60363  15.960  17.552   6.781 -0.1908 -0.2248 -0.1235
34532POPC   NC360364   6.604  28.691   9.184  0.0820 -0.2412  0.0494
34532POPC   PO460365   6.946  28.754   9.367 -0.2228 -0.1470  0.2359
34532POPC   GL160366   6.967  28.727   8.980 -0.0542  0.5502  0.0657
34532POPC   GL260367   7.096  28.982   8.883  0.1478  0.3265  0.2357
34532POPC   C1A60368   7.216  28.467   8.692 -0.1027 -0.1480 -0.2376
34532POPC   D2A60369   7.591  28.621   8.471 -0.0723 -0.0985 -0.1813
34532POPC   C3A60370   7.746  28.542   8.041  0.1340  0.1719 -0.0370
34532POPC   C4A60371   7.924  28.467   7.606  0.2367  0.3495 -0.0272
34532POPC   C1B60372   7.100  28.886   8.487  0.2903  0.0226  0.1992
34532POPC   C2B60373   7.202  28.692   8.084 -0.0229 -0.3424 -0.0804
34532POPC   C3B60374   7.385  28.627   7.650  0.1577  0.3103  0.0980
34532POPC   C4B60375   7.528  28.288   7.379  0.1411 -0.0787 -0.3831
34533POPC   NC360376  10.391  31.711  15.913  0.0028  0.0625 -0.0082
34533POPC   PO460377   9.997  31.652  15.892  0.1474  0.0196  0.2138
34533POPC   GL160378   9.889  32.019  15.921  0.0957 -0.1071  0.0444
34533POPC   GL260379  10.142  32.167  15.980 -0.2960 -0.2955 -0.2008
34533POPC   C1A60380   9.709  32.332  16.182 -0.1618 -0.0465 -0.1167
34533POPC   D2A60381   9.321  32.556  16.339 -0.1130 -0.0677 -0.1737
34533POPC   C3A60382   9.207  32.330  16.702  0.1367 -0.0209 -0.2068
34533POPC   C4A60383   9.127  32.312  17.102 -0.0463  0.0189  0.1952
34533POPC   C1B60384  10.154  32.592  16.141 -0.2235  0.0156 -0.0385
34533POPC   C2B60385  10.154  33.040  16.248  0.0120  0.1836 -0.1391
34533POPC   C3B60386  10.149  33.411  16.478 -0.1417  0.1652 -0.3020
34533POPC   C4B60387  10.117  33.561  16.917 -0.1426 -0.1468 -0.1793
34534POPC   NC360388   1.785  31.008   7.918 -0.0797  0.0546 -0.0914
34534POPC   PO460389   1.878  30.662   7.709  0.2919 -0.4203  0.0602
34534POPC   GL160390   1.945  30.758   7.321  0.1278  0.2798 -0.2510
34534POPC   GL260391   2.023  30.972   7.337 -0.0653  0.1597  0.0877
34534POPC   C1A60392   2.130  30.615   6.918 -0.1789  0.0404  0.1658
34534POPC   D2A60393   2.215  30.547   6.458  0.1992 -0.3032 -0.1643
34534POPC   C3A60394   2.372  30.164   6.331  0.0112  0.2483 -0.1477
34534POPC   C4A60395   2.374  29.885   5.993  0.0236  0.0712 -0.1101
34534POPC   C1B60396   2.138  31.146   6.956  0.2326  0.0478 -0.2388
34534POPC   C2B60397   2.454  30.948   6.723 -0.4005 -0.1080 -0.3095
34534POPC   C3B60398   2.463  30.924   6.275 -0.1277 -0.1140  0.0406
34534POPC   C4B60399   2.526  30.774   5.851  0.0178 -0.0176  0.1504
34535POPC   NC360400   1.452  25.493   8.896 -0.1149  0.0204  0.3608
34535POPC   PO460401   1.507  25.116   9.049 -0.4013  0.2099  0.1587
34535POPC   GL160402   1.374  24.995   8.678 -0.0406  0.1448 -0.0175
34535POPC   GL260403   1.128  25.206   8.609  0.1307 -0.1211  0.2286
34535POPC   C1A60404   1.175  24.933   8.237 -0.3291  0.3563 -0.1652
34535POPC   D2A60405   1.268  24.610   7.941 -0.1253  0.3733 -0.0706
34535POPC   C3A60406   0.858  24.579   7.681 -0.0138 -0.0477  0.1582
34535POPC   C4A60407   0.615  24.324   7.381  0.2490 -0.0403  0.0788
34535POPC   C1B60408   1.302  25.446   8.235  0.0917 -0.0606  0.0343
34535POPC   C2B60409   1.183  25.474   7.751 -0.4002 -0.2803  0.0205
34535POPC   C3B60410   1.019  25.352   7.424  0.2087 -0.0603  0.2083
34535POPC   C4B60411   0.623  25.392   7.174  0.2780 -0.0083 -0.1902
34536POPC   NC360412   4.450  28.567   9.030  0.0963 -0.2350  0.1049
34536POPC   PO460413   4.717  28.842   8.894 -0.1183  0.1630  0.1742
34536POPC   GL160414   4.491  28.958   8.542  0.0361 -0.1109 -0.1635
34536POPC   GL260415   4.501  29.266   8.567  0.0221 -0.3776  0.1178
34536POPC   C1A60416   4.377  28.740   8.171 -0.1284 -0.0803  0.1610
34536POPC   D2A60417   4.644  28.670   7.825  0.0399 -0.0885  0.2042
34536POPC   C3A60418   4.738  29.139   7.760  0.0226  0.2422 -0.0030
34536POPC   C4A60419   4.794  29.412   7.414  0.0414 -0.4343 -0.0103
34536POPC   C1B60420   4.567  29.368   8.142  0.0152 -0.2663  0.0679
34536POPC   C2B60421   4.418  29.567   7.772 -0.1445 -0.0232 -0.1850
34536POPC   C3B60422   4.283  29.464   7.359  0.0462  0.0255 -0.4056
34536POPC   C4B60423   4.184  29.177   7.041 -0.0623 -0.4796  0.3295
34537POPC   NC360424  12.665  29.578   8.980 -0.0062 -0.1229  0.0802
34537POPC   PO460425  12.930  29.364   8.745  0.4141 -0.2414 -0.1190
34537POPC   GL160426  12.958  29.423   8.403  0.0214 -0.1543  0.1030
34537POPC   GL260427  13.026  29.317   8.113  0.0851 -0.1953 -0.1306
34537POPC   C1A60428  12.843  29.759   8.026  0.3010  0.3661 -0.2434
34537POPC   D2A60429  12.587  30.099   7.994 -0.2671 -0.2367  0.0990
34537POPC   C3A60430  12.565  30.167   7.540  0.0151  0.0462 -0.4694
34537POPC   C4A60431  12.438  30.256   7.100  0.1923  0.3221 -0.2433
34537POPC   C1B60432  12.862  29.065   7.759  0.3460 -0.0298  0.5601
34537POPC   C2B60433  12.872  28.937   7.284  0.1916 -0.1256 -0.1310
34537POPC   C3B60434  12.939  28.766   6.890  0.2675 -0.0472 -0.3021
34537POPC   C4B60435  12.799  28.364   6.685 -0.0045  0.1080  0.4277
34538POPC   NC360436   0.932  30.364   8.215 -0.0154 -0.1404  0.0907
34538POPC   PO460437   1.203  30.169   8.020  0.0530  0.1768 -0.2373
34538POPC   GL160438   1.024  29.985   7.709  0.2557 -0.2780 -0.0328
34538POPC   GL260439   0.957  29.713   7.589  0.2744 -0.2095 -0.2032
34538POPC   C1A60440   1.119  30.239   7.353 -0.1118  0.0897 -0.4035
34538POPC   D2A60441   1.351  30.195   6.995  0.0968 -0.0530 -0.0221
34538POPC   C3A60442   1.361  29.938   6.644 -0.0709  0.2490  0.1035
34538POPC   C4A60443   1.282  29.948   6.173 -0.1374  0.0015  0.6003
34538POPC   C1B60444   0.661  29.594   7.273  0.1277  0.1886 -0.1626
34538POPC   C2B60445   0.531  29.639   6.830 -0.0456 -0.3712 -0.2133
34538POPC   C3B60446   0.347  29.805   6.422 -0.0865 -0.0524  0.1247
34538POPC   C4B60447  -0.043  29.754   6.199 -0.1219  0.2263 -0.1988
34539POPC   NC360448   5.367  18.361  10.122  0.2517  0.0958 -0.0063
34539POPC   PO460449   5.684  18.548  10.197 -0.1558 -0.3859 -0.2220
34539POPC   GL160450   5.643  18.614   9.822  0.0250 -0.1892 -0.0495
34539POPC   GL260451   5.485  18.789   9.703  0.0946 -0.0329 -0.0149
34539POPC   C1A60452   6.030  18.736   9.562 -0.0238 -0.1006 -0.1291
34539POPC   D2A60453   6.354  18.842   9.226  0.2429 -0.1141  0.0196
34539POPC   C3A60454   6.262  19.264   8.998 -0.0994  0.1195  0.1276
34539POPC   C4A60455   6.511  19.573   8.803 -0.1629 -0.1830 -0.0064
34539POPC   C1B60456   5.548  19.060   9.336 -0.1836  0.0094 -0.0037
34539POPC   C2B60457   5.746  19.362   9.092  0.1929 -0.1988  0.2411
34539POPC   C3B60458   5.603  19.721   8.882  0.0739 -0.0571 -0.0574
34539POPC   C4B60459   5.436  20.121   8.668  0.1960 -0.1445  0.0314
34540POPC   NC360460   6.202  24.685  11.606  0.1080  0.3303  0.0332
34540POPC   PO460461   6.105  24.664  11.995 -0.0591  0.1275 -0.1192
34540POPC   GL160462   6.277  24.323  12.179 -0.4045 -0.0198  0.1986
34540POPC   GL260463   6.215  24.081  11.975 -0.0706  0.1720 -0.2136
34540POPC   C1A60464   6.696  24.184  12.119 -0.1044  0.1534 -0.0436
34540POPC   D2A60465   7.143  24.115  12.055 -0.1332  0.2475 -0.2366
34540POPC   C3A60466   7.426  24.095  11.668  0.1238 -0.1588  0.1279
34540POPC   C4A60467   7.645  23.768  11.399 -0.0723  0.0479 -0.2654
34540POPC   C1B60468   6.399  23.837  11.638  0.0794  0.1277  0.0725
34540POPC   C2B60469   6.715  23.740  11.279  0.0067  0.1670 -0.2015
34540POPC   C3B60470   7.164  23.832  11.259  0.1356 -0.1019  0.0618
34540POPC   C4B60471   7.349  24.257  11.160  0.3639 -0.0095  0.0942
34541POPC   NC360472   1.016  25.015   9.003  0.0339  0.2513 -0.0926
34541POPC   PO460473   0.746  24.791   9.202 -0.0162  0.1543  0.2780
34541POPC   GL160474   0.563  24.758   8.724  0.5850  0.2452  0.2460
34541POPC   GL260475   0.513  24.413   8.641 -0.2331 -0.1537 -0.0829
34541POPC   C1A60476   0.644  25.059   8.357  0.1288 -0.1211 -0.2188
34541POPC   D2A60477   0.831  25.044   7.911 -0.2750 -0.1770  0.1955
34541POPC   C3A60478   0.531  25.067   7.534  0.1626  0.4930  0.0799
34541POPC   C4A60479   0.259  25.104   7.165  0.1894  0.0471 -0.0772
34541POPC   C1B60480   0.424  24.093   8.343 -0.1666 -0.1996 -0.1450
34541POPC   C2B60481   0.512  24.147   7.854 -0.0177 -0.0023 -0.2170
34541POPC   C3B60482   0.742  23.871   7.549 -0.0218  0.1880 -0.2746
34541POPC   C4B60483   0.918  23.516   7.438 -0.0822  0.2350  0.3469
34542POPC   NC360484   3.861  21.227  10.195 -0.2648 -0.1311  0.1380
34542POPC   PO460485   3.803  21.301   9.839  0.1945 -0.1759  0.3038
34542POPC   GL160486   3.816  21.344   9.486  0.0132 -0.2642  0.2046
34542POPC   GL260487   3.861  21.004   9.409 -0.0043 -0.3083  0.3793
34542POPC   C1A60488   4.132  21.394   9.191 -0.3294  0.1634 -0.0021
34542POPC   D2A60489   4.555  21.489   9.345 -0.1684  0.0179  0.1959
34542POPC   C3A60490   4.823  21.644   8.984 -0.0248 -0.1455  0.0615
34542POPC   C4A60491   4.846  21.281   8.679  0.2973  0.0406 -0.1649
34542POPC   C1B60492   3.882  21.055   8.961 -0.0678  0.2897 -0.2304
34542POPC   C2B60493   4.176  21.143   8.606 -0.2277  0.1552  0.3048
34542POPC   C3B60494   4.451  21.058   8.215 -0.2390  0.1825  0.2642
34542POPC   C4B60495   4.869  20.969   7.998 -0.0483 -0.0058  0.0279
34543POPC   NC360496  13.900  18.900  11.023  0.1695 -0.2476  0.2654
34543POPC   PO460497  13.789  19.095  10.719 -0.0941 -0.1092 -0.0019
34543POPC   GL160498  13.534  19.460  10.571 -0.5385 -0.1582 -0.0860
34543POPC   GL260499  13.378  19.286  10.392 -0.0005  0.0419  0.0930
34543POPC   C1A60500  13.333  19.778  10.801 -0.0785 -0.3685  0.3355
34543POPC   D2A60501  13.024  19.908  11.118 -0.1278  0.4643 -0.1209
34543POPC   C3A60502  12.927  20.362  11.257 -0.2697 -0.1725  0.1055
34543POPC   C4A60503  12.742  20.699  11.473  0.1346  0.0361 -0.0202
34543POPC   C1B60504  13.162  19.648  10.322  0.0322  0.1585 -0.3518
34543POPC   C2B60505  12.936  19.981  10.188  0.0621 -0.0157 -0.0706
34543POPC   C3B60506  12.663  20.302  10.324  0.1223 -0.0744 -0.3491
34543POPC   C4B60507  12.671  20.751  10.199 -0.1405 -0.0818  0.1943
34544POPC   NC360508  13.479  26.089  10.777  0.1698 -0.0762  0.1285
34544POPC   PO460509  13.471  26.519  10.760  0.4350  0.0058  0.0874
34544POPC   GL160510  13.094  26.453  10.788  0.3152  0.1483  0.0906
34544POPC   GL260511  12.960  26.363  10.523  0.0432 -0.0826  0.1193
34544POPC   C1A60512  12.942  26.104  11.054  0.0191  0.3517 -0.0860
34544POPC   D2A60513  12.709  25.936  11.395 -0.3528  0.3195  0.0029
34544POPC   C3A60514  12.432  25.667  11.091  0.0046 -0.4269 -0.1933
34544POPC   C4A60515  12.116  25.507  10.775  0.1001 -0.1416 -0.2243
34544POPC   C1B60516  12.907  25.943  10.494  0.2814  0.1771 -0.1470
34544POPC   C2B60517  13.032  25.511  10.300  0.0524 -0.0193  0.1234
34544POPC   C3B60518  13.124  25.053  10.215 -0.1670  0.1888  0.0352
34544POPC   C4B60519  13.119  24.610  10.135 -0.0283  0.1221  0.1430
34545POPC   NC360520   0.707  19.177   8.894  0.0225 -0.0744 -0.0790
34545POPC   PO460521   0.733  18.816   8.833 -0.3119  0.0520 -0.2583
34545POPC   GL160522   0.642  18.946   8.479 -0.0695  0.0797  0.2817
34545POPC   GL260523   0.608  18.677   8.329 -0.1592 -0.0648 -0.1493
34545POPC   C1A60524   0.782  19.075   8.091 -0.1834  0.0167  0.1208
34545POPC   D2A60525   1.103  19.047   7.722 -0.1528 -0.0809  0.2719
34545POPC   C3A60526   1.033  19.310   7.339 -0.2079 -0.2745  0.1028
34545POPC   C4A60527   0.884  19.453   6.924 -0.0619 -0.4891 -0.2178
34545POPC   C1B60528   0.582  18.572   7.874 -0.1925 -0.1703 -0.2465
34545POPC   C2B60529   0.663  18.293   7.519 -0.0165  0.0248  0.0134
34545POPC   C3B60530   0.780  18.247   7.110 -0.4075 -0.1686  0.3268
34545POPC   C4B60531   0.993  18.427   6.722  0.1132  0.0001 -0.3327
34546POPC   NC360532  11.538  32.526   8.398  0.4119  0.1786 -0.1989
34546POPC   PO460533  11.633  32.723   8.772  0.2408 -0.0313  0.3377
34546POPC   GL160534  11.445  32.936   8.541 -0.1258  0.0374 -0.1978
34546POPC   GL260535  11.183  32.944   8.667 -0.0664 -0.2815 -0.0651
34546POPC   C1A60536  11.295  33.111   8.150 -0.2341  0.1977  0.0650
34546POPC   D2A60537  11.006  33.222   7.823 -0.0186  0.0540 -0.1272
34546POPC   C3A60538  11.045  33.568   8.092  0.2417 -0.1293  0.1611
34546POPC   C4A60539  10.736  33.628   8.402  0.1335 -0.2740 -0.1876
34546POPC   C1B60540  11.279  33.418   8.536 -0.1490  0.1224  0.1261
34546POPC   C2B60541  11.223  33.856   8.400 -0.1618  0.0451 -0.1017
34546POPC   C3B60542  11.309  34.222   8.120 -0.1548 -0.0916  0.2239
34546POPC   C4B60543  11.283  34.584   7.868 -0.1151  0.0370  0.0197
34547POPC   NC360544   5.889  21.599  13.079  0.1033  0.2550 -0.0765
34547POPC   PO460545   5.671  21.565  13.441 -0.1444  0.0998  0.0853
34547POPC   GL160546   5.970  21.500  13.518  0.3891 -0.1316  0.2649
34547POPC   GL260547   5.985  21.279  13.709  0.1900  0.2436 -0.1381
34547POPC   C1A60548   6.399  21.415  13.403  0.1191  0.1262 -0.2692
34547POPC   D2A60549   6.752  21.062  13.382  0.1143 -0.1243  0.0561
34547POPC   C3A60550   7.174  21.236  13.328 -0.1701 -0.0726 -0.3122
34547POPC   C4A60551   7.266  21.684  13.165  0.0371 -0.0880  0.1073
34547POPC   C1B60552   6.438  21.203  13.865 -0.1634  0.1931  0.4534
34547POPC   C2B60553   6.903  21.109  13.933  0.0987 -0.1807  0.0367
34547POPC   C3B60554   7.344  21.210  13.870 -0.3389 -0.0417 -0.2022
34547POPC   C4B60555   7.375  21.585  13.691  0.4042  0.2027  0.2346
34548POPC   NC360556  14.747  19.156  14.457 -0.2306 -0.1860 -0.1155
34548POPC   PO460557  14.897  19.540  14.316 -0.1726  0.1783  0.0343
34548POPC   GL160558  14.491  19.596  14.537  0.1013  0.1877 -0.5006
34548POPC   GL260559  14.400  19.386  14.740  0.0949  0.0226  0.0350
34548POPC   C1A60560  14.183  19.823  14.813  0.3454 -0.1480 -0.1291
34548POPC   D2A60561  13.789  20.112  14.836 -0.1724 -0.1181  0.1826
34548POPC   C3A60562  13.583  20.495  14.948  0.0510 -0.0124  0.1945
34548POPC   C4A60563  13.222  20.697  15.219  0.1553  0.2064  0.1411
34548POPC   C1B60564  14.064  19.394  15.079  0.0850  0.1015  0.0154
34548POPC   C2B60565  13.746  19.502  15.406  0.0816  0.1026  0.0289
34548POPC   C3B60566  13.352  19.639  15.507  0.0342 -0.1227  0.1324
34548POPC   C4B60567  12.928  19.546  15.695 -0.2607 -0.0213  0.1174
34549POPC   NC360568   4.492  26.587  15.715 -0.1560 -0.0054 -0.1891
34549POPC   PO460569   4.312  26.208  15.797  0.3532 -0.1163  0.4118
34549POPC   GL160570   4.394  26.260  16.057 -0.2972 -0.2418  0.2175
34549POPC   GL260571   4.584  26.479  16.200  0.0003  0.2976  0.0020
34549POPC   C1A60572   4.680  25.973  16.258 -0.2960  0.0868 -0.1661
34549POPC   D2A60573   4.737  25.741  16.657  0.0008  0.1483 -0.0537
34549POPC   C3A60574   4.375  25.726  16.966  0.0170  0.2272 -0.0017
34549POPC   C4A60575   4.060  25.910  17.295 -0.2639 -0.1733 -0.0841
34549POPC   C1B60576   4.844  26.347  16.602 -0.0406  0.0290 -0.2012
34549POPC   C2B60577   4.724  26.156  16.973  0.0778  0.2044 -0.1041
34549POPC   C3B60578   4.582  26.141  17.395  0.0602 -0.3661  0.1853
34549POPC   C4B60579   4.549  26.134  17.839 -0.0298  0.0318  0.1655
34550POPC   NC360580  13.440  28.090   9.065  0.1198 -0.1427  0.0219
34550POPC   PO460581  13.180  28.407   8.946 -0.1744  0.0017  0.1023
34550POPC   GL160582  13.368  28.273   8.632  0.2710 -0.1935  0.1504
34550POPC   GL260583  13.175  28.402   8.388 -0.2041 -0.0501  0.0773
34550POPC   C1A60584  13.587  28.046   8.249 -0.0514  0.3797  0.3337
34550POPC   D2A60585  13.597  27.982   7.768 -0.0724 -0.0235  0.5204
34550POPC   C3A60586  13.796  27.625   7.525  0.3805  0.1581 -0.1774
34550POPC   C4A60587  13.723  27.189   7.544 -0.0542 -0.2320  0.4795
34550POPC   C1B60588  13.132  28.165   8.008  0.0438 -0.0874 -0.1752
34550POPC   C2B60589  13.103  28.037   7.610  0.1054 -0.1245  0.0108
34550POPC   C3B60590  12.866  27.665   7.352 -0.2400  0.0311  0.2469
34550POPC   C4B60591  12.610  27.335   7.098 -0.3256 -0.1416 -0.0255
34551POPC   NC360592  10.544   0.073   9.096  0.0922  0.1081  0.0122
34551POPC   PO460593  10.371   0.144   9.437  0.0747 -0.1705  0.1385
34551POPC   GL160594  10.355   0.476   9.167 -0.2242 -0.0455  0.1395
34551POPC   GL260595  10.600   0.610   9.217  0.2273 -0.2544  0.1390
34551POPC   C1A60596  10.250   0.358   8.751  0.1516 -0.1331  0.1684
34551POPC   D2A60597  10.104   0.205   8.360  0.1010  0.2051  0.2493
34551POPC   C3A60598   9.771   0.108   8.135  0.0681  0.0760 -0.1334
34551POPC   C4A60599   9.393   0.189   7.919 -0.1095 -0.1749 -0.0241
34551POPC   C1B60600  10.413   0.835   8.826  0.1546 -0.0774  0.2655
34551POPC   C2B60601  10.234   0.729   8.397 -0.2121 -0.0415 -0.2772
34551POPC   C3B60602   9.994   0.557   8.063 -0.0306  0.1482  0.2699
34551POPC   C4B60603   9.864   0.295   7.689 -0.1932 -0.0022  0.3581
34552POPC   NC360604   8.253  32.173   8.825 -0.0571 -0.0314  0.2061
34552POPC   PO460605   7.949  31.994   8.681 -0.1403  0.0234  0.1710
34552POPC   GL160606   7.861  32.055   8.314  0.2534  0.1335 -0.1594
34552POPC   GL260607   8.061  32.114   8.176 -0.0947 -0.0671  0.1698
34552POPC   C1A60608   7.499  32.295   8.065  0.0837 -0.0294  0.1011
34552POPC   D2A60609   7.386  32.396   7.611  0.0826  0.1734 -0.0407
34552POPC   C3A60610   7.062  32.665   7.393 -0.0654 -0.0399 -0.0303
34552POPC   C4A60611   7.144  33.054   7.091 -0.0393  0.0136  0.0184
34552POPC   C1B60612   7.839  32.222   7.770 -0.1105  0.1682 -0.0443
34552POPC   C2B60613   7.848  32.334   7.331  0.0428 -0.1494  0.1370
34552POPC   C3B60614   7.505  32.686   7.090  0.0929  0.2815 -0.1332
34552POPC   C4B60615   7.084  32.664   6.831 -0.1991 -0.1329  0.2873
34553POPC   NC360616  13.951  19.830   9.716 -0.0849 -0.1178 -0.0566
34553POPC   PO460617  13.926  19.445   9.582  0.2535 -0.1630 -0.1043
34553POPC   GL160618  13.712  19.690   9.315  0.1817  0.1168  0.0502
34553POPC   GL260619  13.844  19.911   9.158  0.0507  0.1583  0.1505
34553POPC   C1A60620  13.356  19.706   8.969  0.0294  0.2638 -0.1467
34553POPC   D2A60621  13.138  20.014   8.698  0.1222 -0.2370 -0.1720
34553POPC   C3A60622  12.685  19.845   8.502 -0.2274  0.4344  0.0040
34553POPC   C4A60623  12.279  20.055   8.360 -0.1067  0.0333  0.2612
34553POPC   C1B60624  13.753  19.988   8.698  0.3386 -0.0052 -0.0615
34553POPC   C2B60625  13.478  20.294   8.478  0.0209 -0.2264  0.0799
34553POPC   C3B60626  13.530  20.687   8.212  0.2183 -0.2262  0.3644
34553POPC   C4B60627  13.711  21.114   8.196 -0.0994 -0.0115 -0.1136
34554POPC   NC360628  14.481  24.007  10.762 -0.0706  0.0487 -0.1001
34554POPC   PO460629  14.692  24.312  10.606  0.0271 -0.1019  0.1863
34554POPC   GL160630  14.428  24.194  10.282  0.1233  0.0644 -0.2639
34554POPC   GL260631  14.159  24.221  10.333  0.3036  0.1301 -0.1566
34554POPC   C1A60632  14.437  24.091   9.844  0.1129  0.0119  0.2620
34554POPC   D2A60633  14.520  24.310   9.420  0.3538 -0.1179  0.2786
34554POPC   C3A60634  14.577  24.019   9.059  0.0177 -0.0895 -0.0844
34554POPC   C4A60635  14.545  23.582   8.977 -0.0353  0.1832 -0.1597
34554POPC   C1B60636  13.722  24.323  10.204 -0.2771 -0.1550 -0.2999
34554POPC   C2B60637  13.368  24.114  10.001 -0.1187 -0.2117  0.1755
34554POPC   C3B60638  12.939  24.115  10.127  0.0029  0.1571 -0.0253
34554POPC   C4B60639  12.472  24.197  10.053 -0.0087  0.2219  0.3140
34555POPC   NC360640  11.380  30.245   8.103  0.1498 -0.0339 -0.3362
34555POPC   PO460641  11.797  30.165   8.214  0.2067  0.1728  0.0075
34555POPC   GL160642  11.955  30.111   7.894  0.2092 -0.3574 -0.1290
34555POPC   GL260643  11.759  30.304   7.724 -0.0556 -0.0664  0.2123
34555POPC   C1A60644  12.024  29.949   7.458  0.1845 -0.4878 -0.0620
34555POPC   D2A60645  11.846  30.054   7.025  0.1000  0.2750  0.3071
34555POPC   C3A60646  11.605  30.408   6.829 -0.0792 -0.1057 -0.1952
34555POPC   C4A60647  11.810  30.814   6.876  0.1434 -0.0587  0.1450
34555POPC   C1B60648  11.544  30.039   7.433  0.1401 -0.1321  0.2240
34555POPC   C2B60649  11.306  30.023   7.011 -0.2551 -0.2227  0.2556
34555POPC   C3B60650  11.121  29.818   6.677 -0.3701  0.3242 -0.1463
34555POPC   C4B60651  11.028  29.674   6.233  0.3323  0.0733  0.0177
34556POPC   NC360652   3.574  17.561   9.489 -0.0469  0.0079 -0.2782
34556POPC   PO460653   3.492  17.271   9.285  0.2697 -0.0532  0.1246
34556POPC   GL160654   3.273  17.167   8.930  0.4766 -0.0040  0.0769
34556POPC   GL260655   3.423  17.116   8.689  0.1552 -0.1713 -0.1345
34556POPC   C1A60656   3.159  17.568   8.631 -0.0575  0.1276 -0.1231
34556POPC   D2A60657   3.198  17.939   8.398  0.1592 -0.0685  0.0033
34556POPC   C3A60658   3.285  18.153   7.990 -0.0851  0.0336 -0.3343
34556POPC   C4A60659   3.675  18.297   7.719 -0.0084 -0.1756 -0.0000
34556POPC   C1B60660   3.551  17.037   8.261 -0.0569 -0.3415  0.2178
34556POPC   C2B60661   3.774  17.169   7.902 -0.5817 -0.1510  0.2886
34556POPC   C3B60662   4.061  17.508   7.675 -0.1220 -0.0489 -0.0519
34556POPC   C4B60663   4.474  17.628   7.408 -0.3051 -0.1440  0.0140
34557POPC   NC360664   7.142  17.917  10.165 -0.0197 -0.0124 -0.1163
34557POPC   PO460665   7.420  17.678  10.361  0.0791 -0.1447  0.1122
34557POPC   GL160666   7.611  17.922  10.104 -0.1625  0.1185  0.1809
34557POPC   GL260667   7.750  17.843   9.850 -0.0055 -0.3301  0.5100
34557POPC   C1A60668   7.944  18.263  10.098  0.2234 -0.0200  0.0376
34557POPC   D2A60669   7.866  18.713   9.868 -0.1795  0.0769 -0.0623
34557POPC   C3A60670   8.157  18.856   9.563 -0.0034  0.0739  0.0523
34557POPC   C4A60671   8.419  19.184   9.384  0.2607 -0.1528 -0.0755
34557POPC   C1B60672   7.726  18.241   9.623  0.1827  0.2205  0.3301
34557POPC   C2B60673   7.896  18.471   9.272  0.3494 -0.0480  0.3912
34557POPC   C3B60674   7.845  18.739   8.876  0.0392  0.3583 -0.0788
34557POPC   C4B60675   8.226  19.024   8.786  0.2386 -0.1176 -0.2221
34558POPC   NC360676   0.951  22.171   9.345 -0.1487  0.0358 -0.1584
34558POPC   PO460677   0.595  22.117   9.136  0.0605  0.0508  0.0965
34558POPC   GL160678   0.517  22.086   8.748  0.0905 -0.2019 -0.0024
34558POPC   GL260679   0.722  22.317   8.563  0.1371 -0.2972 -0.4871
34558POPC   C1A60680   0.399  21.789   8.425  0.0069  0.2717 -0.1054
34558POPC   D2A60681   0.222  21.667   8.052  0.0203  0.1319 -0.1114
34558POPC   C3A60682   0.248  21.854   7.672  0.2143 -0.1771  0.0682
34558POPC   C4A60683   0.623  21.966   7.318  0.2190  0.0934  0.1193
34558POPC   C1B60684   0.403  22.248   8.237 -0.4082  0.2578 -0.2641
34558POPC   C2B60685   0.306  22.311   7.747 -0.0194  0.0429 -0.1575
34558POPC   C3B60686   0.104  22.248   7.380 -0.1641  0.2866 -0.3850
34558POPC   C4B60687  -0.193  22.406   7.045  0.1851  0.0225 -0.0413
34559POPC   NC360688  11.735  17.588   9.298 -0.0878 -0.1208  0.0260
34559POPC   PO460689  12.109  17.747   9.485 -0.1555  0.3375 -0.1480
34559POPC   GL160690  11.914  17.979   9.459 -0.0709 -0.1594 -0.3096
34559POPC   GL260691  11.705  18.076   9.296 -0.1158  0.1691 -0.3304
34559POPC   C1A60692  11.895  18.448   9.490 -0.1140  0.0136 -0.1268
34559POPC   D2A60693  11.698  18.806   9.258 -0.0018  0.0831 -0.0150
34559POPC   C3A60694  11.545  19.002   8.827 -0.2228 -0.0147  0.0339
34559POPC   C4A60695  11.607  19.211   8.484 -0.0137 -0.1935  0.4745
34559POPC   C1B60696  11.407  18.380   9.218  0.1276 -0.0910  0.0252
34559POPC   C2B60697  11.236  18.672   8.959 -0.0621  0.0193  0.2956
34559POPC   C3B60698  10.878  18.977   9.010  0.1208  0.1264 -0.2741
34559POPC   C4B60699  10.456  19.226   8.994  0.1110 -0.3490  0.2652
34560POPC   NC360700   5.603  22.391  12.649 -0.1209  0.0184 -0.0373
34560POPC   PO460701   5.689  22.117  12.920  0.1921 -0.0832  0.3292
34560POPC   GL160702   6.044  22.218  12.959 -0.3146 -0.1912  0.1929
34560POPC   GL260703   6.084  22.392  12.625 -0.2068 -0.3254  0.1782
34560POPC   C1A60704   6.440  22.140  13.203  0.0006 -0.2344  0.0955
34560POPC   D2A60705   6.729  21.778  13.240  0.0489  0.1077 -0.2968
34560POPC   C3A60706   6.875  21.422  12.967 -0.1482 -0.2742  0.3499
34560POPC   C4A60707   7.163  21.111  12.794  0.1825 -0.2080  0.3689
34560POPC   C1B60708   6.536  22.306  12.682 -0.2358  0.0281 -0.1074
34560POPC   C2B60709   6.967  22.351  12.601  0.0970 -0.0793 -0.0504
34560POPC   C3B60710   7.366  22.246  12.352 -0.0562  0.0196 -0.2087
34560POPC   C4B60711   7.821  22.361  12.240  0.1372 -0.1522 -0.0542
34561POPC   NC360712   5.190  32.384   8.486 -0.2839 -0.1508 -0.2219
34561POPC   PO460713   5.404  32.621   8.719 -0.4895 -0.1617  0.2983
34561POPC   GL160714   5.551  32.891   8.430 -0.2519 -0.0013 -0.2081
34561POPC   GL260715   5.353  32.923   8.181  0.0540  0.0759 -0.0061
34561POPC   C1A60716   5.938  32.850   8.137 -0.0600  0.0576  0.1163
34561POPC   D2A60717   6.173  32.785   7.782 -0.0016  0.0774 -0.0789
34561POPC   C3A60718   6.210  32.797   7.301  0.1681 -0.0499 -0.2201
34561POPC   C4A60719   5.920  32.924   6.990  0.0565 -0.0194  0.2649
34561POPC   C1B60720   5.292  33.047   7.728 -0.2154  0.0313  0.2868
34561POPC   C2B60721   5.010  32.995   7.297 -0.1336  0.1525 -0.0853
34561POPC   C3B60722   4.780  33.285   6.989  0.2840 -0.1680  0.0198
34561POPC   C4B60723   4.791  33.703   6.816  0.2514 -0.1166 -0.0552
34562POPC   NC360724   9.614  17.300   9.703  0.0691  0.0402 -0.1661
34562POPC   PO460725   9.858  17.381  10.015  0.0229 -0.0749 -0.0817
34562POPC   GL160726  10.051  17.577   9.858 -0.0362  0.2559  0.1264
34562POPC   GL260727   9.972  17.689   9.607 -0.3062  0.0240 -0.0575
34562POPC   C1A60728  10.238  18.026   9.920 -0.0460 -0.1323 -0.0032
34562POPC   D2A60729  10.045  18.469   9.918 -0.0359 -0.1128  0.2279
34562POPC   C3A60730   9.984  18.665   9.462  0.0721  0.0871 -0.0048
34562POPC   C4A60731   9.782  18.616   9.021  0.1202  0.0937  0.0845
34562POPC   C1B60732  10.002  17.776   9.118  0.2536  0.1495 -0.2508
34562POPC   C2B60733   9.871  18.038   8.800 -0.0347  0.0124  0.0715
34562POPC   C3B60734   9.606  18.141   8.424  0.1348  0.0162 -0.1442
34562POPC   C4B60735   9.612  18.195   7.947  0.2426 -0.0083  0.0811
34563POPC   NC360736  16.106  19.738  15.849  0.1170 -0.0398  0.0181
34563POPC   PO460737  16.029  20.056  15.712 -0.1575 -0.1332  0.0751
34563POPC   GL160738  15.859  20.348  15.972  0.1109  0.2272 -0.3829
34563POPC   GL260739  15.805  20.143  16.184 -0.1300  0.5051 -0.0260
34563POPC   C1A60740  15.443  20.545  15.881  0.1107  0.0749 -0.0246
34563POPC   D2A60741  15.021  20.751  16.112  0.0504  0.1970 -0.0147
34563POPC   C3A60742  14.896  20.680  16.544 -0.1486 -0.1368  0.0586
34563POPC   C4A60743  15.016  20.426  16.981 -0.2429 -0.0262 -0.0456
34563POPC   C1B60744  15.672  20.144  16.639  0.0504 -0.2475 -0.0077
34563POPC   C2B60745  15.421  20.065  17.006 -0.0789  0.0629 -0.2807
34563POPC   C3B60746  15.388  19.705  17.275 -0.2254 -0.1410  0.1262
34563POPC   C4B60747  15.127  19.354  17.233 -0.2986 -0.1616  0.0751
34564POPC   NC360748   6.342  24.756  12.441 -0.3413 -0.1912 -0.2401
34564POPC   PO460749   6.620  24.650  12.764  0.2517  0.0287 -0.0712
34564POPC   GL160750   6.861  24.392  12.865 -0.2447 -0.2569  0.3376
34564POPC   GL260751   6.915  24.225  12.651 -0.2259  0.2079 -0.0023
34564POPC   C1A60752   7.156  24.052  13.032 -0.0459  0.1318 -0.0326
34564POPC   D2A60753   7.405  23.613  12.961 -0.1330 -0.2478 -0.1193
34564POPC   C3A60754   7.531  23.175  12.968  0.2115  0.1872  0.0466
34564POPC   C4A60755   7.777  22.821  12.950  0.0179 -0.0485 -0.1912
34564POPC   C1B60756   7.236  23.924  12.584 -0.1362 -0.1305 -0.0824
34564POPC   C2B60757   7.574  23.582  12.519  0.1754 -0.0173 -0.0920
34564POPC   C3B60758   7.624  23.148  12.432 -0.1653 -0.1950  0.2407
34564POPC   C4B60759   7.949  22.807  12.421 -0.0909  0.2078  0.2045
34565POPC   NC360760   0.617  21.502  15.585 -0.2814 -0.4335  0.1632
34565POPC   PO460761   0.840  21.150  15.585  0.1584  0.0793 -0.0525
34565POPC   GL160762   0.645  21.239  15.963 -0.3297 -0.0643  0.0719
34565POPC   GL260763   0.877  21.018  16.090 -0.0779  0.0505  0.0778
34565POPC   C1A60764   0.408  21.347  16.318  0.3224 -0.0596  0.2165
34565POPC   D2A60765   0.146  21.410  16.745 -0.0678 -0.2126 -0.3666
34565POPC   C3A60766  -0.217  21.663  16.965  0.0914 -0.0832 -0.0998
34565POPC   C4A60767  -0.648  21.856  17.162  0.1284 -0.1143 -0.1531
34565POPC   C1B60768   0.904  21.071  16.580 -0.6238 -0.2186  0.1782
34565POPC   C2B60769   1.062  21.119  17.029  0.0959 -0.0541 -0.2462
34565POPC   C3B60770   1.115  21.339  17.471 -0.1428 -0.0382  0.0177
34565POPC   C4B60771   1.063  21.761  17.725  0.1378  0.3324 -0.0716
34566POPC   NC360772  14.915  21.459  14.021 -0.1598 -0.0875  0.1064
34566POPC   PO460773  15.079  21.389  14.387  0.2475  0.1167  0.0272
34566POPC   GL160774  14.749  21.389  14.675  0.2007 -0.2360  0.0247
34566POPC   GL260775  14.547  21.401  14.530  0.2116  0.1131  0.0226
34566POPC   C1A60776  14.551  21.119  14.987 -0.1898 -0.1069  0.1455
34566POPC   D2A60777  14.465  20.867  15.268  0.0992  0.1347 -0.0658
34566POPC   C3A60778  14.024  20.838  15.547  0.1140  0.2004  0.0539
34566POPC   C4A60779  13.825  20.737  15.951 -0.0234  0.1570 -0.0559
34566POPC   C1B60780  14.157  21.380  14.745  0.0098  0.1979 -0.0645
34566POPC   C2B60781  13.708  21.366  14.753 -0.0452 -0.1076  0.4903
34566POPC   C3B60782  13.248  21.258  14.739 -0.0021 -0.0586  0.2719
34566POPC   C4B60783  12.942  21.108  15.030 -0.0438  0.0883 -0.0621
34567POPC   NC360784   7.626  26.030  12.864 -0.1177  0.1487  0.1407
34567POPC   PO460785   7.326  25.800  13.010 -0.0320  0.0554 -0.1057
34567POPC   GL160786   7.475  25.481  13.144 -0.2138  0.4698 -0.1755
34567POPC   GL260787   7.476  25.262  12.925  0.1388 -0.0556  0.0083
34567POPC   C1A60788   7.821  25.198  13.291 -0.1644  0.1035 -0.1998
34567POPC   D2A60789   8.175  24.933  13.439  0.1733 -0.0194 -0.0646
34567POPC   C3A60790   8.423  24.677  13.113 -0.1199 -0.0455 -0.0969
34567POPC   C4A60791   8.807  24.707  12.862  0.3930 -0.0743  0.0969
34567POPC   C1B60792   7.912  25.225  12.819 -0.2251 -0.0889  0.1733
34567POPC   C2B60793   8.224  24.885  12.654  0.1402 -0.2465 -0.0461
34567POPC   C3B60794   8.390  24.519  12.647  0.0877 -0.0339  0.1420
34567POPC   C4B60795   8.604  24.172  12.858 -0.1177  0.2701 -0.0418
34568POPC   NC360796   5.668  17.984  14.975 -0.0121  0.3247  0.0010
34568POPC   PO460797   5.503  17.686  15.175  0.1718  0.3002  0.0311
34568POPC   GL160798   5.489  17.930  15.453 -0.3989 -0.0764 -0.1415
34568POPC   GL260799   5.429  18.145  15.393  0.1038 -0.1161 -0.0754
34568POPC   C1A60800   5.805  17.833  15.784 -0.2192  0.0504 -0.2069
34568POPC   D2A60801   5.745  17.780  16.282  0.0359  0.0491 -0.4130
34568POPC   C3A60802   6.071  17.703  16.635  0.2599 -0.0493 -0.0840
34568POPC   C4A60803   6.380  17.652  17.026  0.2777 -0.0156 -0.3012
34568POPC   C1B60804   5.748  18.279  15.644  0.2231 -0.0570  0.2054
34568POPC   C2B60805   5.964  18.447  15.988  0.0224  0.0324 -0.0882
34568POPC   C3B60806   6.063  18.387  16.430  0.2032 -0.0347 -0.0004
34568POPC   C4B60807   5.979  18.610  16.811 -0.3965 -0.2770 -0.1407
34569POPC   NC360808  14.999  26.539   9.553  0.1868  0.0648  0.0946
34569POPC   PO460809  14.639  26.652   9.414  0.1566 -0.0447  0.0839
34569POPC   GL160810  14.678  26.463   9.080 -0.0400  0.1117  0.0668
34569POPC   GL260811  14.839  26.297   9.119 -0.2028  0.3512  0.0501
34569POPC   C1A60812  14.807  26.521   8.642 -0.0506 -0.2146  0.2319
34569POPC   D2A60813  15.019  26.670   8.306  0.0659  0.0618  0.0877
34569POPC   C3A60814  14.726  26.655   7.961  0.3771 -0.3046  0.0644
34569POPC   C4A60815  14.656  26.503   7.522  0.0262 -0.0492  0.0152
34569POPC   C1B60816  14.908  26.010   8.692 -0.0818 -0.0623  0.0464
34569POPC   C2B60817  14.883  25.730   8.280  0.0800 -0.3424 -0.1009
34569POPC   C3B60818  14.947  25.368   7.968  0.2051  0.0648  0.1749
34569POPC   C4B60819  14.988  25.079   7.602  0.3904 -0.0619 -0.1753
34570POPC   NC360820  13.089  27.606   9.154 -0.0694  0.0136 -0.0725
34570POPC   PO460821  13.179  27.291   9.403  0.4366  0.3640  0.2191
34570POPC   GL160822  13.009  27.003   9.124  0.0494  0.3326 -0.1685
34570POPC   GL260823  13.088  26.726   9.186  0.2953 -0.3017 -0.0594
34570POPC   C1A60824  12.780  27.035   8.713 -0.0957  0.0141 -0.0752
34570POPC   D2A60825  12.974  27.004   8.263 -0.2204 -0.2498  0.3676
34570POPC   C3A60826  12.714  27.070   7.899 -0.1599  0.0152 -0.3386
34570POPC   C4A60827  12.686  27.091   7.471 -0.0018  0.1340 -0.1411
34570POPC   C1B60828  12.706  26.403   9.184 -0.2589 -0.0766 -0.2534
34570POPC   C2B60829  12.645  26.148   8.769 -0.0007 -0.1263  0.4468
34570POPC   C3B60830  12.703  25.853   8.371  0.0057 -0.1821  0.1530
34570POPC   C4B60831  12.679  25.966   7.965 -0.1588  0.1647  0.1036
34571POPC   NC360832   1.328  19.686  15.391  0.0722  0.2901  0.2632
34571POPC   PO460833   1.295  19.270  15.382  0.3092  0.0353 -0.0329
34571POPC   GL160834   1.208  19.031  15.673  0.1944  0.1604  0.3286
34571POPC   GL260835   1.341  19.146  15.871  0.0494 -0.0246 -0.0774
34571POPC   C1A60836   0.885  19.077  15.992 -0.0752 -0.1134  0.0529
34571POPC   D2A60837   0.875  19.390  16.372 -0.2816  0.1111 -0.2751
34571POPC   C3A60838   1.082  19.173  16.750 -0.1177  0.0805  0.0762
34571POPC   C4A60839   1.086  18.742  16.858  0.2102 -0.0369  0.1952
34571POPC   C1B60840   1.478  19.365  16.282 -0.0748 -0.1402  0.0059
34571POPC   C2B60841   1.549  19.548  16.668 -0.1792  0.2508  0.0490
34571POPC   C3B60842   1.473  19.857  16.976 -0.3646 -0.1695 -0.1949
34571POPC   C4B60843   1.376  19.722  17.485  0.2868  0.3623  0.4994
34572POPC   NC360844  15.161  30.309   8.337 -0.1543  0.1038  0.0316
34572POPC   PO460845  15.105  30.121   8.000  0.2016 -0.0264 -0.0550
34572POPC   GL160846  15.009  30.010   7.696  0.2247  0.0019 -0.1108
34572POPC   GL260847  14.970  29.747   7.630  0.0390 -0.1479 -0.0786
34572POPC   C1A60848  15.157  30.054   7.269  0.1490 -0.0523  0.1545
34572POPC   D2A60849  15.175  30.263   6.837  0.1844 -0.1114 -0.1245
34572POPC   C3A60850  15.494  30.407   6.507  0.3136 -0.0143 -0.1655
34572POPC   C4A60851  15.478  30.492   6.078  0.2211  0.3668  0.2782
34572POPC   C1B60852  14.668  29.875   7.279  0.0227 -0.2154  0.2269
34572POPC   C2B60853  14.405  29.742   6.915 -0.0863 -0.3658 -0.0524
34572POPC   C3B60854  14.397  29.408   6.615  0.1268 -0.0459 -0.3837
34572POPC   C4B60855  14.152  29.011   6.413 -0.0489 -0.1817 -0.2515
34573POPC   NC360856   8.006  29.399   9.283  0.3142 -0.2853 -0.1617
34573POPC   PO460857   8.371  29.492   9.269  0.1869 -0.0203  0.0364
34573POPC   GL160858   8.407  29.087   9.014  0.3141  0.0990  0.1842
34573POPC   GL260859   8.116  29.014   8.878 -0.0924 -0.1177  0.2612
34573POPC   C1A60860   8.548  28.941   8.551 -0.1089 -0.1493 -0.2631
34573POPC   D2A60861   8.655  29.042   8.105 -0.1975  0.1788 -0.1400
34573POPC   C3A60862   8.898  29.262   7.835 -0.0019  0.0052  0.0969
34573POPC   C4A60863   9.048  29.381   7.454 -0.0616 -0.2006 -0.0325
34573POPC   C1B60864   8.061  28.745   8.566  0.1089  0.1903  0.0208
34573POPC   C2B60865   8.230  28.676   8.151 -0.2997  0.3651  0.1262
34573POPC   C3B60866   8.421  28.758   7.739  0.0229 -0.1759 -0.0866
34573POPC   C4B60867   8.602  29.021   7.437  0.1135  0.0465 -0.3653
34574POPC   NC360868   4.807  21.456  12.047 -0.0750 -0.3867 -0.2048
34574POPC   PO460869   5.183  21.606  11.999 -0.0788  0.1242 -0.2934
34574POPC   GL160870   5.433  21.778  11.749  0.1488 -0.4356 -0.1268
34574POPC   GL260871   5.579  21.926  11.894  0.0421 -0.4453 -0.0310
34574POPC   C1A60872   5.813  21.551  11.537  0.1951 -0.2363  0.0624
34574POPC   D2A60873   6.187  21.506  11.227 -0.2656  0.0705  0.0842
34574POPC   C3A60874   5.955  21.469  10.879  0.1199  0.0294 -0.0448
34574POPC   C4A60875   5.636  21.596  10.550  0.0652  0.0125  0.0783
34574POPC   C1B60876   5.965  22.087  11.656  0.0951 -0.0884 -0.1608
34574POPC   C2B60877   6.294  22.137  11.305 -0.2088 -0.0999  0.3627
34574POPC   C3B60878   6.642  22.258  11.042  0.1768  0.2759 -0.0640
34574POPC   C4B60879   7.009  22.045  10.750  0.0517 -0.2670  0.0932
34575POPC   NC360880   5.449  20.345  11.461  0.1648 -0.2258 -0.3048
34575POPC   PO460881   5.368  20.215  11.142 -0.3356  0.2282  0.3158
34575POPC   GL160882   5.596  20.085  10.853  0.0755 -0.2669  0.1692
34575POPC   GL260883   5.828  20.114  10.874  0.1790 -0.1108  0.1736
34575POPC   C1A60884   5.687  20.268  10.419 -0.2322 -0.2694 -0.0622
34575POPC   D2A60885   5.862  20.269   9.959  0.0912  0.0755 -0.1982
34575POPC   C3A60886   6.192  20.572   9.867  0.2860 -0.2548  0.1858
34575POPC   C4A60887   6.131  20.993   9.995 -0.0666  0.0218  0.0932
34575POPC   C1B60888   5.950  20.587  10.753 -0.2260 -0.0142  0.0123
34575POPC   C2B60889   6.260  20.680  10.402  0.4754  0.1483 -0.0158
34575POPC   C3B60890   6.541  21.068  10.322  0.0985 -0.1973  0.2648
34575POPC   C4B60891   6.738  21.267   9.945  0.1290 -0.1035  0.0396
34576POPC   NC360892  11.596  17.539  12.659  0.0188 -0.1739  0.1034
34576POPC   PO460893  11.699  17.324  12.316 -0.1810 -0.0573 -0.0048
34576POPC   GL160894  11.719  17.641  12.124 -0.1306 -0.1043 -0.0659
34576POPC   GL260895  11.470  17.723  11.985  0.1322  0.0401 -0.0600
34576POPC   C1A60896  11.551  17.995  12.424 -0.2907  0.1018  0.0790
34576POPC   D2A60897  11.614  18.020  12.886  0.2061 -0.1310  0.1302
34576POPC   C3A60898  11.993  18.289  12.946 -0.0754 -0.0304 -0.0675
34576POPC   C4A60899  12.332  18.481  13.253  0.1288 -0.1464  0.0451
34576POPC   C1B60900  11.356  17.986  11.557  0.1636  0.0438 -0.4135
34576POPC   C2B60901  11.268  18.164  11.129 -0.2963  0.1746  0.0707
34576POPC   C3B60902  11.198  18.576  10.890  0.2183 -0.3779 -0.0994
34576POPC   C4B60903  11.126  18.907  10.500  0.0954  0.0901 -0.0234
34577POPC   NC360904  14.519  18.119   8.511  0.1460  0.0888 -0.1700
34577POPC   PO460905  14.209  18.281   8.738  0.0169 -0.0605 -0.0289
34577POPC   GL160906  14.212  18.420   8.404  0.0595 -0.0228  0.1876
34577POPC   GL260907  14.489  18.570   8.246  0.0090 -0.0764 -0.3755
34577POPC   C1A60908  14.115  18.403   7.977 -0.0585  0.3062 -0.1436
34577POPC   D2A60909  13.869  18.444   7.617 -0.3011 -0.2968 -0.1540
34577POPC   C3A60910  13.842  18.321   7.145 -0.0898 -0.0089 -0.1425
34577POPC   C4A60911  13.865  18.016   6.845  0.0593  0.2452 -0.2980
34577POPC   C1B60912  14.608  18.892   7.954  0.1529  0.1606  0.0543
34577POPC   C2B60913  14.781  19.016   7.552 -0.2639  0.0016 -0.1732
34577POPC   C3B60914  15.169  19.062   7.220 -0.2507 -0.0127 -0.2781
34577POPC   C4B60915  15.330  19.006   6.818  0.2793 -0.0919  0.0211
34578POPC   NC360916  12.701  17.872  11.689  0.1064  0.1493 -0.4365
34578POPC   PO460917  12.700  18.208  11.509 -0.0367 -0.0893 -0.2345
34578POPC   GL160918  12.385  18.582  11.446 -0.1572  0.3433  0.2338
34578POPC   GL260919  12.102  18.529  11.559  0.1286 -0.0124 -0.0759
34578POPC   C1A60920  12.544  19.037  11.420 -0.1666  0.0337  0.1387
34578POPC   D2A60921  12.484  19.384  11.664  0.0551  0.0337 -0.0077
34578POPC   C3A60922  12.048  19.558  11.615 -0.2855 -0.0402  0.1025
34578POPC   C4A60923  11.733  19.482  11.881  0.0363 -0.0534  0.1431
34578POPC   C1B60924  12.101  18.863  11.254  0.1537 -0.0496 -0.1595
34578POPC   C2B60925  12.022  19.347  11.101  0.1990  0.0232 -0.1059
34578POPC   C3B60926  11.888  19.803  11.134  0.2205  0.1378 -0.2845
34578POPC   C4B60927  12.068  20.153  11.275  0.2208  0.4114  0.0179
34579POPC   NC360928  10.522  27.123  12.032 -0.0596  0.3927 -0.0029
34579POPC   PO460929  10.116  26.968  11.931 -0.0059  0.1326  0.0914
34579POPC   GL160930  10.098  26.736  11.627 -0.0640 -0.1288  0.2374
34579POPC   GL260931  10.163  26.443  11.758 -0.0546 -0.3451  0.0746
34579POPC   C1A60932   9.858  26.570  11.286  0.1253 -0.3013 -0.0001
34579POPC   D2A60933   9.697  26.171  11.109  0.3805  0.2215 -0.0779
34579POPC   C3A60934   9.700  26.188  10.641  0.1030  0.1468 -0.3824
34579POPC   C4A60935   9.478  25.831  10.380  0.1700  0.3240  0.1935
34579POPC   C1B60936  10.106  26.099  11.333  0.2306 -0.0677  0.0055
34579POPC   C2B60937  10.029  25.692  11.120  0.1405  0.4420  0.1885
34579POPC   C3B60938   9.712  25.374  11.144 -0.2104  0.1881  0.0287
34579POPC   C4B60939   9.282  25.280  11.085 -0.1624  0.1618  0.2596
34580POPC   NC360940   5.571  21.187  11.198 -0.0987 -0.0799 -0.2596
34580POPC   PO460941   5.250  21.003  11.138 -0.0309  0.2136 -0.2149
34580POPC   GL160942   5.401  20.945  10.778  0.0068  0.1711  0.0327
34580POPC   GL260943   5.682  21.131  10.708 -0.0353  0.0914 -0.1491
34580POPC   C1A60944   5.616  20.749  10.394 -0.0034  0.1128 -0.2347
34580POPC   D2A60945   5.683  20.717   9.970 -0.2163 -0.4188 -0.0418
34580POPC   C3A60946   5.846  21.017   9.620 -0.0681  0.3677  0.2517
34580POPC   C4A60947   6.131  21.258   9.251 -0.0056  0.2287 -0.0203
34580POPC   C1B60948   6.018  21.249  10.415 -0.0095  0.2420  0.1446
34580POPC   C2B60949   6.387  21.524  10.274  0.0736 -0.2184 -0.2262
34580POPC   C3B60950   6.818  21.534  10.339  0.2482 -0.0075  0.1579
34580POPC   C4B60951   7.275  21.359  10.330  0.0795  0.2209  0.1012
34581POPC   NC360952  12.737  16.022  14.581  0.2723  0.0189  0.0274
34581POPC   PO460953  12.536  16.268  14.783 -0.2130 -0.1453 -0.1469
34581POPC   GL160954  12.278  16.410  15.115 -0.2255  0.0080  0.3931
34581POPC   GL260955  12.286  16.747  15.081  0.3606  0.0220 -0.1074
34581POPC   C1A60956  12.214  16.553  15.543  0.2870  0.0375 -0.0210
34581POPC   D2A60957  12.520  16.661  15.836  0.0275 -0.1373  0.1363
34581POPC   C3A60958  12.378  16.837  16.282 -0.4042  0.2951 -0.0381
34581POPC   C4A60959  11.989  16.732  16.454 -0.0156 -0.1502  0.3551
34581POPC   C1B60960  11.849  16.911  14.929 -0.0096 -0.1569  0.0380
34581POPC   C2B60961  11.500  17.188  14.870  0.1129 -0.2522 -0.1200
34581POPC   C3B60962  11.158  17.476  14.734 -0.2583  0.0183 -0.0766
34581POPC   C4B60963  11.072  17.945  14.565  0.0218  0.1083 -0.1198
34582POPC   NC360964  12.252  32.516   8.676 -0.0909  0.0441 -0.1788
34582POPC   PO460965  11.975  32.344   8.491  0.0451 -0.1672  0.1733
34582POPC   GL160966  11.907  32.782   8.343 -0.1187  0.1721  0.0808
34582POPC   GL260967  12.144  32.851   8.261  0.2384  0.0214 -0.1049
34582POPC   C1A60968  11.739  32.728   7.941  0.0247 -0.4215  0.2350
34582POPC   D2A60969  11.536  32.383   7.696 -0.0990  0.0924  0.1390
34582POPC   C3A60970  11.326  32.448   7.318 -0.4344 -0.1408 -0.1022
34582POPC   C4A60971  11.292  32.369   6.867 -0.2272  0.0520 -0.1947
34582POPC   C1B60972  12.208  32.900   7.799 -0.0824 -0.1859 -0.0273
34582POPC   C2B60973  11.942  32.996   7.438 -0.0499  0.0220  0.0771
34582POPC   C3B60974  11.679  33.352   7.192 -0.2320  0.1204  0.2714
34582POPC   C4B60975  11.485  33.632   6.872 -0.1415  0.1809  0.0567
34583POPC   NC360976   5.001  22.095  11.175 -0.0249  0.1875 -0.1517
34583POPC   PO460977   5.177  21.738  11.117  0.0610  0.1175 -0.2347
34583POPC   GL160978   5.332  21.904  10.882  0.0361 -0.2738  0.2504
34583POPC   GL260979   5.182  21.831  10.595 -0.2943  0.1031  0.0754
34583POPC   C1A60980   5.659  22.106  10.560  0.2238  0.2529  0.1428
34583POPC   D2A60981   5.932  22.034  10.181  0.0026  0.1069 -0.0008
34583POPC   C3A60982   6.247  22.351  10.012  0.1873 -0.0433 -0.0849
34583POPC   C4A60983   6.613  22.610   9.896 -0.1778  0.1790  0.2075
34583POPC   C1B60984   5.391  21.789  10.167  0.0529 -0.0793  0.0821
34583POPC   C2B60985   5.659  21.892   9.806  0.0193 -0.0024  0.1562
34583POPC   C3B60986   6.060  21.775   9.635 -0.0233  0.3597 -0.2420
34583POPC   C4B60987   6.303  21.793   9.307 -0.0130 -0.1574  0.0225
34584POPC   NC360988   2.738  31.166   7.885 -0.0447  0.1967  0.1291
34584POPC   PO460989   2.848  30.764   7.830  0.1538 -0.0222  0.0932
34584POPC   GL160990   2.819  30.420   7.589  0.3554 -0.3690  0.0577
34584POPC   GL260991   2.875  30.618   7.325  0.1063 -0.0362 -0.3553
34584POPC   C1A60992   3.174  30.168   7.360  0.3296  0.3489 -0.0790
34584POPC   D2A60993   3.539  30.000   7.105  0.1260 -0.0608 -0.2319
34584POPC   C3A60994   3.347  29.727   6.675 -0.2269 -0.0581 -0.1024
34584POPC   C4A60995   3.190  29.498   6.268  0.3478 -0.3184 -0.1327
34584POPC   C1B60996   2.944  30.789   6.904  0.2080  0.1587 -0.1831
34584POPC   C2B60997   3.136  31.011   6.549 -0.3148  0.0022  0.1490
34584POPC   C3B60998   3.427  30.887   6.231 -0.5840  0.2765 -0.0406
34584POPC   C4B60999   3.430  30.502   5.943 -0.0327 -0.1098 -0.0122
34585POPC   NC361000   1.808  19.876   9.249  0.0513 -0.1059 -0.2969
34585POPC   PO461001   1.847  20.188   9.456 -0.2008  0.1752  0.0200
34585POPC   GL161002   2.090  20.174   9.051  0.3172 -0.1544  0.0098
34585POPC   GL261003   2.377  20.273   9.167  0.0551  0.1620 -0.0020
34585POPC   C1A61004   1.932  19.905   8.670 -0.1055  0.0987  0.0541
34585POPC   D2A61005   1.899  20.109   8.270 -0.2675  0.1299 -0.2043
34585POPC   C3A61006   2.072  19.860   7.888 -0.0417  0.0201 -0.0850
34585POPC   C4A61007   2.331  19.971   7.498 -0.1862 -0.1440  0.1791
34585POPC   C1B61008   2.449  20.472   8.736 -0.2045  0.0950 -0.0572
34585POPC   C2B61009   2.380  20.407   8.280  0.0481  0.1241 -0.0719
34585POPC   C3B61010   2.070  20.395   7.924 -0.1109 -0.1360  0.1673
34585POPC   C4B61011   2.096  20.420   7.488  0.2255  0.0987  0.2352
34586POPC   NC361012  15.310  20.911  14.418 -0.1439  0.0899  0.2022
34586POPC   PO461013  15.165  20.580  14.553 -0.0399 -0.2885  0.2350
34586POPC   GL161014  14.968  20.275  14.797 -0.1004  0.2161 -0.2278
34586POPC   GL261015  15.229  20.211  14.968 -0.3234 -0.2129 -0.0310
34586POPC   C1A61016  14.613  20.205  15.105  0.0534  0.1237  0.3949
34586POPC   D2A61017  14.357  20.393  15.424  0.1230  0.1575  0.1991
34586POPC   C3A61018  13.946  20.397  15.240  0.1140  0.0489  0.1303
34586POPC   C4A61019  13.571  20.514  15.490  0.1143 -0.4959  0.0074
34586POPC   C1B61020  15.254  20.387  15.385 -0.1255  0.2708  0.0866
34586POPC   C2B61021  15.032  20.297  15.793  0.3171  0.0167  0.0075
34586POPC   C3B61022  14.777  20.252  16.146  0.0943  0.0318 -0.2138
34586POPC   C4B61023  14.511  20.025  16.336 -0.0123 -0.0089 -0.4196
34587POPC   NC361024   8.324  32.481   9.517  0.0743 -0.0969  0.1062
34587POPC   PO461025   8.173  32.589   9.160 -0.3598 -0.1260 -0.2106
34587POPC   GL161026   8.210  32.677   8.768  0.2652 -0.3398  0.2338
34587POPC   GL261027   7.951  32.548   8.658  0.0298  0.0676  0.0678
34587POPC   C1A61028   8.111  33.068   8.547  0.0957 -0.2965 -0.0828
34587POPC   D2A61029   8.158  33.106   8.093 -0.0123  0.2334  0.1152
34587POPC   C3A61030   8.535  33.291   7.906  0.1948 -0.1672 -0.0158
34587POPC   C4A61031   8.945  33.473   7.895 -0.1100  0.1038  0.0115
34587POPC   C1B61032   7.871  32.584   8.240  0.0397  0.0441  0.0403
34587POPC   C2B61033   7.847  32.725   7.791  0.1394  0.1381  0.3416
34587POPC   C3B61034   7.935  32.841   7.360 -0.1860 -0.1704  0.1814
34587POPC   C4B61035   8.058  33.005   6.944 -0.1213  0.0367 -0.0503
34588POPC   NC361036  11.223  31.035  16.018  0.0757  0.2540 -0.2037
34588POPC   PO461037  11.180  30.814  16.370  0.0442 -0.1792  0.4074
34588POPC   GL161038  11.072  30.736  16.729 -0.0681  0.4025  0.0260
34588POPC   GL261039  11.258  30.516  16.796 -0.2720 -0.0945 -0.0936
34588POPC   C1A61040  11.196  31.095  17.037  0.1447  0.0938 -0.1327
34588POPC   D2A61041  11.466  31.340  17.302  0.1067 -0.0332  0.0255
34588POPC   C3A61042  11.358  31.185  17.721 -0.4153  0.1282 -0.2268
34588POPC   C4A61043  11.371  31.212  18.171  0.0712  0.3182 -0.1485
34588POPC   C1B61044  11.150  30.644  17.245  0.3344  0.0468 -0.3291
34588POPC   C2B61045  10.886  30.918  17.550  0.0680  0.3123 -0.1546
34588POPC   C3B61046  10.490  31.172  17.675 -0.0720 -0.2281 -0.2613
34588POPC   C4B61047  10.207  31.434  17.923 -0.2136 -0.1062  0.1451
34589POPC   NC361048  14.113  25.894  11.801  0.2391 -0.0926  0.2087
34589POPC   PO461049  13.782  25.989  11.621  0.0419 -0.2628  0.2678
34589POPC   GL161050  13.484  25.719  11.545  0.1687 -0.1090 -0.2639
34589POPC   GL261051  13.194  25.767  11.433 -0.0151 -0.3035 -0.0156
34589POPC   C1A61052  13.362  25.303  11.420  0.2962  0.1148  0.2028
34589POPC   D2A61053  13.301  24.926  11.324  0.1478 -0.1469 -0.0724
34589POPC   C3A61054  12.859  24.771  11.250  0.0617 -0.1454 -0.0633
34589POPC   C4A61055  12.573  24.470  11.148 -0.2639 -0.1181  0.1838
34589POPC   C1B61056  12.964  25.551  11.107 -0.1045 -0.0875 -0.1985
34589POPC   C2B61057  12.653  25.360  10.785  0.1342 -0.2583 -0.0133
34589POPC   C3B61058  12.583  25.178  10.308  0.2067  0.4863  0.0681
34589POPC   C4B61059  12.645  24.712  10.115 -0.3870 -0.1553  0.1008
34590POPC   NC361060   9.972  30.651   8.959  0.1566  0.2336  0.1309
34590POPC   PO461061   9.994  30.380   8.687 -0.0877 -0.0579 -0.0189
34590POPC   GL161062  10.101  30.467   8.326  0.2970 -0.1825 -0.1871
34590POPC   GL261063   9.967  30.739   8.274 -0.2861 -0.2874  0.1190
34590POPC   C1A61064  10.292  30.102   8.094 -0.1130  0.0247  0.2071
34590POPC   D2A61065  10.209  29.652   8.000 -0.1397 -0.1100 -0.1912
34590POPC   C3A61066  10.315  29.776   7.552 -0.1622 -0.1714 -0.0696
34590POPC   C4A61067  10.195  30.050   7.208  0.1410 -0.0347 -0.3763
34590POPC   C1B61068   9.945  30.431   7.878  0.0263 -0.1648  0.0466
34590POPC   C2B61069   9.821  30.310   7.471 -0.1240 -0.0461 -0.2094
34590POPC   C3B61070   9.681  30.122   7.057  0.2169  0.0235  0.0711
34590POPC   C4B61071   9.868  29.814   6.746 -0.0015  0.1565 -0.0868
34591POPC   NC361072   3.661  19.987   9.737  0.1286  0.2304  0.1937
34591POPC   PO461073   3.921  19.770   9.880  0.0810 -0.1217 -0.0750
34591POPC   GL161074   3.969  19.732   9.486 -0.2354 -0.0868  0.1049
34591POPC   GL261075   4.237  19.938   9.355  0.0425  0.2304 -0.0231
34591POPC   C1A61076   3.980  19.619   9.057 -0.0948  0.1790  0.1176
34591POPC   D2A61077   4.053  19.421   8.708 -0.2805  0.1084 -0.1088
34591POPC   C3A61078   4.144  19.615   8.299  0.2981 -0.1559  0.1514
34591POPC   C4A61079   4.174  19.799   7.836 -0.0257 -0.0735  0.0435
34591POPC   C1B61080   4.284  20.153   8.898 -0.0549 -0.0246 -0.1247
34591POPC   C2B61081   4.563  20.322   8.570  0.2930 -0.1282 -0.1714
34591POPC   C3B61082   4.793  20.524   8.226 -0.1080 -0.1373  0.3158
34591POPC   C4B61083   4.976  20.356   7.843  0.2835  0.1933  0.2246
34592POPC   NC361084   5.431  30.836   8.858  0.0887 -0.1711  0.1804
34592POPC   PO461085   5.242  30.860   8.495  0.0397  0.1955  0.0973
34592POPC   GL161086   5.494  30.859   8.186  0.1510  0.0141  0.1480
34592POPC   GL261087   5.351  31.119   8.072  0.1247  0.1142 -0.0068
34592POPC   C1A61088   5.642  30.971   7.696 -0.4706  0.1580 -0.3086
34592POPC   D2A61089   5.728  31.314   7.371  0.0166  0.2340  0.2567
34592POPC   C3A61090   5.780  31.171   6.935  0.1524  0.2711 -0.1083
34592POPC   C4A61091   6.018  30.791   6.716 -0.1392 -0.0270 -0.2835
34592POPC   C1B61092   5.216  31.258   7.689  0.1092  0.1650 -0.2387
34592POPC   C2B61093   5.280  31.009   7.317  0.0217  0.1474  0.2481
34592POPC   C3B61094   5.384  30.847   6.878 -0.1328 -0.0352  0.1474
34592POPC   C4B61095   5.512  30.965   6.502 -0.1059  0.0511 -0.2069
34593POPC   NC361096  14.145  18.512   9.226  0.1834 -0.0165  0.0081
34593POPC   PO461097  13.936  18.861   9.242  0.0598  0.1271  0.0493
34593POPC   GL161098  13.823  18.930   8.865 -0.1803 -0.1075  0.1562
34593POPC   GL261099  13.956  18.714   8.724 -0.0577  0.0941 -0.3106
34593POPC   C1A61100  13.654  19.279   8.641 -0.0380  0.0473  0.2405
34593POPC   D2A61101  13.402  19.663   8.512  0.0160  0.1997 -0.1737
34593POPC   C3A61102  13.647  19.811   8.159 -0.0092 -0.2870 -0.0752
34593POPC   C4A61103  13.919  20.205   8.028 -0.0244  0.0101 -0.3604
34593POPC   C1B61104  13.763  18.685   8.333 -0.0188  0.2728 -0.0494
34593POPC   C2B61105  13.606  19.078   8.184 -0.2073 -0.2024 -0.2202
34593POPC   C3B61106  13.471  19.418   7.904 -0.1596 -0.2425 -0.0031
34593POPC   C4B61107  13.183  19.763   7.802 -0.2534 -0.1916 -0.0355
34594POPC   NC361108   6.508  17.782  10.216  0.4023 -0.1018  0.0654
34594POPC   PO461109   6.772  17.803   9.911 -0.0742  0.0074 -0.0093
34594POPC   GL161110   6.641  18.052   9.625 -0.0497 -0.1118 -0.1133
34594POPC   GL261111   6.400  18.138   9.654 -0.3893  0.0427  0.1612
34594POPC   C1A61112   6.673  18.483   9.451  0.0341 -0.0769  0.0525
34594POPC   D2A61113   6.833  18.887   9.290  0.1331 -0.2330  0.1790
34594POPC   C3A61114   7.109  19.016   8.932  0.1351 -0.0733  0.3912
34594POPC   C4A61115   7.594  19.194   8.927  0.2999  0.1876 -0.0269
34594POPC   C1B61116   6.227  18.325   9.288  0.3755  0.1193 -0.0009
34594POPC   C2B61117   6.075  18.394   8.861  0.0154  0.1249  0.1659
34594POPC   C3B61118   6.002  18.464   8.405  0.0080 -0.3497  0.1225
34594POPC   C4B61119   5.937  18.528   7.956  0.1293 -0.0548 -0.1573
34595POPC   NC361120   0.553  27.108   8.671 -0.1225  0.0631 -0.1485
34595POPC   PO461121   0.197  27.103   8.551  0.4380  0.4678 -0.1363
34595POPC   GL161122   0.314  27.172   8.216 -0.1815  0.0466 -0.0155
34595POPC   GL261123   0.529  27.459   8.117 -0.0262 -0.1638 -0.0718
34595POPC   C1A61124   0.224  27.016   7.808  0.2041 -0.4056 -0.0866
34595POPC   D2A61125   0.297  26.874   7.375  0.0665 -0.0692  0.3779
34595POPC   C3A61126   0.118  26.671   7.033  0.2814  0.3677 -0.1501
34595POPC   C4A61127   0.075  26.468   6.630  0.0263  0.2226  0.1669
34595POPC   C1B61128   0.540  27.475   7.682  0.0986 -0.1413  0.2036
34595POPC   C2B61129   0.271  27.408   7.338 -0.1508  0.2368  0.1354
34595POPC   C3B61130   0.177  27.202   6.964  0.0884 -0.1560  0.3578
34595POPC   C4B61131   0.046  26.969   6.644 -0.2872  0.0541 -0.1174
34596POPC   NC361132   5.533  21.237  11.886 -0.2562 -0.0505 -0.0515
34596POPC   PO461133   5.533  20.919  12.157 -0.3717 -0.1558 -0.0988
34596POPC   GL161134   5.907  21.133  12.175 -0.1791  0.0997  0.0525
34596POPC   GL261135   5.766  21.460  12.260 -0.0902 -0.2121 -0.0278
34596POPC   C1A61136   6.311  21.237  12.021  0.1804  0.2004  0.0835
34596POPC   D2A61137   6.687  21.515  11.969  0.4112 -0.2849  0.0244
34596POPC   C3A61138   7.073  21.418  11.883 -0.3098  0.0810  0.2600
34596POPC   C4A61139   7.488  21.201  11.922  0.1030  0.0045  0.2163
34596POPC   C1B61140   6.065  21.686  12.055  0.0539  0.2110 -0.2579
34596POPC   C2B61141   6.385  21.874  11.766  0.4407  0.2451 -0.3860
34596POPC   C3B61142   6.745  21.776  11.484 -0.0723 -0.0196  0.1633
34596POPC   C4B61143   7.151  21.628  11.397  0.1186 -0.4509 -0.0499
34597POPC   NC361144  15.104  20.491  14.064  0.1849  0.0761 -0.0398
34597POPC   PO461145  15.167  20.877  13.949  0.2439  0.0412  0.1638
34597POPC   GL161146  14.839  20.854  14.232  0.2216 -0.3416  0.0953
34597POPC   GL261147  14.708  20.980  14.072  0.0479  0.2444  0.0776
34597POPC   C1A61148  14.400  20.860  14.429  0.0774 -0.0165  0.2143
34597POPC   D2A61149  14.005  21.101  14.379 -0.0417  0.0415 -0.1613
34597POPC   C3A61150  13.628  20.891  14.637 -0.3505  0.2321 -0.5686
34597POPC   C4A61151  13.548  21.006  15.084  0.0797 -0.0499 -0.0628
34597POPC   C1B61152  14.282  20.834  13.912  0.2985 -0.1510 -0.0597
34597POPC   C2B61153  13.791  20.779  14.002  0.1652  0.1379 -0.2232
34597POPC   C3B61154  13.376  20.734  13.813  0.2905  0.0467 -0.3252
34597POPC   C4B61155  12.908  20.838  13.920 -0.2232 -0.1442  0.1221
34598POPC   NC361156   9.595  17.650  12.099  0.0308  0.0975  0.1913
34598POPC   PO461157   9.240  17.508  11.942  0.0642  0.0015 -0.0615
34598POPC   GL161158   9.244  17.869  11.911  0.2659  0.1296  0.1013
34598POPC   GL261159   9.267  17.935  11.612  0.1156 -0.0595 -0.1297
34598POPC   C1A61160   9.655  18.091  11.870  0.1247 -0.1991 -0.2314
34598POPC   D2A61161  10.049  18.365  11.968 -0.0391 -0.2063 -0.0153
34598POPC   C3A61162   9.935  18.839  12.107 -0.2063 -0.0478  0.0491
34598POPC   C4A61163   9.948  19.280  12.055 -0.0671 -0.2810 -0.0685
34598POPC   C1B61164   9.157  18.415  11.731 -0.0188  0.1006 -0.1907
34598POPC   C2B61165   9.316  18.811  11.532  0.2834  0.1227 -0.2040
34598POPC   C3B61166   9.573  19.067  11.224  0.1181  0.0100  0.0031
34598POPC   C4B61167   9.844  19.374  11.005  0.2179 -0.2620  0.2930
34599POPC   NC361168   1.986  24.349   9.301  0.2373 -0.0797 -0.2404
34599POPC   PO461169   1.667  24.184   9.173 -0.0583  0.0824 -0.0878
34599POPC   GL161170   1.537  24.258   8.785 -0.1432  0.0148  0.0082
34599POPC   GL261171   1.764  24.118   8.638 -0.0360  0.0044  0.0635
34599POPC   C1A61172   1.446  24.521   8.453 -0.0732 -0.0682  0.2308
34599POPC   D2A61173   1.670  24.798   8.151 -0.5627  0.1747  0.1230
34599POPC   C3A61174   1.490  25.106   7.875  0.1618 -0.0966 -0.0354
34599POPC   C4A61175   1.226  24.937   7.545  0.0836  0.2321 -0.1615
34599POPC   C1B61176   1.947  24.317   8.234 -0.1073  0.1350  0.4008
34599POPC   C2B61177   1.741  24.432   7.835 -0.0407  0.0027 -0.2706
34599POPC   C3B61178   1.622  24.717   7.553  0.2067 -0.0871  0.0986
34599POPC   C4B61179   1.460  24.819   7.139 -0.3878 -0.0319  0.1254
34600POPC   NC361180   0.434  16.225   8.247 -0.4802  0.0612 -0.1906
34600POPC   PO461181   0.120  16.387   8.371 -0.0494 -0.0234 -0.0473
34600POPC   GL161182   0.110  16.574   8.051  0.1070  0.1937 -0.2025
34600POPC   GL261183   0.349  16.551   7.867  0.0875  0.2043  0.0194
34600POPC   C1A61184  -0.081  16.474   7.640 -0.0764 -0.5151  0.1579
34600POPC   D2A61185  -0.455  16.373   7.447  0.0635  0.1605 -0.1336
34600POPC   C3A61186  -0.445  16.173   7.002  0.0432 -0.2252  0.1818
34600POPC   C4A61187  -0.509  15.933   6.617  0.0149 -0.1118  0.1010
34600POPC   C1B61188   0.382  16.651   7.403  0.3405 -0.1522 -0.0570
34600POPC   C2B61189   0.413  16.753   6.944 -0.0560 -0.0043 -0.0341
34600POPC   C3B61190   0.517  16.694   6.535 -0.0075 -0.1738 -0.0694
34600POPC   C4B61191   0.685  16.588   6.116  0.0585 -0.2407  0.1213
34601POPC   NC361192   1.205  18.445   8.826 -0.2486  0.0002 -0.2379
34601POPC   PO461193   0.963  18.339   8.527 -0.0430 -0.0406 -0.2983
34601POPC   GL161194   0.891  18.386   8.133 -0.4132  0.0912  0.1975
34601POPC   GL261195   0.917  18.100   7.928  0.0561  0.0217 -0.0389
34601POPC   C1A61196   1.066  18.562   7.765 -0.0707 -0.0592 -0.0978
34601POPC   D2A61197   1.247  18.551   7.338  0.5364 -0.2576 -0.0048
34601POPC   C3A61198   1.328  18.174   7.019  0.3701  0.1426  0.2423
34601POPC   C4A61199   1.401  18.188   6.503 -0.2151 -0.3245 -0.1000
34601POPC   C1B61200   1.135  18.107   7.525  0.1664  0.2507 -0.3667
34601POPC   C2B61201   1.108  17.763   7.210 -0.2239 -0.0315 -0.0152
34601POPC   C3B61202   1.369  17.662   6.830 -0.0231 -0.0716  0.2602
34601POPC   C4B61203   1.574  17.337   6.556 -0.0891 -0.0729  0.0743
34602POPC   NC361204   6.838   0.104   9.181 -0.1540  0.0662  0.1472
34602POPC   PO461205   6.608   0.382   9.358  0.1036 -0.1196  0.0286
34602POPC   GL161206   6.750   0.744   9.089 -0.1956  0.1656 -0.2272
34602POPC   GL261207   6.907   0.615   8.940  0.0448  0.0599  0.0309
34602POPC   C1A61208   6.561   0.955   8.737 -0.1997  0.1925 -0.1922
34602POPC   D2A61209   6.821   1.140   8.371  0.2729  0.0369  0.0216
34602POPC   C3A61210   6.688   0.941   7.981  0.3761  0.0042 -0.0296
34602POPC   C4A61211   6.714   0.805   7.550 -0.0877 -0.3372 -0.2266
34602POPC   C1B61212   6.724   0.569   8.447  0.0266 -0.1755 -0.0330
34602POPC   C2B61213   6.889   0.428   7.960 -0.0443  0.0774  0.1755
34602POPC   C3B61214   7.009   0.338   7.519 -0.1318 -0.3056 -0.1075
34602POPC   C4B61215   6.899   0.638   7.117 -0.1219  0.2741 -0.1675
34603POPC   NC361216   5.304  31.653   8.777 -0.0464  0.2707 -0.0091
34603POPC   PO461217   5.488  31.310   8.717 -0.0259 -0.0835 -0.1178
34603POPC   GL161218   5.639  31.453   8.370 -0.1265  0.2341  0.0143
34603POPC   GL261219   5.515  31.680   8.362  0.0184  0.0874  0.1023
34603POPC   C1A61220   5.642  31.472   7.914  0.2740  0.1637 -0.0139
34603POPC   D2A61221   5.456  31.665   7.569  0.0774 -0.0516 -0.1440
34603POPC   C3A61222   5.241  31.445   7.199  0.2892  0.0179  0.0122
34603POPC   C4A61223   5.194  31.250   6.780  0.0886  0.1769  0.3588
34603POPC   C1B61224   5.174  31.627   8.039  0.1348 -0.0940  0.0746
34603POPC   C2B61225   4.986  31.745   7.636  0.1669  0.0582 -0.0941
34603POPC   C3B61226   4.850  31.834   7.214 -0.2093  0.1462  0.0617
34603POPC   C4B61227   4.731  32.073   6.881  0.0121 -0.0834 -0.2311
34604POPC   NC361228  10.717  16.371   9.633  0.4584  0.0442  0.1972
34604POPC   PO461229  10.927  16.601   9.405 -0.3217 -0.1149 -0.2609
34604POPC   GL161230  10.834  16.701   9.039 -0.2425  0.1275  0.1962
34604POPC   GL261231  10.923  16.434   8.899  0.2705  0.1096 -0.2074
34604POPC   C1A61232  10.696  17.107   8.833 -0.0551  0.0608 -0.0491
34604POPC   D2A61233  10.831  17.307   8.433  0.0004 -0.0220 -0.0319
34604POPC   C3A61234  10.786  17.110   8.004  0.2745 -0.2598 -0.1772
34604POPC   C4A61235  10.774  16.935   7.524 -0.2370 -0.0495  0.2228
34604POPC   C1B61236  11.060  16.771   8.637 -0.3909 -0.0187  0.0519
34604POPC   C2B61237  11.111  16.763   8.143 -0.1446  0.1357 -0.0445
34604POPC   C3B61238  11.118  16.468   7.742 -0.0859  0.0655 -0.0612
34604POPC   C4B61239  11.133  16.527   7.282 -0.0793 -0.4148 -0.1223
34605POPC   NC361240  14.391  17.618   9.161 -0.1477 -0.2786 -0.2647
34605POPC   PO461241  14.238  17.819   8.870  0.0153  0.0747  0.2197
34605POPC   GL161242  14.092  17.918   8.479  0.4589  0.0318  0.0175
34605POPC   GL261243  13.849  18.143   8.463 -0.0113  0.4380 -0.3545
34605POPC   C1A61244  14.220  17.928   8.050  0.2344 -0.0659  0.0172
34605POPC   D2A61245  14.254  18.013   7.600  0.1962 -0.1700 -0.0151
34605POPC   C3A61246  14.403  18.433   7.556 -0.3667 -0.3350  0.1456
34605POPC   C4A61247  14.565  18.672   7.241 -0.0228 -0.2567 -0.3348
34605POPC   C1B61248  13.676  18.290   8.111  0.1609  0.1903  0.0000
34605POPC   C2B61249  13.498  18.604   7.860  0.0332 -0.2878 -0.0236
34605POPC   C3B61250  13.211  18.975   7.960 -0.1154  0.1733  0.1206
34605POPC   C4B61251  12.806  19.013   8.175 -0.1257 -0.1584  0.4270
34606POPC   NC361252  11.453  17.135  13.847 -0.0548  0.0938  0.0778
34606POPC   PO461253  11.463  17.103  13.452  0.2339  0.0877  0.1603
34606POPC   GL161254  11.502  17.499  13.561 -0.4063 -0.2057 -0.2520
34606POPC   GL261255  11.513  17.704  13.343  0.0008  0.0555 -0.1219
34606POPC   C1A61256  11.174  17.845  13.737 -0.1368  0.1123  0.1775
34606POPC   D2A61257  10.906  18.230  13.725 -0.0989 -0.0565  0.1877
34606POPC   C3A61258  10.932  18.598  13.986  0.2213  0.2408 -0.0976
34606POPC   C4A61259  10.653  18.932  14.095 -0.0769  0.1426  0.1949
34606POPC   C1B61260  11.361  18.124  13.317  0.2829 -0.1392 -0.1764
34606POPC   C2B61261  11.310  18.570  13.440  0.0482  0.2992 -0.2940
34606POPC   C3B61262  11.133  18.928  13.655  0.1085  0.2355  0.2269
34606POPC   C4B61263  11.042  19.368  13.776 -0.2893 -0.2115 -0.1999
34607POPC   NC361264   2.162  16.604   8.842 -0.1909  0.0614 -0.1311
34607POPC   PO461265   1.840  16.724   8.654 -0.1758  0.0289  0.4492
34607POPC   GL161266   1.770  16.654   8.308 -0.2738 -0.0062  0.2572
34607POPC   GL261267   2.098  16.700   8.228 -0.2214 -0.0290  0.3115
34607POPC   C1A61268   1.432  16.785   7.983 -0.0613 -0.2764 -0.2178
34607POPC   D2A61269   1.400  16.983   7.544 -0.2047 -0.3096 -0.3068
34607POPC   C3A61270   1.266  16.720   7.189  0.0753  0.2874 -0.3211
34607POPC   C4A61271   0.959  16.537   6.908  0.3581  0.2797 -0.0064
34607POPC   C1B61272   1.904  16.808   7.834 -0.0287 -0.1352  0.3396
34607POPC   C2B61273   1.814  16.826   7.375 -0.2229  0.0153 -0.0121
34607POPC   C3B61274   1.841  16.945   6.881  0.1839 -0.1267  0.0039
34607POPC   C4B61275   2.092  17.122   6.556 -0.2798  0.2999 -0.1253
34608POPC   NC361276   7.781  31.746   9.077  0.3355  0.1000 -0.1062
34608POPC   PO461277   7.686  31.467   8.861  0.1091  0.1114 -0.6438
34608POPC   GL161278   7.871  31.435   8.571 -0.0979 -0.0521 -0.1753
34608POPC   GL261279   8.053  31.573   8.389  0.2557 -0.1212 -0.2963
34608POPC   C1A61280   7.484  31.472   8.205  0.0940  0.1504 -0.0349
34608POPC   D2A61281   7.537  31.366   7.777  0.0353  0.0529  0.0226
34608POPC   C3A61282   7.807  31.288   7.398  0.0657  0.3243  0.0466
34608POPC   C4A61283   8.220  31.072   7.303 -0.1840 -0.0350 -0.2011
34608POPC   C1B61284   7.896  31.700   7.960  0.0174 -0.2572  0.0748
34608POPC   C2B61285   7.716  31.788   7.514  0.0007  0.3400  0.1081
34608POPC   C3B61286   7.509  31.670   7.158  0.2254 -0.2053  0.2238
34608POPC   C4B61287   7.533  31.519   6.721 -0.0151  0.2071  0.0470
34609POPC   NC361288   0.523  18.182   8.344 -0.0473 -0.3128 -0.1971
34609POPC   PO461289   0.323  18.356   8.661  0.1564 -0.2068  0.0674
34609POPC   GL161290   0.070  18.550   8.420 -0.3272 -0.2594 -0.1696
34609POPC   GL261291  -0.181  18.469   8.373 -0.1553  0.0376  0.1161
34609POPC   C1A61292   0.083  18.692   7.993 -0.0307 -0.1067  0.0672
34609POPC   D2A61293  -0.002  18.950   7.633 -0.0048 -0.1023  0.0096
34609POPC   C3A61294  -0.157  18.829   7.206  0.4772 -0.2706 -0.0412
34609POPC   C4A61295  -0.210  18.385   6.982  0.0143 -0.1578  0.1134
34609POPC   C1B61296  -0.326  18.380   8.000  0.0910 -0.1550  0.2574
34609POPC   C2B61297  -0.419  18.438   7.500  0.1209 -0.1036 -0.0814
34609POPC   C3B61298  -0.682  18.716   7.242 -0.1728  0.0265  0.3059
34609POPC   C4B61299  -0.550  18.872   6.802  0.1263  0.1506  0.0877
34610POPC   NC361300   8.501  30.821   8.857 -0.0106  0.0232 -0.1064
34610POPC   PO461301   8.895  30.797   8.809  0.4287 -0.0215 -0.0562
34610POPC   GL161302   8.928  30.881   8.481 -0.0573  0.0006  0.0344
34610POPC   GL261303   8.696  30.822   8.308  0.0036 -0.1607  0.0119
34610POPC   C1A61304   9.139  31.221   8.268 -0.1145 -0.0145 -0.1305
34610POPC   D2A61305   9.373  31.252   7.861 -0.0522 -0.1130  0.0281
34610POPC   C3A61306   9.233  31.292   7.484  0.3940 -0.1802  0.1709
34610POPC   C4A61307   9.085  31.158   7.021 -0.1299  0.0874  0.1143
34610POPC   C1B61308   8.989  30.845   7.940  0.0029 -0.0078 -0.3034
34610POPC   C2B61309   9.236  30.803   7.578  0.1639  0.0872  0.1721
34610POPC   C3B61310   9.583  30.800   7.220 -0.1650  0.0467 -0.1401
34610POPC   C4B61311   9.865  30.682   6.834  0.1968 -0.0540  0.0799
34611POPC   NC361312   1.298  29.062   7.919  0.1062 -0.0728 -0.3691
34611POPC   PO461313   1.325  29.422   7.736 -0.2874  0.0107 -0.2325
34611POPC   GL161314   1.281  29.205   7.509 -0.1604  0.4811  0.2720
34611POPC   GL261315   0.977  29.220   7.358  0.2766  0.3343 -0.0956
34611POPC   C1A61316   1.408  29.030   7.097  0.3154  0.0152 -0.2239
34611POPC   D2A61317   1.556  28.952   6.675  0.1561 -0.1555 -0.1975
34611POPC   C3A61318   1.508  28.537   6.529 -0.0036  0.0202  0.0646
34611POPC   C4A61319   1.534  28.232   6.195  0.0298  0.1214 -0.0674
34611POPC   C1B61320   0.667  29.163   7.021  0.1140 -0.1694  0.0117
34611POPC   C2B61321   0.700  29.139   6.536  0.0336  0.1235 -0.0635
34611POPC   C3B61322   0.817  29.208   6.113  0.2275  0.0054 -0.2052
34611POPC   C4B61323   1.079  29.502   5.912  0.2495 -0.3352 -0.0055
34612POPC   NC361324  14.526  30.167   8.215 -0.0210  0.0298  0.1212
34612POPC   PO461325  14.703  30.512   8.300 -0.1298  0.1483 -0.1223
34612POPC   GL161326  14.825  30.479   7.877  0.1805 -0.3797  0.3974
34612POPC   GL261327  14.699  30.710   7.766 -0.2162  0.1559 -0.1541
34612POPC   C1A61328  14.756  30.302   7.463 -0.2124  0.0530 -0.0163
34612POPC   D2A61329  14.663  30.347   6.950  0.0278  0.2099 -0.0760
34612POPC   C3A61330  14.267  30.188   6.717 -0.2373 -0.1180  0.1486
34612POPC   C4A61331  14.199  30.270   6.262 -0.1601  0.0010 -0.2510
34612POPC   C1B61332  14.906  30.974   7.398  0.3811 -0.0390 -0.0025
34612POPC   C2B61333  14.821  31.224   7.056 -0.0426  0.1706  0.1839
34612POPC   C3B61334  14.797  31.634   6.806  0.1869  0.0122 -0.0525
34612POPC   C4B61335  14.906  31.827   6.386 -0.0441 -0.4464  0.0789
34613POPC   NC361336   8.873  32.143   8.972 -0.2328 -0.4062 -0.0089
34613POPC   PO461337   8.590  32.232   9.206 -0.0292  0.1415 -0.1004
34613POPC   GL161338   8.602  32.511   8.792  0.1857  0.0674  0.3567
34613POPC   GL261339   8.865  32.608   8.732 -0.2226  0.2891  0.2330
34613POPC   C1A61340   8.381  32.528   8.359  0.0799 -0.0250 -0.1541
34613POPC   D2A61341   8.447  32.702   7.904 -0.1920  0.2475 -0.0506
34613POPC   C3A61342   8.262  32.501   7.518  0.2204 -0.0571 -0.2293
34613POPC   C4A61343   8.270  32.518   7.118  0.2206 -0.1279  0.1585
34613POPC   C1B61344   8.729  32.855   8.357 -0.3063  0.1495 -0.0974
34613POPC   C2B61345   8.888  32.959   7.880 -0.2112 -0.0898 -0.0692
34613POPC   C3B61346   9.082  33.056   7.474 -0.0784  0.0792 -0.0257
34613POPC   C4B61347   9.074  33.000   7.008 -0.1251 -0.2017 -0.0990
34614POPC   NC361348   6.477  19.221  10.998 -0.3303 -0.1587  0.1711
34614POPC   PO461349   6.251  19.183  10.642 -0.2074 -0.2687  0.1350
34614POPC   GL161350   6.598  19.272  10.411 -0.2819 -0.0297 -0.1862
34614POPC   GL261351   6.566  19.075  10.197  0.1664 -0.1945  0.3870
34614POPC   C1A61352   6.787  19.592  10.049 -0.0361 -0.0015 -0.0006
34614POPC   D2A61353   6.944  19.952   9.888  0.2266 -0.0268 -0.2562
34614POPC   C3A61354   7.027  20.171   9.458 -0.2683  0.0488  0.1874
34614POPC   C4A61355   6.858  20.493   9.105  0.1872 -0.1907 -0.0221
34614POPC   C1B61356   6.555  19.211   9.745 -0.3222 -0.1646  0.2104
34614POPC   C2B61357   6.637  19.334   9.291  0.1230 -0.2353 -0.0570
34614POPC   C3B61358   6.939  19.452   9.046  0.1615 -0.1292  0.1519
34614POPC   C4B61359   7.295  19.552   8.770 -0.1442 -0.0392  0.2842
34615POPC   NC361360   3.778  23.194   9.649  0.0430 -0.0432 -0.4142
34615POPC   PO461361   4.047  22.974   9.919 -0.0232  0.2467 -0.0652
34615POPC   GL161362   4.282  23.123   9.635  0.1351 -0.1059 -0.2968
34615POPC   GL261363   4.220  22.952   9.476 -0.2218  0.1020 -0.2262
34615POPC   C1A61364   4.127  23.480   9.393 -0.2451 -0.2505 -0.3122
34615POPC   D2A61365   3.922  23.856   9.191  0.1076  0.1509 -0.7560
34615POPC   C3A61366   4.164  23.887   8.796 -0.0726  0.0744  0.1157
34615POPC   C4A61367   4.400  23.656   8.506 -0.0153  0.2591  0.1566
34615POPC   C1B61368   4.133  23.051   9.076  0.0956 -0.3134 -0.0268
34615POPC   C2B61369   4.164  23.202   8.679  0.1336  0.3321  0.2497
34615POPC   C3B61370   4.232  23.299   8.187 -0.0204  0.1015  0.0273
34615POPC   C4B61371   4.155  23.375   7.771  0.0142 -0.1142 -0.0093
34616POPC   NC361372   3.712  29.566   8.935  0.1456  0.1046 -0.2162
34616POPC   PO461373   3.761  29.826   8.660 -0.0106  0.0676 -0.1423
34616POPC   GL161374   3.705  29.919   8.309  0.1729  0.1843  0.0046
34616POPC   GL261375   3.452  29.973   8.244 -0.0081 -0.1448  0.2785
34616POPC   C1A61376   3.753  30.354   8.169 -0.4457  0.1519 -0.3432
34616POPC   D2A61377   4.030  30.631   8.018  0.1922 -0.0854  0.1384
34616POPC   C3A61378   3.987  30.738   7.559 -0.1079  0.0748 -0.0773
34616POPC   C4A61379   3.891  30.722   7.111 -0.0181 -0.1686 -0.3425
34616POPC   C1B61380   3.408  30.117   7.812 -0.0908  0.0543 -0.0310
34616POPC   C2B61381   3.708  30.315   7.475 -0.2445  0.1061 -0.3761
34616POPC   C3B61382   3.976  30.159   7.157 -0.2646  0.1170  0.0485
34616POPC   C4B61383   4.241  30.012   6.753  0.2228  0.1981 -0.1185
34617POPC   NC361384  15.241  27.746   9.016 -0.1065 -0.4112 -0.0310
34617POPC   PO461385  15.284  27.542   8.662 -0.4754  0.0737 -0.3712
34617POPC   GL161386  15.279  27.676   8.290 -0.0963 -0.0031 -0.4603
34617POPC   GL261387  14.989  27.658   8.183  0.0937  0.1495 -0.2297
34617POPC   C1A61388  15.362  27.427   7.892 -0.0846 -0.3211 -0.0329
34617POPC   D2A61389  15.271  27.414   7.410 -0.2381 -0.2320  0.2953
34617POPC   C3A61390  15.110  27.196   7.096 -0.0075 -0.1132  0.1027
34617POPC   C4A61391  14.901  27.047   6.711  0.0726 -0.1641 -0.3231
34617POPC   C1B61392  14.822  27.565   7.715  0.1179 -0.3190 -0.3597
34617POPC   C2B61393  14.671  27.260   7.405  0.0492 -0.1660  0.1378
34617POPC   C3B61394  14.565  26.943   7.086 -0.2419 -0.2074 -0.1082
34617POPC   C4B61395  14.364  26.534   6.924 -0.1975 -0.0295 -0.0307
34618POPC   NC361396   3.744  16.478   9.310  0.0884  0.0248  0.1144
34618POPC   PO461397   4.051  16.423   9.082  0.1166  0.0333 -0.0072
34618POPC   GL161398   4.205  16.361   8.638  0.6025  0.2522 -0.3601
34618POPC   GL261399   4.171  16.163   8.462  0.1022  0.1109  0.3761
34618POPC   C1A61400   4.536  16.632   8.440  0.4058 -0.0669 -0.1309
34618POPC   D2A61401   4.722  16.676   8.022 -0.2390 -0.0452 -0.0285
34618POPC   C3A61402   4.575  16.963   7.679 -0.0694 -0.1434  0.3231
34618POPC   C4A61403   4.598  17.164   7.251 -0.2498 -0.0832 -0.1570
34618POPC   C1B61404   4.324  16.343   8.102  0.2139  0.4249 -0.3063
34618POPC   C2B61405   4.314  16.565   7.759  0.1480  0.2087  0.1819
34618POPC   C3B61406   4.494  16.664   7.300 -0.0072 -0.2463 -0.2453
34618POPC   C4B61407   4.794  16.796   6.972  0.1324 -0.0911 -0.1731
34619POPC   NC361408   5.203  20.577  11.889 -0.1362 -0.0676  0.0368
34619POPC   PO461409   5.362  20.842  11.625 -0.3145 -0.1394 -0.1017
34619POPC   GL161410   5.740  20.847  11.490  0.0311 -0.3860  0.0222
34619POPC   GL261411   5.898  21.070  11.635  0.0411  0.0332 -0.0552
34619POPC   C1A61412   6.018  21.016  11.116 -0.0379 -0.2580 -0.4000
34619POPC   D2A61413   6.287  20.948  10.805 -0.0570 -0.2419  0.0090
34619POPC   C3A61414   6.499  21.402  10.776  0.0024  0.1457  0.0670
34619POPC   C4A61415   6.655  21.766  10.971  0.0847  0.2081  0.0830
34619POPC   C1B61416   6.336  21.026  11.555 -0.1732  0.2112 -0.0914
34619POPC   C2B61417   6.727  21.248  11.512  0.0565 -0.4954 -0.0227
34619POPC   C3B61418   7.146  21.153  11.411 -0.0359  0.3712  0.0751
34619POPC   C4B61419   7.339  20.749  11.520  0.0939 -0.4418  0.3093
34620POPC   NC361420  16.194  26.388   9.015  0.0846  0.0398  0.2416
34620POPC   PO461421  15.880  26.107   8.969  0.1570  0.0369 -0.0606
34620POPC   GL161422  15.972  26.169   8.618  0.1411 -0.1614 -0.2238
34620POPC   GL261423  16.230  26.162   8.578 -0.1554 -0.1763 -0.0337
34620POPC   C1A61424  15.905  25.982   8.164 -0.0559  0.1366 -0.2959
34620POPC   D2A61425  15.581  25.973   7.844  0.2016 -0.0320 -0.0322
34620POPC   C3A61426  15.084  25.982   7.876  0.1335 -0.0184  0.1455
34620POPC   C4A61427  14.833  26.198   8.202 -0.0011 -0.1439 -0.2503
34620POPC   C1B61428  16.410  26.045   8.244  0.0297 -0.2475  0.0565
34620POPC   C2B61429  16.252  26.009   7.829 -0.1640 -0.3860  0.0424
34620POPC   C3B61430  15.955  25.796   7.492  0.0701  0.0326  0.1513
34620POPC   C4B61431  15.566  25.728   7.272  0.0047 -0.0566 -0.0765
34621POPC   NC361432   7.623  27.509  10.270 -0.0466  0.1838 -0.1772
34621POPC   PO461433   7.415  27.744  10.046 -0.1457  0.3844 -0.0829
34621POPC   GL161434   7.258  27.450   9.857 -0.1026  0.1270 -0.2752
34621POPC   GL261435   7.411  27.350   9.644  0.0197 -0.0609  0.3075
34621POPC   C1A61436   7.337  26.972   9.890  0.0576  0.0947  0.3181
34621POPC   D2A61437   7.246  26.828   9.434  0.2936 -0.1813 -0.1274
34621POPC   C3A61438   7.562  26.701   9.119  0.0102  0.4676  0.1035
34621POPC   C4A61439   7.866  26.534   8.822 -0.2794  0.0116 -0.2802
34621POPC   C1B61440   7.631  27.092   9.397  0.1446  0.0794  0.0163
34621POPC   C2B61441   7.990  26.883   9.170 -0.0550 -0.1227  0.0343
34621POPC   C3B61442   8.327  26.629   8.955 -0.0590 -0.2987  0.0524
34621POPC   C4B61443   8.748  26.359   9.023 -0.1052 -0.1351  0.0996
34622POPC   NC361444  15.752  24.891  10.341  0.1121  0.0341  0.4353
34622POPC   PO461445  15.742  24.536  10.114  0.2794 -0.1234 -0.1757
34622POPC   GL161446  15.639  24.392   9.684  0.0032  0.2893  0.0344
34622POPC   GL261447  15.453  24.495   9.458  0.0128  0.0323  0.1533
34622POPC   C1A61448  15.902  24.088   9.463  0.2996  0.1504 -0.2860
34622POPC   D2A61449  16.135  23.848   9.123 -0.2214 -0.1632 -0.3007
34622POPC   C3A61450  15.776  23.585   8.933  0.0603 -0.2169 -0.3028
34622POPC   C4A61451  15.399  23.576   8.651  0.0794  0.0888 -0.1338
34622POPC   C1B61452  15.069  24.291   9.234  0.3145 -0.2907  0.0094
34622POPC   C2B61453  14.689  24.521   8.995 -0.4271 -0.3197  0.0561
34622POPC   C3B61454  14.400  24.876   8.790  0.4983  0.0728 -0.1909
34622POPC   C4B61455  13.987  24.860   8.672 -0.0352  0.2074  0.0315
34623POPC   NC361456  12.668  17.617  13.052 -0.1630  0.1241 -0.1157
34623POPC   PO461457  12.431  17.785  12.792 -0.0680 -0.0434 -0.2762
34623POPC   GL161458  12.241  18.142  12.591  0.0825 -0.0848 -0.0234
34623POPC   GL261459  12.108  18.223  12.326  0.1633  0.2591  0.2303
34623POPC   C1A61460  12.285  18.591  12.731 -0.3053 -0.0376 -0.2135
34623POPC   D2A61461  12.069  18.966  12.530 -0.2432 -0.0267 -0.1696
34623POPC   C3A61462  12.228  19.405  12.654 -0.2012  0.0628 -0.1515
34623POPC   C4A61463  12.070  19.535  13.043  0.0066  0.1841 -0.3509
34623POPC   C1B61464  11.710  18.450  12.492 -0.1078 -0.3328  0.2027
34623POPC   C2B61465  11.463  18.814  12.476  0.2459  0.0403  0.1406
34623POPC   C3B61466  11.264  19.226  12.363 -0.0508 -0.0440  0.0241
34623POPC   C4B61467  11.129  19.671  12.488  0.0874  0.0420  0.0566
34624POPC   NC361468  15.680  20.129   8.926  0.0451  0.0102  0.1600
34624POPC   PO461469  15.329  20.138   9.165 -0.2135 -0.5455 -0.0189
34624POPC   GL161470  15.373  20.509   8.982 -0.1202 -0.1739 -0.0769
34624POPC   GL261471  15.544  20.546   8.732  0.1243 -0.1179  0.0562
34624POPC   C1A61472  15.047  20.736   8.728  0.4831  0.1575  0.0408
34624POPC   D2A61473  14.969  20.909   8.290  0.0327  0.1363  0.3241
34624POPC   C3A61474  14.744  20.888   7.916  0.0169 -0.0878 -0.1236
34624POPC   C4A61475  14.418  21.049   7.616 -0.3183 -0.1236  0.0539
34624POPC   C1B61476  15.452  20.740   8.303 -0.0052  0.4961 -0.0967
34624POPC   C2B61477  15.249  20.785   7.882  0.0741  0.1702  0.0638
34624POPC   C3B61478  15.041  20.919   7.498 -0.2624  0.1436  0.1205
34624POPC   C4B61479  15.038  20.676   7.078 -0.1415  0.1715  0.1126
34625POPC   NC361480   5.647  30.508   8.578  0.5065 -0.2008 -0.1068
34625POPC   PO461481   5.704  30.111   8.643 -0.2122 -0.0521  0.0814
34625POPC   GL161482   5.721  30.212   8.228  0.0248 -0.2197 -0.2472
34625POPC   GL261483   5.653  29.906   8.141 -0.1957  0.0199 -0.1762
34625POPC   C1A61484   5.489  30.446   7.894 -0.0718 -0.0351 -0.0779
34625POPC   D2A61485   5.242  30.635   7.592  0.0248 -0.0250 -0.0645
34625POPC   C3A61486   5.600  30.654   7.297  0.3141 -0.0998  0.2942
34625POPC   C4A61487   6.046  30.762   7.331 -0.0403  0.0839 -0.0938
34625POPC   C1B61488   5.351  29.972   7.811  0.3308  0.0309 -0.0004
34625POPC   C2B61489   5.467  30.176   7.398 -0.0786  0.1186 -0.2199
34625POPC   C3B61490   5.496  30.119   6.985  0.1052 -0.2698  0.0160
34625POPC   C4B61491   5.638  29.917   6.599 -0.2792 -0.1292 -0.1527
34626POPC   NC361492  15.636  28.864   8.265  0.0307 -0.0667  0.1257
34626POPC   PO461493  15.724  28.575   8.518  0.2288 -0.0402 -0.0426
34626POPC   GL161494  15.662  28.236   8.393  0.0545  0.0562 -0.2328
34626POPC   GL261495  15.915  27.989   8.354  0.2449  0.3883 -0.3808
34626POPC   C1A61496  15.537  27.946   8.051 -0.1462 -0.1392  0.0526
34626POPC   D2A61497  15.727  27.741   7.660  0.1110  0.0378  0.1828
34626POPC   C3A61498  15.684  27.709   7.203 -0.1528 -0.0592  0.1627
34626POPC   C4A61499  15.567  27.584   6.826 -0.0172 -0.0691 -0.2116
34626POPC   C1B61500  16.131  27.951   7.972 -0.2206 -0.3426  0.1920
34626POPC   C2B61501  16.235  27.791   7.561 -0.1883 -0.0367  0.0412
34626POPC   C3B61502  16.078  27.951   7.125 -0.0575  0.0707 -0.2027
34626POPC   C4B61503  15.942  27.971   6.688 -0.1385 -0.1359 -0.1175
34627POPC   NC361504  14.205  28.916   8.255 -0.1575 -0.1288  0.1174
34627POPC   PO461505  13.857  29.032   8.466  0.1452  0.4944  0.2448
34627POPC   GL161506  13.715  29.154   8.125 -0.2162 -0.1816 -0.3252
34627POPC   GL261507  13.859  29.059   7.917 -0.0446  0.2355 -0.3068
34627POPC   C1A61508  13.469  29.450   7.901  0.3231  0.0360  0.1826
34627POPC   D2A61509  13.057  29.601   7.661 -0.2594  0.4230  0.0857
34627POPC   C3A61510  13.007  29.562   7.188 -0.1278 -0.2682  0.2402
34627POPC   C4A61511  13.125  29.514   6.747  0.1899 -0.1160 -0.1762
34627POPC   C1B61512  13.703  28.942   7.497  0.2635  0.2832 -0.0827
34627POPC   C2B61513  13.911  28.731   7.134  0.1753 -0.1096 -0.0822
34627POPC   C3B61514  14.048  28.565   6.758 -0.1349 -0.2190 -0.0682
34627POPC   C4B61515  14.267  28.290   6.518 -0.2399 -0.2358  0.0587
34628POPC   NC361516  14.002  25.527  11.538 -0.1918  0.0004  0.2844
34628POPC   PO461517  14.204  25.169  11.605 -0.0603 -0.4248 -0.2118
34628POPC   GL161518  13.976  24.911  11.776 -0.2360 -0.0135 -0.0128
34628POPC   GL261519  13.712  24.974  11.663 -0.1113  0.0553  0.0938
34628POPC   C1A61520  13.827  24.451  11.784 -0.1357 -0.2185 -0.0057
34628POPC   D2A61521  13.517  24.203  11.669  0.1967 -0.1626  0.5168
34628POPC   C3A61522  13.562  23.798  11.570  0.0665 -0.3747  0.0534
34628POPC   C4A61523  13.459  23.418  11.278  0.0907 -0.0147  0.0259
34628POPC   C1B61524  13.303  24.890  11.852  0.0188  0.0994  0.0359
34628POPC   C2B61525  13.141  24.484  11.644  0.0494 -0.0622 -0.1703
34628POPC   C3B61526  13.038  24.056  11.495 -0.4693  0.3860  0.0388
34628POPC   C4B61527  12.635  23.976  11.323  0.1352  0.1873 -0.3026
34629POPC   NC361528  16.266  22.258   8.991  0.1636  0.1752  0.0701
34629POPC   PO461529  16.397  22.008   9.294  0.0128 -0.1442 -0.1768
34629POPC   GL161530  16.611  21.975   9.031  0.0990 -0.1322 -0.0919
34629POPC   GL261531  16.631  21.669   8.938  0.2830 -0.2269 -0.1462
34629POPC   C1A61532  16.425  22.027   8.595  0.0736  0.1710  0.3479
34629POPC   D2A61533  16.407  22.137   8.127  0.2062 -0.0672 -0.0262
34629POPC   C3A61534  16.195  21.944   7.780 -0.0997  0.1115  0.0048
34629POPC   C4A61535  16.089  21.887   7.363 -0.1341  0.2994 -0.0099
34629POPC   C1B61536  16.428  21.490   8.580  0.3475  0.0583  0.1397
34629POPC   C2B61537  16.187  21.710   8.232  0.1317  0.0559 -0.2027
34629POPC   C3B61538  15.757  21.848   8.076 -0.0717  0.0144 -0.1424
34629POPC   C4B61539  15.757  22.045   7.666  0.1059  0.1443 -0.3999
34630POPC   NC361540   6.099  19.332  13.593 -0.0838 -0.2339  0.0340
34630POPC   PO461541   5.862  19.581  13.797  0.0257  0.2239 -0.1493
34630POPC   GL161542   5.988  19.706  14.178 -0.0129 -0.5410  0.0424
34630POPC   GL261543   5.941  20.046  14.101  0.4860 -0.1198 -0.2947
34630POPC   C1A61544   6.269  19.860  14.517  0.1483  0.0343  0.2779
34630POPC   D2A61545   6.472  19.863  14.931 -0.2310  0.2263  0.1064
34630POPC   C3A61546   6.926  19.900  15.054 -0.1147  0.1264  0.0746
34630POPC   C4A61547   7.266  20.080  15.350 -0.2565  0.4574  0.1011
34630POPC   C1B61548   5.784  19.837  14.542  0.1423 -0.0827 -0.0043
34630POPC   C2B61549   5.886  19.873  15.002 -0.1271  0.2056 -0.1079
34630POPC   C3B61550   6.044  19.824  15.403 -0.0728 -0.0068  0.1644
34630POPC   C4B61551   6.240  19.940  15.814 -0.1128 -0.0097  0.1391
34631POPC   NC361552   1.166  24.168   9.178 -0.0978  0.0248  0.0304
34631POPC   PO461553   0.912  24.383   8.968 -0.1126 -0.0435 -0.1739
34631POPC   GL161554   1.100  24.232   8.668 -0.0833 -0.4721 -0.0134
34631POPC   GL261555   0.934  24.263   8.438 -0.0092 -0.0933  0.0467
34631POPC   C1A61556   1.341  23.933   8.393  0.2483 -0.0036 -0.1342
34631POPC   D2A61557   1.580  24.026   8.012 -0.4554 -0.1202 -0.1147
34631POPC   C3A61558   1.412  24.151   7.577  0.3767  0.1705 -0.1094
34631POPC   C4A61559   1.181  24.426   7.330  0.1638  0.0535  0.0629
34631POPC   C1B61560   0.728  24.594   8.171 -0.0538  0.4169  0.0160
34631POPC   C2B61561   0.412  24.640   7.811  0.0606  0.2971 -0.1864
34631POPC   C3B61562   0.236  24.631   7.397 -0.2637  0.0590 -0.5697
34631POPC   C4B61563   0.142  24.702   6.929  0.0531  0.0192 -0.0696
34632POPC   NC361564   3.240  31.037   8.557 -0.2869 -0.2231  0.0376
34632POPC   PO461565   3.150  31.102   8.172 -0.4798  0.1895  0.2316
34632POPC   GL161566   3.227  31.019   7.826 -0.0403  0.0486 -0.0460
34632POPC   GL261567   3.186  31.246   7.658 -0.0801  0.0328  0.0722
34632POPC   C1A61568   3.631  31.095   7.512 -0.0400 -0.2217 -0.2414
34632POPC   D2A61569   3.798  31.290   7.088  0.0176 -0.0540  0.0924
34632POPC   C3A61570   3.937  31.081   6.716  0.0578 -0.2232  0.0526
34632POPC   C4A61571   4.020  31.088   6.289  0.0330 -0.0776 -0.1045
34632POPC   C1B61572   3.290  31.280   7.180 -0.0837  0.0455  0.0615
34632POPC   C2B61573   3.442  30.967   6.847 -0.2216  0.0435 -0.0535
34632POPC   C3B61574   3.670  30.666   6.577  0.1488  0.1189  0.0117
34632POPC   C4B61575   3.689  30.229   6.689 -0.0651 -0.2292 -0.0243
34633POPC   NC361576  14.100  25.032   9.859 -0.1711 -0.4553  0.0563
34633POPC   PO461577  14.164  25.073  10.237 -0.4510 -0.0048  0.0313
34633POPC   GL161578  14.008  24.627  10.058 -0.0010 -0.0852 -0.2701
34633POPC   GL261579  14.336  24.586   9.907 -0.0573 -0.2071 -0.1298
34633POPC   C1A61580  13.568  24.675   9.924  0.1045  0.0541  0.4298
34633POPC   D2A61581  13.443  24.407   9.585 -0.1160  0.1023 -0.1285
34633POPC   C3A61582  13.105  24.118   9.518  0.1535 -0.0575  0.1295
34633POPC   C4A61583  12.699  23.942   9.704  0.1943 -0.0552  0.1415
34633POPC   C1B61584  13.986  24.565   9.574  0.0750 -0.0636  0.1382
34633POPC   C2B61585  13.697  24.386   9.173 -0.0322 -0.2436 -0.3953
34633POPC   C3B61586  13.628  24.287   8.695 -0.1925 -0.1100  0.2867
34633POPC   C4B61587  13.760  24.244   8.276 -0.0641 -0.0692  0.0128
34634POPC   NC361588   2.037  27.596   8.455 -0.0957 -0.0526 -0.0743
34634POPC   PO461589   1.753  27.808   8.277 -0.1417 -0.0615 -0.3338
34634POPC   GL161590   1.885  27.655   7.982 -0.3608 -0.0944  0.4414
34634POPC   GL261591   2.183  27.558   7.979  0.0720 -0.2473 -0.0935
34634POPC   C1A61592   1.912  27.402   7.582  0.3856  0.1517  0.0300
34634POPC   D2A61593   1.859  27.062   7.280  0.0630 -0.1067 -0.3718
34634POPC   C3A61594   2.088  26.906   6.923 -0.1349 -0.1363 -0.1336
34634POPC   C4A61595   2.443  26.602   6.659  0.0780 -0.4029  0.4384
34634POPC   C1B61596   2.461  27.619   7.609 -0.1210 -0.1165  0.1154
34634POPC   C2B61597   2.603  27.696   7.167  0.0434  0.0726 -0.3021
34634POPC   C3B61598   2.835  27.635   6.767 -0.6030 -0.1265 -0.2307
34634POPC   C4B61599   2.657  27.630   6.349  0.0803 -0.1227 -0.2159
34635POPC   NC361600  15.324  29.668   8.122  0.0416  0.0588  0.1033
34635POPC   PO461601  15.229  29.384   8.312  0.1727  0.0906  0.1792
34635POPC   GL161602  15.356  29.116   7.975  0.0726  0.1451  0.1716
34635POPC   GL261603  15.296  28.861   7.961  0.2644  0.1205  0.1795
34635POPC   C1A61604  15.070  29.046   7.576  0.1358 -0.1982  0.0956
34635POPC   D2A61605  14.887  28.845   7.226  0.1501 -0.1739  0.1788
34635POPC   C3A61606  15.011  28.824   6.815  0.1275  0.2385  0.1250
34635POPC   C4A61607  15.206  28.517   6.517 -0.1857 -0.0279  0.0946
34635POPC   C1B61608  15.599  28.980   7.673 -0.2570 -0.3749 -0.0762
34635POPC   C2B61609  15.850  28.660   7.384 -0.3122 -0.0874  0.0121
34635POPC   C3B61610  16.014  28.507   6.999 -0.2821 -0.0896  0.2430
34635POPC   C4B61611  15.847  28.442   6.561 -0.1048  0.1074 -0.2770
34636POPC   NC361612  16.318  23.836   9.866 -0.0811 -0.0407  0.1978
34636POPC   PO461613  16.288  23.461   9.928  0.0409  0.2130 -0.1476
34636POPC   GL161614  16.136  23.543   9.516  0.0595  0.1894  0.0880
34636POPC   GL261615  15.858  23.408   9.480  0.0870 -0.1160 -0.0698
34636POPC   C1A61616  16.245  23.375   9.138 -0.2272 -0.0357 -0.0522
34636POPC   D2A61617  16.363  23.362   8.737 -0.2374 -0.0204 -0.0387
34636POPC   C3A61618  16.260  23.463   8.293 -0.1550 -0.1593 -0.0938
34636POPC   C4A61619  16.112  23.783   7.997 -0.0671 -0.1805 -0.0611
34636POPC   C1B61620  15.478  23.628   9.339 -0.0744  0.1961 -0.2638
34636POPC   C2B61621  15.063  23.724   9.078  0.2440  0.0519 -0.1326
34636POPC   C3B61622  14.884  23.732   8.632 -0.4081 -0.1292  0.2804
34636POPC   C4B61623  14.667  23.782   8.196 -0.0224  0.1378 -0.1142
34637POPC   NC361624  14.710  21.338  11.258 -0.1356  0.0120  0.0747
34637POPC   PO461625  14.766  21.488  11.576  0.0879  0.1845 -0.1140
34637POPC   GL161626  14.362  21.389  11.706 -0.0583 -0.1873  0.1534
34637POPC   GL261627  14.255  21.483  11.372  0.1151  0.0921  0.0760
34637POPC   C1A61628  14.010  21.118  11.627 -0.0610 -0.0792  0.0464
34637POPC   D2A61629  13.635  20.866  11.694  0.0809  0.1997 -0.0304
34637POPC   C3A61630  13.218  20.970  11.509 -0.0076 -0.0607  0.1927
34637POPC   C4A61631  12.852  21.229  11.521  0.2058 -0.3090  0.2190
34637POPC   C1B61632  13.818  21.547  11.331  0.0173 -0.2044  0.0176
34637POPC   C2B61633  13.434  21.387  11.504  0.2488  0.1300  0.1077
34637POPC   C3B61634  13.241  21.230  11.911 -0.0945  0.0922  0.1544
34637POPC   C4B61635  12.806  21.012  11.954 -0.1681 -0.1665  0.3821
34638POPC   NC361636  14.636  17.378  15.167 -0.0567 -0.3459  0.3430
34638POPC   PO461637  14.432  17.596  14.876  0.1798  0.0897  0.3212
34638POPC   GL161638  14.258  17.677  15.244 -0.0502 -0.0566  0.1226
34638POPC   GL261639  14.169  17.458  15.301 -0.1741 -0.1129 -0.1252
34638POPC   C1A61640  14.278  18.124  15.467  0.0072 -0.0905 -0.3833
34638POPC   D2A61641  14.024  18.135  15.842  0.2065  0.0622  0.0947
34638POPC   C3A61642  13.975  18.538  16.126 -0.1580  0.1981 -0.4120
34638POPC   C4A61643  13.715  18.875  16.326  0.0689  0.1616  0.2266
34638POPC   C1B61644  14.055  17.622  15.697  0.1145  0.1193  0.3124
34638POPC   C2B61645  13.796  17.763  16.009  0.2685  0.0976  0.2855
34638POPC   C3B61646  13.832  18.057  16.397 -0.0692 -0.0658 -0.1085
34638POPC   C4B61647  13.832  18.464  16.661 -0.0456  0.1541 -0.2663
34639POPC   NC361648   4.376  26.557   9.492  0.1548 -0.2314 -0.1405
34639POPC   PO461649   4.035  26.536   9.269  0.0072  0.3907  0.1907
34639POPC   GL161650   4.261  26.334   9.006  0.1150  0.0417  0.0979
34639POPC   GL261651   4.546  26.318   9.012 -0.2913 -0.4446  0.1277
34639POPC   C1A61652   4.130  26.017   8.699  0.0383 -0.2112 -0.1359
34639POPC   D2A61653   4.221  25.869   8.275 -0.0132 -0.0060  0.0393
34639POPC   C3A61654   4.223  25.809   7.766  0.0903  0.2104  0.1628
34639POPC   C4A61655   4.360  25.482   7.459  0.0665  0.1336 -0.0129
34639POPC   C1B61656   4.664  26.109   8.601  0.0162 -0.3405 -0.0309
34639POPC   C2B61657   4.872  26.069   8.173 -0.2341 -0.0794 -0.3633
34639POPC   C3B61658   5.150  25.960   7.903  0.3005  0.2285  0.1563
34639POPC   C4B61659   5.435  26.137   7.636 -0.0273 -0.0139  0.1449
34640POPC   NC361660  16.223  27.172   8.797  0.0897  0.4521 -0.1266
34640POPC   PO461661  16.184  26.871   9.031 -0.1828 -0.1657 -0.3505
34640POPC   GL161662  16.090  26.684   8.696 -0.4509 -0.1443 -0.1550
34640POPC   GL261663  16.320  26.714   8.517  0.0010  0.0663  0.0499
34640POPC   C1A61664  15.739  26.560   8.385  0.0927 -0.2842  0.0444
34640POPC   D2A61665  15.385  26.337   8.144  0.2910 -0.2086  0.0860
34640POPC   C3A61666  15.141  26.478   7.779 -0.4052 -0.0475  0.1294
34640POPC   C4A61667  15.085  26.170   7.433 -0.2403  0.1822 -0.3733
34640POPC   C1B61668  16.125  26.452   8.104 -0.0974  0.3071 -0.0741
34640POPC   C2B61669  15.832  26.444   7.776 -0.3096  0.1233 -0.1564
34640POPC   C3B61670  15.610  26.258   7.376  0.2105  0.1412  0.3155
34640POPC   C4B61671  15.359  26.309   6.973  0.0722 -0.0627  0.3202
34641POPC   NC361672  13.967  27.325   9.380 -0.0630 -0.2441  0.0135
34641POPC   PO461673  14.129  26.999   9.514  0.0457  0.1402 -0.0371
34641POPC   GL161674  14.169  26.737   9.212  0.1481 -0.3276  0.1855
34641POPC   GL261675  14.007  26.928   9.037  0.3087  0.1800 -0.0224
34641POPC   C1A61676  14.041  26.326   9.090 -0.1930  0.3040  0.1158
34641POPC   D2A61677  13.657  26.018   9.163 -0.0167 -0.1023  0.4534
34641POPC   C3A61678  13.523  25.756   8.814 -0.3121 -0.2416  0.0572
34641POPC   C4A61679  13.537  25.604   8.354  0.0450  0.0503  0.0453
34641POPC   C1B61680  13.877  26.962   8.492 -0.1957  0.2428 -0.2507
34641POPC   C2B61681  13.565  27.013   8.189 -0.1353 -0.1578  0.2999
34641POPC   C3B61682  13.324  27.018   7.810 -0.4877  0.0194  0.1627
34641POPC   C4B61683  13.116  26.881   7.443  0.1994  0.2806  0.1071
34642POPC   NC361684  11.009  17.045  13.162  0.1242  0.0141 -0.4668
34642POPC   PO461685  11.316  17.228  12.997 -0.1376 -0.0420  0.0098
34642POPC   GL161686  11.256  17.649  12.990  0.0143 -0.0505 -0.2548
34642POPC   GL261687  11.087  17.736  12.756 -0.2154 -0.2100 -0.2325
34642POPC   C1A61688  10.915  17.874  13.202  0.1529  0.0363  0.0633
34642POPC   D2A61689  10.793  18.348  13.176 -0.1722 -0.2786  0.1075
34642POPC   C3A61690  10.734  18.663  13.452  0.0464  0.0661 -0.3387
34642POPC   C4A61691  10.688  19.121  13.448  0.0257  0.1362  0.2286
34642POPC   C1B61692  11.107  18.155  12.826  0.2773  0.0728  0.1658
34642POPC   C2B61693  11.372  18.456  12.892 -0.1700  0.1375  0.2232
34642POPC   C3B61694  11.699  18.783  12.913  0.0441  0.0802 -0.2553
34642POPC   C4B61695  11.743  19.243  12.819  0.0681  0.0171  0.0083
34643POPC   NC361696  12.159  32.680   9.503  0.3258  0.2328  0.0607
34643POPC   PO461697  12.292  32.749   9.138 -0.3304 -0.0473 -0.0866
34643POPC   GL161698  12.538  32.966   8.852 -0.0168  0.4244 -0.1567
34643POPC   GL261699  12.710  32.808   8.765 -0.2681 -0.1690 -0.0981
34643POPC   C1A61700  12.499  33.161   8.446 -0.0087 -0.1868  0.1391
34643POPC   D2A61701  12.304  33.342   8.048  0.0141  0.2540  0.3221
34643POPC   C3A61702  11.972  33.626   8.038  0.4557 -0.0626  0.2147
34643POPC   C4A61703  11.531  33.603   8.125 -0.2978  0.0090 -0.1581
34643POPC   C1B61704  12.589  32.710   8.344  0.0555  0.0496 -0.1129
34643POPC   C2B61705  12.603  32.559   7.916  0.2828  0.1124  0.4695
34643POPC   C3B61706  12.428  32.620   7.481 -0.2027  0.3137 -0.1445
34643POPC   C4B61707  12.402  32.982   7.156 -0.1189 -0.0286 -0.0926
34644POPC   NC361708   2.135  24.039   8.970 -0.0733 -0.1213 -0.3588
34644POPC   PO461709   1.946  23.731   9.107 -0.0598  0.1914  0.1971
34644POPC   GL161710   1.982  23.686   8.751  0.1341  0.1737 -0.1600
34644POPC   GL261711   2.201  23.778   8.552  0.2020 -0.2817 -0.1637
34644POPC   C1A61712   1.738  23.628   8.404 -0.1799  0.2601 -0.0575
34644POPC   D2A61713   1.705  23.465   7.921  0.0171 -0.0222 -0.2641
34644POPC   C3A61714   1.694  23.705   7.540  0.2167 -0.2577 -0.2933
34644POPC   C4A61715   1.743  23.791   7.106 -0.2424 -0.2177 -0.1721
34644POPC   C1B61716   2.141  23.902   8.124  0.0984 -0.0607  0.0057
34644POPC   C2B61717   2.005  24.026   7.734  0.1223 -0.0995 -0.0819
34644POPC   C3B61718   1.848  24.220   7.404  0.2123 -0.4292  0.0146
34644POPC   C4B61719   2.094  24.376   7.043 -0.3167 -0.0304  0.1454
34645POPC   NC361720  12.498  18.122  10.261 -0.0144 -0.2425  0.1297
34645POPC   PO461721  12.498  18.129  10.651 -0.2292  0.0564 -0.0608
34645POPC   GL161722  12.349  18.528  10.522  0.1416  0.2284 -0.1130
34645POPC   GL261723  12.077  18.434  10.398  0.1113  0.0780  0.1000
34645POPC   C1A61724  12.227  18.853  10.768  0.4930  0.2888  0.1509
34645POPC   D2A61725  12.427  19.231  10.885  0.1392 -0.1807 -0.1904
34645POPC   C3A61726  12.372  19.690  10.896 -0.0305  0.3043  0.3043
34645POPC   C4A61727  12.591  20.115  10.960 -0.0369  0.0416  0.1963
34645POPC   C1B61728  12.150  18.891  10.280 -0.1074 -0.0231  0.0270
34645POPC   C2B61729  11.908  19.314  10.342 -0.4395 -0.1034  0.0134
34645POPC   C3B61730  11.901  19.591  10.668  0.1206  0.1164  0.0411
34645POPC   C4B61731  11.753  20.079  10.701  0.0923 -0.0118 -0.0456
34646POPC   NC361732   1.045  22.436   8.903 -0.0102  0.0026  0.1445
34646POPC   PO461733   1.178  22.670   9.188  0.4071  0.0665  0.1224
34646POPC   GL161734   1.418  22.801   8.902 -0.1097 -0.2627 -0.2460
34646POPC   GL261735   1.392  23.076   8.842  0.1582  0.2276  0.0521
34646POPC   C1A61736   1.665  22.690   8.502  0.1578 -0.0294  0.0540
34646POPC   D2A61737   1.788  22.342   8.230 -0.0898  0.0046  0.0995
34646POPC   C3A61738   2.170  22.129   8.300  0.0253 -0.0302 -0.1101
34646POPC   C4A61739   2.637  22.040   8.365 -0.2234 -0.1724 -0.0920
34646POPC   C1B61740   1.204  22.922   8.480 -0.3652  0.0446  0.0454
34646POPC   C2B61741   0.962  22.968   8.080 -0.1969  0.1052  0.2121
34646POPC   C3B61742   0.872  22.946   7.573 -0.0869 -0.0628 -0.2222
34646POPC   C4B61743   0.669  23.083   7.152  0.2085 -0.0882 -0.1546
34647POPC   NC361744  12.605  28.162   8.929  0.0712  0.2305 -0.3698
34647POPC   PO461745  12.899  28.068   9.220  0.2968  0.2734 -0.0436
34647POPC   GL161746  13.059  27.929   8.808 -0.2031  0.0305  0.0842
34647POPC   GL261747  13.217  27.816   8.617  0.1008 -0.1408 -0.0230
34647POPC   C1A61748  12.795  27.905   8.413 -0.0318 -0.1856 -0.2575
34647POPC   D2A61749  12.669  28.208   8.061 -0.2025 -0.0120  0.0001
34647POPC   C3A61750  12.614  28.059   7.640 -0.0421 -0.1409 -0.1323
34647POPC   C4A61751  12.602  28.306   7.311 -0.1096  0.2161 -0.2419
34647POPC   C1B61752  13.095  27.556   8.233 -0.1174  0.3490  0.1969
34647POPC   C2B61753  12.882  27.606   7.872  0.1532 -0.2800 -0.1830
34647POPC   C3B61754  12.474  27.584   7.613 -0.1047 -0.2612  0.3280
34647POPC   C4B61755  12.273  27.766   7.266  0.1121  0.0420  0.0995
34648POPC   NC361756   8.102  16.601  13.864 -0.0616 -0.1492  0.2049
34648POPC   PO461757   8.295  16.486  14.185  0.1411  0.0698  0.0431
34648POPC   GL161758   8.442  16.861  14.224 -0.1434  0.0677 -0.1691
34648POPC   GL261759   8.326  16.900  14.489  0.2508 -0.2231 -0.3649
34648POPC   C1A61760   8.581  17.233  14.128 -0.1032 -0.2126 -0.2999
34648POPC   D2A61761   8.542  17.651  14.322 -0.3093  0.2927 -0.1002
34648POPC   C3A61762   8.827  18.007  14.446 -0.2516  0.0672  0.0499
34648POPC   C4A61763   8.822  18.414  14.450 -0.2895  0.1447  0.2235
34648POPC   C1B61764   8.344  17.323  14.650 -0.0733 -0.2102 -0.0906
34648POPC   C2B61765   8.127  17.766  14.698 -0.0266  0.0783  0.2385
34648POPC   C3B61766   7.935  18.177  14.616 -0.0496 -0.3397  0.0260
34648POPC   C4B61767   7.879  18.641  14.688  0.0830 -0.1198 -0.2573
34649POPC   NC361768  12.094  31.924   8.302 -0.1588 -0.1858 -0.1115
34649POPC   PO461769  12.441  31.733   8.416 -0.0623 -0.2361  0.3401
34649POPC   GL161770  12.434  31.869   8.019  0.0305  0.3357  0.3888
34649POPC   GL261771  12.465  31.596   7.912 -0.2997  0.0912  0.3173
34649POPC   C1A61772  12.556  32.107   7.687 -0.0485 -0.1442 -0.0729
34649POPC   D2A61773  12.573  32.259   7.246  0.0100 -0.2149 -0.1283
34649POPC   C3A61774  12.790  32.631   7.098  0.0839 -0.2621  0.1306
34649POPC   C4A61775  12.873  33.086   6.985  0.1880 -0.4216  0.0752
34649POPC   C1B61776  12.604  31.392   7.538 -0.2356  0.0347  0.2380
34649POPC   C2B61777  12.727  31.086   7.166  0.0349  0.1488 -0.2048
34649POPC   C3B61778  12.757  31.080   6.721  0.1070 -0.0174  0.3347
34649POPC   C4B61779  12.843  31.031   6.240 -0.2134 -0.1614 -0.1498
34650POPC   NC361780   2.119   0.076   7.956 -0.3191 -0.0924 -0.1562
34650POPC   PO461781   1.945   0.392   8.199  0.0054 -0.0557  0.2042
34650POPC   GL161782   1.941   0.728   7.925 -0.1031 -0.0205  0.0520
34650POPC   GL261783   2.154   0.558   7.760  0.2803  0.0774 -0.1022
34650POPC   C1A61784   1.853   0.832   7.500 -0.0658  0.0372 -0.1143
34650POPC   D2A61785   1.947   0.901   7.044  0.0640  0.0985  0.1599
34650POPC   C3A61786   1.882   0.486   6.777 -0.1149  0.0813 -0.0315
34650POPC   C4A61787   1.653   0.089   6.579 -0.1439 -0.0633  0.1334
34650POPC   C1B61788   2.014   0.358   7.358  0.2437  0.1507 -0.0965
34650POPC   C2B61789   1.867   0.016   7.043 -0.3557  0.3653  0.0670
34650POPC   C3B61790   2.132  -0.037   6.690 -0.0273  0.0489 -0.0766
34650POPC   C4B61791   2.097   0.255   6.290 -0.1835 -0.1999 -0.1510
34651POPC   NC361792  14.284  18.955   9.574  0.2269  0.0173 -0.2072
34651POPC   PO461793  14.436  19.306   9.472  0.2434  0.1454  0.0104
34651POPC   GL161794  14.528  19.516   9.133  0.3767  0.0310 -0.2888
34651POPC   GL261795  14.781  19.416   9.100 -0.0717 -0.1146  0.1224
34651POPC   C1A61796  14.217  19.685   8.833 -0.3418 -0.4089 -0.1562
34651POPC   D2A61797  13.963  19.614   8.441 -0.4231 -0.0409  0.3647
34651POPC   C3A61798  14.007  19.503   7.972 -0.2722 -0.0616 -0.1214
34651POPC   C4A61799  14.128  19.828   7.693  0.2337 -0.0416  0.0796
34651POPC   C1B61800  14.746  19.858   8.964 -0.2341 -0.2785 -0.0386
34651POPC   C2B61801  14.711  20.122   8.608 -0.2884 -0.0995  0.0886
34651POPC   C3B61802  14.700  20.512   8.407  0.3167 -0.0292  0.1714
34651POPC   C4B61803  14.503  20.864   8.529  0.2593 -0.0518  0.1825
34652POPC   NC361804   1.284  21.153   8.854  0.2981  0.1254  0.2668
34652POPC   PO461805   1.074  21.332   9.121 -0.1996  0.0358 -0.0578
34652POPC   GL161806   0.728  21.159   8.919  0.0437  0.0573  0.2004
34652POPC   GL261807   0.818  20.909   8.951 -0.2905 -0.1359 -0.0063
34652POPC   C1A61808   0.479  21.268   8.551  0.2780  0.0208  0.0610
34652POPC   D2A61809   0.317  21.071   8.147  0.0143  0.0042  0.1334
34652POPC   C3A61810   0.564  20.977   7.719  0.3084 -0.0103  0.1335
34652POPC   C4A61811   0.773  20.830   7.361  0.0065 -0.0003 -0.1873
34652POPC   C1B61812   0.785  20.850   8.526 -0.1093  0.1688  0.2447
34652POPC   C2B61813   0.846  21.116   8.135  0.2074  0.0379 -0.3345
34652POPC   C3B61814   0.706  21.554   7.994 -0.0927 -0.0764  0.0045
34652POPC   C4B61815   0.768  21.846   7.745 -0.2246 -0.0323 -0.0586
34653POPC   NC361816  15.682  30.593   8.413 -0.0440 -0.1170 -0.1050
34653POPC   PO461817  15.303  30.805   8.456 -0.2377  0.0356 -0.0520
34653POPC   GL161818  14.952  30.928   8.275 -0.2950  0.0214  0.1228
34653POPC   GL261819  14.606  30.996   8.174  0.1499 -0.1226  0.0660
34653POPC   C1A61820  15.061  31.106   7.863 -0.1569 -0.0957 -0.0598
34653POPC   D2A61821  15.383  31.120   7.529  0.1809  0.1600 -0.0317
34653POPC   C3A61822  15.291  31.129   7.083  0.0462 -0.0194  0.1462
34653POPC   C4A61823  15.192  31.263   6.661  0.3880 -0.1232  0.3482
34653POPC   C1B61824  14.589  31.188   7.752 -0.0766 -0.1986  0.0424
34653POPC   C2B61825  14.420  31.246   7.328 -0.0270  0.2310  0.0379
34653POPC   C3B61826  14.409  31.348   6.840 -0.0613 -0.2791  0.2375
34653POPC   C4B61827  14.199  31.272   6.413  0.2392 -0.3079  0.1123
34654POPC   NC361828  15.183  14.937  15.899 -0.1191 -0.0699 -0.1125
34654POPC   PO461829  15.394  15.287  15.953 -0.0785  0.0236  0.1908
34654POPC   GL161830  15.457  15.670  16.190 -0.0797  0.0830  0.2056
34654POPC   GL261831  15.420  15.527  16.420  0.0053  0.2716 -0.0027
34654POPC   C1A61832  15.056  15.883  16.324 -0.1735  0.0786 -0.1791
34654POPC   D2A61833  14.884  16.318  16.384  0.0385  0.1008 -0.1413
34654POPC   C3A61834  14.583  16.449  16.707  0.0094  0.1754  0.0522
34654POPC   C4A61835  14.348  16.818  16.878  0.1279 -0.2827 -0.0846
34654POPC   C1B61836  15.301  15.609  16.869  0.2147  0.0142  0.2971
34654POPC   C2B61837  15.120  15.779  17.197 -0.2312 -0.1202  0.0619
34654POPC   C3B61838  14.939  15.911  17.622  0.0162  0.0402 -0.0150
34654POPC   C4B61839  14.938  15.750  18.021  0.0452  0.1966  0.3194
34655POPC   NC361840   6.891  28.387   9.828  0.1387 -0.0925  0.0295
34655POPC   PO461841   6.590  28.512   9.628  0.0866  0.0231 -0.0411
34655POPC   GL161842   6.711  28.301   9.276 -0.1749  0.6275 -0.3430
34655POPC   GL261843   6.926  28.102   9.289 -0.1203 -0.1077 -0.7319
34655POPC   C1A61844   6.710  28.342   8.805  0.1449  0.0507 -0.2448
34655POPC   D2A61845   6.816  28.389   8.293 -0.0648 -0.0114 -0.3553
34655POPC   C3A61846   6.776  28.012   7.989 -0.0478 -0.1862 -0.2195
34655POPC   C4A61847   6.577  28.012   7.580 -0.1445 -0.1551  0.0238
34655POPC   C1B61848   7.078  28.054   8.883 -0.2932 -0.1371  0.1788
34655POPC   C2B61849   7.085  27.923   8.435  0.0074 -0.1769  0.0771
34655POPC   C3B61850   7.158  27.692   8.001 -0.3751 -0.0300  0.0509
34655POPC   C4B61851   7.047  27.807   7.627 -0.1371  0.0491 -0.1453
34656POPC   NC361852   5.746  28.268   9.218  0.1768 -0.1463 -0.1574
34656POPC   PO461853   5.743  28.600   8.958  0.0079  0.0026 -0.1656
34656POPC   GL161854   5.708  28.448   8.516 -0.2030 -0.3633  0.2634
34656POPC   GL261855   5.524  28.645   8.364 -0.0049  0.0017 -0.0752
34656POPC   C1A61856   5.986  28.541   8.149  0.0848  0.0364  0.2600
34656POPC   D2A61857   6.333  28.376   7.863 -0.3963 -0.1102  0.1124
34656POPC   C3A61858   6.096  28.185   7.489 -0.1430  0.0485 -0.1411
34656POPC   C4A61859   5.994  27.778   7.394 -0.4470  0.2329 -0.0304
34656POPC   C1B61860   5.589  28.252   8.088 -0.0805  0.0511 -0.1140
34656POPC   C2B61861   5.605  27.800   7.973  0.0945 -0.0181 -0.3110
34656POPC   C3B61862   5.556  27.603   7.536  0.1039 -0.0253  0.0549
34656POPC   C4B61863   5.719  27.485   7.095 -0.0450  0.2192 -0.3357
34657POPC   NC361864   9.049  17.549  11.470 -0.2585  0.2406  0.2243
34657POPC   PO461865   8.748  17.790  11.632  0.1892  0.0771  0.0768
34657POPC   GL161866   8.784  18.212  11.529 -0.0764 -0.2491 -0.0169
34657POPC   GL261867   8.572  18.412  11.425  0.0994 -0.0873  0.0067
34657POPC   C1A61868   8.919  18.502  11.163  0.0116  0.0795  0.3708
34657POPC   D2A61869   9.206  18.819  11.015  0.0297  0.0246 -0.0696
34657POPC   C3A61870   9.115  19.147  10.747  0.2986 -0.2807  0.1263
34657POPC   C4A61871   8.739  19.439  10.552 -0.0446  0.3454 -0.3059
34657POPC   C1B61872   8.792  18.736  11.693  0.0507  0.3420 -0.1034
34657POPC   C2B61873   8.974  19.186  11.778 -0.2571  0.1685  0.0885
34657POPC   C3B61874   8.843  19.486  12.071  0.1598 -0.2092 -0.3103
34657POPC   C4B61875   8.654  19.782  12.394  0.1455 -0.2538  0.1682
34658POPC   NC361876   5.487  21.092  13.534  0.2008  0.3575  0.1496
34658POPC   PO461877   5.301  20.877  13.756  0.2096 -0.2736  0.3264
34658POPC   GL161878   5.688  20.927  13.934  0.4836  0.2695 -0.1360
34658POPC   GL261879   5.593  21.085  14.173 -0.1976 -0.0188  0.0213
34658POPC   C1A61880   6.076  21.062  14.158 -0.0929 -0.3906 -0.0555
34658POPC   D2A61881   6.328  21.203  14.484 -0.0765 -0.0043 -0.0676
34658POPC   C3A61882   6.762  21.124  14.430 -0.1328 -0.3211 -0.0512
34658POPC   C4A61883   6.948  20.812  14.722 -0.0109 -0.2279 -0.1204
34658POPC   C1B61884   5.798  20.837  14.522 -0.4029  0.2460 -0.1192
34658POPC   C2B61885   6.219  20.810  14.745  0.0404  0.1368 -0.1679
34658POPC   C3B61886   6.559  20.871  15.052 -0.0709  0.1186 -0.0142
34658POPC   C4B61887   6.803  20.833  15.404  0.1373  0.1575  0.1137
34659POPC   NC361888   9.509  31.473   9.277  0.0965  0.2983 -0.1442
34659POPC   PO461889   9.717  31.547   8.963  0.3219 -0.0032  0.1707
34659POPC   GL161890   9.777  31.788   8.627 -0.0982 -0.0622 -0.1906
34659POPC   GL261891   9.988  31.631   8.513 -0.2116 -0.2297  0.0110
34659POPC   C1A61892   9.460  31.715   8.274 -0.2942  0.1171 -0.0534
34659POPC   D2A61893   9.538  31.714   7.840  0.1561  0.0244  0.2779
34659POPC   C3A61894   9.420  32.031   7.539  0.2080  0.1105 -0.3615
34659POPC   C4A61895   9.609  32.389   7.350 -0.0764 -0.3418  0.0013
34659POPC   C1B61896   9.894  31.891   8.174  0.0662 -0.0918  0.1388
34659POPC   C2B61897   9.858  32.097   7.798  0.0731 -0.0787 -0.1731
34659POPC   C3B61898  10.018  32.189   7.390 -0.0542 -0.1366 -0.1016
34659POPC   C4B61899  10.137  32.469   7.070  0.2523  0.0710 -0.1281
34660POPC   NC361900   2.716  19.130   9.451 -0.3356 -0.0169  0.1884
34660POPC   PO461901   2.691  19.535   9.365 -0.0772  0.1832 -0.0755
34660POPC   GL161902   2.721  19.822   9.096 -0.1595  0.0266  0.4110
34660POPC   GL261903   2.972  19.718   9.003  0.1036  0.1276 -0.1211
34660POPC   C1A61904   2.448  19.750   8.752  0.1112 -0.2411  0.0548
34660POPC   D2A61905   2.362  19.838   8.310  0.1726 -0.3857 -0.1243
34660POPC   C3A61906   2.702  19.709   8.084  0.2824  0.1047  0.0036
34660POPC   C4A61907   2.853  19.698   7.670  0.1064 -0.0721  0.0418
34660POPC   C1B61908   2.865  19.580   8.570  0.0263 -0.2574  0.1929
34660POPC   C2B61909   3.153  19.465   8.254 -0.0788 -0.4277 -0.3191
34660POPC   C3B61910   3.340  19.163   8.013  0.1630  0.2452  0.0473
34660POPC   C4B61911   3.297  18.770   7.699 -0.1273  0.0211  0.2567
34661POPC   NC361912   0.727  16.970   8.606  0.2552  0.3320 -0.0784
34661POPC   PO461913   0.499  16.759   8.357 -0.1989 -0.3746 -0.2252
34661POPC   GL161914   0.551  16.994   8.055 -0.1329 -0.0428  0.3882
34661POPC   GL261915   0.278  17.021   7.919 -0.3288  0.1727 -0.0411
34661POPC   C1A61916   0.612  17.436   7.920  0.4922  0.0954  0.2756
34661POPC   D2A61917   0.604  17.833   7.625 -0.0777 -0.0562  0.0978
34661POPC   C3A61918   0.509  17.755   7.162 -0.2206  0.0561 -0.0692
34661POPC   C4A61919   0.358  17.946   6.747 -0.1676 -0.0442  0.2405
34661POPC   C1B61920   0.532  17.090   7.561  0.0916  0.1220 -0.2512
34661POPC   C2B61921   0.692  17.337   7.252  0.1349  0.1737 -0.0864
34661POPC   C3B61922   0.859  17.493   6.881 -0.0941 -0.0161  0.1637
34661POPC   C4B61923   0.904  17.885   6.772  0.1511 -0.2234  0.2290
34662POPC   NC361924   7.976  17.408  13.738 -0.3085  0.1590  0.2300
34662POPC   PO461925   7.898  17.701  13.492  0.0729 -0.2675 -0.0761
34662POPC   GL161926   7.941  18.044  13.699  0.1411 -0.0101  0.2136
34662POPC   GL261927   8.216  18.061  13.703 -0.0045  0.1663  0.0205
34662POPC   C1A61928   7.659  18.443  13.742 -0.3937 -0.0814 -0.0704
34662POPC   D2A61929   7.567  18.820  13.927  0.0431 -0.0976  0.0800
34662POPC   C3A61930   7.766  18.992  14.258 -0.0828 -0.1578  0.0739
34662POPC   C4A61931   8.192  18.978  14.472 -0.0818 -0.2085 -0.1521
34662POPC   C1B61932   8.234  18.485  13.723 -0.1748  0.1697 -0.3511
34662POPC   C2B61933   8.095  18.881  13.861  0.2853  0.1938  0.1481
34662POPC   C3B61934   8.215  19.291  14.068 -0.0141  0.5805  0.3255
34662POPC   C4B61935   8.243  19.511  14.532  0.0596 -0.0892  0.0293
34663POPC   NC361936  13.295  18.834  10.630 -0.0342  0.1475 -0.1164
34663POPC   PO461937  13.334  18.527  10.419 -0.0342  0.0022  0.0625
34663POPC   GL161938  13.035  18.738  10.281 -0.2146 -0.1317 -0.2024
34663POPC   GL261939  12.834  18.667  10.369 -0.2516 -0.1612 -0.1197
34663POPC   C1A61940  12.936  19.195  10.173 -0.1554 -0.2386 -0.1678
34663POPC   D2A61941  12.857  19.596   9.930 -0.2014 -0.3172 -0.2562
34663POPC   C3A61942  12.515  19.800   9.963 -0.0652 -0.0181  0.1821
34663POPC   C4A61943  12.429  20.250   9.849 -0.1116 -0.0401  0.2221
34663POPC   C1B61944  12.596  19.062  10.467  0.2193 -0.2110 -0.0237
34663POPC   C2B61945  12.399  19.526  10.393 -0.2354 -0.0116  0.1933
34663POPC   C3B61946  12.277  19.952  10.456  0.1558  0.2124 -0.1951
34663POPC   C4B61947  12.030  20.360  10.270  0.1377  0.0135 -0.3028
34664POPC   NC361948  14.804  20.616  10.296  0.0225  0.2191 -0.1705
34664POPC   PO461949  14.707  20.938  10.487  0.1227  0.3005 -0.0965
34664POPC   GL161950  14.557  21.284  10.354  0.1008 -0.1563 -0.1834
34664POPC   GL261951  14.298  21.129  10.248  0.1267 -0.1477 -0.3576
34664POPC   C1A61952  14.426  21.400   9.891  0.3452 -0.1991  0.1232
34664POPC   D2A61953  14.404  21.200   9.446  0.1689  0.2500 -0.0312
34664POPC   C3A61954  14.139  21.568   9.158 -0.0426 -0.2907 -0.1678
34664POPC   C4A61955  13.821  21.575   8.825 -0.2369 -0.3963  0.0427
34664POPC   C1B61956  13.950  21.169   9.968  0.0650  0.2722  0.0234
34664POPC   C2B61957  13.868  21.312   9.508 -0.0818 -0.0003 -0.2502
34664POPC   C3B61958  13.600  21.645   9.260  0.4401  0.1398  0.2348
34664POPC   C4B61959  13.329  22.000   9.260  0.1267  0.0523  0.0670
34665POPC   NC361960  15.246  21.259  13.661  0.2523  0.0488  0.0880
34665POPC   PO461961  14.923  21.108  13.559  0.2695 -0.1917 -0.0737
34665POPC   GL161962  14.568  21.145  13.336 -0.3357  0.0695 -0.2691
34665POPC   GL261963  14.606  21.114  13.100 -0.1539 -0.3351  0.0802
34665POPC   C1A61964  14.212  21.410  13.390  0.1849  0.1778  0.1308
34665POPC   D2A61965  13.779  21.559  13.441 -0.1138  0.1390 -0.0830
34665POPC   C3A61966  13.374  21.467  13.277  0.2539 -0.2437 -0.1253
34665POPC   C4A61967  13.024  21.140  13.328  0.0073 -0.1569  0.1348
34665POPC   C1B61968  14.278  20.868  12.950  0.0920  0.5174 -0.0850
34665POPC   C2B61969  13.818  20.848  13.025  0.1038  0.1076 -0.0775
34665POPC   C3B61970  13.487  21.178  12.882  0.0529 -0.3955  0.1040
34665POPC   C4B61971  13.136  21.472  12.754  0.2441  0.2731 -0.2269
34666POPC   NC361972  11.851  29.705   8.340 -0.1439  0.2534 -0.1420
34666POPC   PO461973  12.200  29.868   8.227  0.0637  0.0771  0.1409
34666POPC   GL161974  12.006  29.710   7.929 -0.1242  0.2050  0.5514
34666POPC   GL261975  11.716  29.767   7.825  0.2932  0.2159 -0.1666
34666POPC   C1A61976  12.104  29.439   7.552  0.2140 -0.1246  0.1692
34666POPC   D2A61977  11.935  29.152   7.237 -0.2745 -0.0934 -0.2597
34666POPC   C3A61978  12.216  28.782   7.188  0.4199  0.0348 -0.0770
34666POPC   C4A61979  12.383  28.545   6.790 -0.0529  0.1776 -0.1553
34666POPC   C1B61980  11.686  29.569   7.355 -0.0590  0.1544  0.1234
34666POPC   C2B61981  11.579  29.638   6.877 -0.1130 -0.0476 -0.0549
34666POPC   C3B61982  11.618  29.974   6.568  0.2815  0.1708  0.3867
34666POPC   C4B61983  11.376  30.069   6.207  0.0648  0.2138  0.0913
34667POPC   NC361984   6.045  27.462   9.004  0.3154 -0.2246  0.1942
34667POPC   PO461985   5.686  27.727   8.968 -0.0601 -0.0097  0.0577
34667POPC   GL161986   5.661  27.683   8.588 -0.0681 -0.1714 -0.2546
34667POPC   GL261987   5.509  27.905   8.516  0.4178  0.2602  0.0223
34667POPC   C1A61988   5.752  27.407   8.222  0.0070  0.5089  0.1482
34667POPC   D2A61989   6.025  27.534   7.887  0.0766 -0.1920  0.1256
34667POPC   C3A61990   6.115  27.362   7.490  0.2709 -0.0835 -0.1119
34667POPC   C4A61991   6.252  27.498   7.072  0.1932  0.1382  0.0897
34667POPC   C1B61992   5.895  27.976   8.323  0.2667 -0.1835 -0.0990
34667POPC   C2B61993   6.326  27.829   8.170  0.0210 -0.0016 -0.1308
34667POPC   C3B61994   6.613  27.519   7.888 -0.1336 -0.3264  0.3055
34667POPC   C4B61995   6.679  27.525   7.418  0.2165  0.2034 -0.0576
34668POPC   NC361996   7.306  19.225  10.938  0.1392 -0.2487 -0.0457
34668POPC   PO461997   7.258  18.828  11.098 -0.1031 -0.2022  0.0516
34668POPC   GL161998   7.525  19.015  11.495 -0.0181 -0.2775  0.1305
34668POPC   GL261999   7.613  19.272  11.320  0.0308 -0.4966 -0.3555
34668POPC   C1A62000   8.030  19.041  11.596  0.1873  0.1428 -0.1517
34668POPC   D2A62001   8.433  19.225  11.605 -0.3761  0.1657 -0.1893
34668POPC   C3A62002   8.698  19.603  11.579  0.2887  0.2064 -0.0767
34668POPC   C4A62003   8.557  20.053  11.477  0.1649  0.0787  0.1087
34668POPC   C1B62004   8.049  19.405  11.197  0.5399 -0.0090  0.0364
34668POPC   C2B62005   8.378  19.323  10.947 -0.1930  0.2625 -0.1138
34668POPC   C3B62006   8.212  19.282  10.459  0.2155  0.1773 -0.0819
34668POPC   C4B62007   8.194  19.150  10.017  0.0299 -0.3602 -0.0469
34669POPC   NC362008   7.334  17.085  14.349 -0.1179  0.1709  0.0545
34669POPC   PO462009   7.574  17.244  14.062 -0.3842  0.1070  0.0112
34669POPC   GL162010   7.668  17.625  14.046 -0.2382 -0.1488  0.2523
34669POPC   GL262011   7.537  17.673  14.271 -0.2051 -0.0892  0.0424
34669POPC   C1A62012   8.069  17.817  14.133 -0.0812  0.1246  0.2507
34669POPC   D2A62013   8.346  18.152  14.257  0.0767 -0.3415  0.0677
34669POPC   C3A62014   8.392  18.351  14.697  0.0415 -0.0144 -0.0399
34669POPC   C4A62015   8.220  18.478  15.117 -0.2614  0.3833  0.1652
34669POPC   C1B62016   7.697  18.071  14.191  0.1698 -0.0284 -0.0247
34669POPC   C2B62017   7.986  18.500  14.225  0.0697 -0.2828  0.2509
34669POPC   C3B62018   8.454  18.678  14.231 -0.0189  0.0732 -0.0300
34669POPC   C4B62019   8.859  18.915  14.404  0.1348  0.2360 -0.1087
34670POPC   NC362020  14.068  19.412  10.402 -0.2300 -0.1000 -0.0838
34670POPC   PO462021  13.816  19.411  10.101 -0.2314 -0.1802  0.0340
34670POPC   GL162022  13.452  19.516   9.993 -0.2410 -0.1995 -0.1160
34670POPC   GL262023  13.469  19.359   9.761 -0.2814  0.3024  0.4144
34670POPC   C1A62024  13.272  19.844   9.837  0.0096  0.0192 -0.2034
34670POPC   D2A62025  13.382  19.960   9.402  0.1306 -0.0968 -0.1421
34670POPC   C3A62026  13.464  20.284   9.012  0.1903  0.3526  0.3006
34670POPC   C4A62027  13.244  20.721   8.990 -0.1785  0.0029  0.0084
34670POPC   C1B62028  13.048  19.481   9.520 -0.1583 -0.0152  0.0577
34670POPC   C2B62029  12.592  19.579   9.524  0.0854 -0.0973  0.1259
34670POPC   C3B62030  12.208  19.852   9.566  0.1816  0.0567  0.1200
34670POPC   C4B62031  11.901  20.096   9.847  0.0255  0.0650 -0.5448
34671POPC   NC362032   4.849  30.602   8.365 -0.3793 -0.0659 -0.2317
34671POPC   PO462033   4.468  30.482   8.494 -0.2269 -0.2290  0.1906
34671POPC   GL162034   4.558  30.347   8.161  0.0948  0.0982  0.3232
34671POPC   GL262035   4.323  30.226   8.042 -0.1438 -0.1151  0.1565
34671POPC   C1A62036   4.531  30.485   7.689 -0.0483 -0.0648 -0.0190
34671POPC   D2A62037   4.405  30.462   7.248  0.0153  0.1360  0.0228
34671POPC   C3A62038   4.621  30.381   6.864  0.2046  0.0501  0.1962
34671POPC   C4A62039   4.717  30.025   6.558  0.2629 -0.1682 -0.0669
34671POPC   C1B62040   4.285  30.034   7.630 -0.1824  0.0756  0.1528
34671POPC   C2B62041   4.531  29.950   7.254  0.1380 -0.1093  0.3019
34671POPC   C3B62042   4.588  29.647   6.931  0.0915  0.1208 -0.2334
34671POPC   C4B62043   4.743  29.218   6.723 -0.0454 -0.1948 -0.1084
34672POPC   NC362044   6.532  29.579   9.308 -0.2748 -0.3660 -0.1656
34672POPC   PO462045   6.271  29.585   9.007 -0.1271 -0.1053  0.0687
34672POPC   GL162046   6.167  29.425   8.588  0.2198  0.1857 -0.0533
34672POPC   GL262047   6.271  29.158   8.530 -0.0077  0.0384  0.0418
34672POPC   C1A62048   6.116  29.519   8.181 -0.0060 -0.2537 -0.0563
34672POPC   D2A62049   6.123  29.543   7.712 -0.0415  0.0745 -0.4606
34672POPC   C3A62050   6.067  29.430   7.257  0.3327  0.0018  0.0498
34672POPC   C4A62051   5.827  29.252   6.884  0.0266 -0.2628  0.0316
34672POPC   C1B62052   6.583  29.288   8.288  0.3103  0.0168  0.4069
34672POPC   C2B62053   6.656  29.397   7.830 -0.0029  0.1564  0.1792
34672POPC   C3B62054   7.066  29.428   7.592 -0.2635 -0.0589 -0.3559
34672POPC   C4B62055   7.344  29.539   7.238 -0.2276  0.0458 -0.0585
34673POPC   NC362056  12.749  31.312   8.178  0.1934  0.0485  0.0162
34673POPC   PO462057  12.912  31.242   8.528 -0.0430 -0.1294 -0.3562
34673POPC   GL162058  13.127  31.520   8.368  0.2338 -0.4374  0.0426
34673POPC   GL262059  13.332  31.438   8.213  0.0545  0.1152  0.3031
34673POPC   C1A62060  12.914  31.792   8.043 -0.0936  0.1752  0.1248
34673POPC   D2A62061  13.017  31.907   7.622 -0.2907 -0.3417 -0.3563
34673POPC   C3A62062  12.796  31.828   7.215  0.3375 -0.1546 -0.0648
34673POPC   C4A62063  12.724  32.045   6.822 -0.1106 -0.2310 -0.1244
34673POPC   C1B62064  13.450  31.584   7.729 -0.1210 -0.0672 -0.0773
34673POPC   C2B62065  13.435  31.827   7.353 -0.0121 -0.2013 -0.3949
34673POPC   C3B62066  13.697  32.008   6.986  0.2628  0.0228  0.2257
34673POPC   C4B62067  13.871  32.088   6.610 -0.1180  0.2769 -0.0581
34674POPC   NC362068  10.781  32.133   8.999 -0.2380 -0.0283 -0.1198
34674POPC   PO462069  10.710  31.726   9.111 -0.1996 -0.1240  0.3139
34674POPC   GL162070  10.722  31.798   8.703  0.0385  0.2624  0.2757
34674POPC   GL262071  10.572  31.802   8.470 -0.2333 -0.0799  0.3497
34674POPC   C1A62072  10.828  32.159   8.480  0.2450  0.0386  0.0964
34674POPC   D2A62073  10.772  32.217   8.023 -0.1712  0.2701 -0.3223
34674POPC   C3A62074  11.011  32.080   7.669  0.3963 -0.0290  0.0111
34674POPC   C4A62075  11.050  32.023   7.224 -0.0864  0.0618 -0.4706
34674POPC   C1B62076  10.340  32.066   8.159  0.1206 -0.0812  0.2608
34674POPC   C2B62077  10.232  32.357   7.806 -0.0732  0.1395 -0.2110
34674POPC   C3B62078  10.185  32.806   7.696  0.0294 -0.0544  0.1656
34674POPC   C4B62079  10.313  33.081   7.402 -0.0043 -0.2405 -0.0425
34675POPC   NC362080   4.454  32.115   9.124 -0.0185  0.0279  0.0217
34675POPC   PO462081   4.683  31.907   8.866 -0.3338  0.0621  0.3361
34675POPC   GL162082   4.730  31.985   8.460 -0.0576 -0.1512  0.1408
34675POPC   GL262083   5.037  31.913   8.422  0.0739  0.0843 -0.1237
34675POPC   C1A62084   4.692  31.964   7.984  0.0404 -0.3672 -0.1129
34675POPC   D2A62085   4.503  31.795   7.590  0.1419  0.1363 -0.2926
34675POPC   C3A62086   4.372  32.028   7.222  0.2099  0.1237 -0.0291
34675POPC   C4A62087   4.354  32.392   6.929 -0.0571 -0.0286 -0.3873
34675POPC   C1B62088   5.173  32.152   8.028 -0.0544  0.0621 -0.0723
34675POPC   C2B62089   5.058  32.202   7.560 -0.1284 -0.0121 -0.0562
34675POPC   C3B62090   5.274  32.083   7.202 -0.1381  0.3505 -0.0342
34675POPC   C4B62091   5.246  31.765   6.811 -0.1212 -0.4796 -0.1351
34676POPC   NC362092   4.361  20.340  14.902  0.1227  0.1437 -0.0103
34676POPC   PO462093   4.682  20.232  14.680  0.2118  0.0785 -0.2213
34676POPC   GL162094   5.096  20.271  14.747  0.0963  0.3075 -0.4047
34676POPC   GL262095   5.308  20.276  14.566  0.1269  0.0740 -0.0871
34676POPC   C1A62096   5.183  20.286  15.211 -0.1503  0.0357  0.2448
34676POPC   D2A62097   5.348  20.521  15.563  0.0343  0.0421  0.0090
34676POPC   C3A62098   5.561  20.912  15.444 -0.0085 -0.2619 -0.1232
34676POPC   C4A62099   5.432  21.305  15.537 -0.2133  0.1732 -0.0077
34676POPC   C1B62100   5.410  20.577  14.835 -0.0292 -0.0263 -0.4149
34676POPC   C2B62101   5.806  20.756  15.025 -0.2435 -0.1323  0.2272
34676POPC   C3B62102   6.123  20.853  15.336 -0.0155 -0.1981 -0.1186
34676POPC   C4B62103   6.299  20.968  15.790 -0.1171 -0.0609  0.0576
34677POPC   NC362104  10.246  29.748   9.144 -0.0992  0.0841  0.2404
34677POPC   PO462105  10.497  29.555   9.339 -0.3371  0.2092  0.1300
34677POPC   GL162106  10.654  29.480   8.920 -0.2023 -0.0310  0.3451
34677POPC   GL262107  10.499  29.379   8.723 -0.2076 -0.0419 -0.1227
34677POPC   C1A62108  10.892  29.118   8.695  0.1182  0.1044 -0.2347
34677POPC   D2A62109  11.211  28.817   8.472  0.4876 -0.3157 -0.0325
34677POPC   C3A62110  11.175  28.435   8.278 -0.0105  0.1145 -0.1331
34677POPC   C4A62111  11.080  28.159   7.950  0.0144 -0.2326 -0.1282
34677POPC   C1B62112  10.376  29.247   8.302  0.2104 -0.1747 -0.0694
34677POPC   C2B62113  10.439  29.307   7.858  0.0469  0.0211 -0.0802
34677POPC   C3B62114  10.101  29.306   7.549  0.1444 -0.1003  0.1108
34677POPC   C4B62115   9.908  29.050   7.218 -0.0085  0.0925 -0.0804
34678POPC   NC362116   6.347  19.018  13.129 -0.1170 -0.1424 -0.0983
34678POPC   PO462117   6.550  18.997  12.768  0.0398 -0.0407 -0.1030
34678POPC   GL162118   6.621  19.279  12.797  0.0197  0.0470  0.0059
34678POPC   GL262119   6.913  19.254  12.995 -0.0003  0.1609  0.2846
34678POPC   C1A62120   6.833  19.608  12.533 -0.2458 -0.0251  0.0010
34678POPC   D2A62121   7.242  19.750  12.504  0.1618 -0.0303  0.2117
34678POPC   C3A62122   7.521  20.060  12.659 -0.3576  0.0383 -0.2321
34678POPC   C4A62123   7.898  20.125  12.944 -0.2539  0.1618  0.0464
34678POPC   C1B62124   7.143  19.595  13.194 -0.0543 -0.3047  0.2032
34678POPC   C2B62125   7.494  19.892  13.222 -0.0108 -0.0764 -0.0373
34678POPC   C3B62126   7.962  19.906  13.389  0.0899 -0.2072  0.0639
34678POPC   C4B62127   8.422  19.831  13.344  0.1169 -0.0052  0.4214
34679POPC   NC362128   3.120  19.595   9.663  0.2332 -0.1414 -0.1804
34679POPC   PO462129   3.495  19.561   9.663  0.1806  0.0667  0.0774
34679POPC   GL162130   3.577  19.768   9.347  0.1011 -0.0490  0.0651
34679POPC   GL262131   3.313  19.858   9.284 -0.1597  0.1718 -0.0391
34679POPC   C1A62132   3.752  20.161   9.203 -0.0620 -0.1630 -0.4398
34679POPC   D2A62133   4.075  20.504   9.202  0.0826  0.0698  0.0923
34679POPC   C3A62134   4.219  20.630   8.768  0.1023 -0.0122  0.3032
34679POPC   C4A62135   4.237  20.646   8.343  0.1844  0.1610  0.3107
34679POPC   C1B62136   3.615  19.879   8.873 -0.0510  0.0193  0.1054
34679POPC   C2B62137   3.954  19.987   8.619  0.0926  0.1264 -0.0562
34679POPC   C3B62138   4.223  20.102   8.247 -0.0976 -0.3660  0.0588
34679POPC   C4B62139   4.669  20.043   8.125 -0.1916 -0.0956  0.3487
34680POPC   NC362140   0.044  25.600   8.702 -0.0140  0.0862  0.2205
34680POPC   PO462141  -0.364  25.636   8.709  0.0010 -0.4319  0.3153
34680POPC   GL162142  -0.577  25.551   8.419 -0.0304 -0.1772  0.0979
34680POPC   GL262143  -0.687  25.240   8.444  0.3256 -0.0506  0.1823
34680POPC   C1A62144  -0.566  25.455   7.948  0.0034 -0.1455  0.1938
34680POPC   D2A62145  -0.553  25.235   7.577  0.1440  0.1754  0.1006
34680POPC   C3A62146  -0.556  25.262   7.147  0.2459 -0.0495  0.1396
34680POPC   C4A62147  -0.633  25.356   6.661 -0.0031  0.0659  0.1767
34680POPC   C1B62148  -0.669  24.977   8.095  0.1515  0.2863  0.0995
34680POPC   C2B62149  -0.914  24.845   7.700  0.1560  0.4144  0.4587
34680POPC   C3B62150  -1.227  24.679   7.381 -0.0099 -0.0174  0.1618
34680POPC   C4B62151  -1.426  24.568   6.964 -0.0581 -0.0780  0.1071
34681POPC   NC362152   6.432  30.968   8.511 -0.0554 -0.1720 -0.1749
34681POPC   PO462153   6.386  31.272   8.801 -0.1389  0.0180 -0.3261
34681POPC   GL162154   5.999  31.210   8.593 -0.2161 -0.1539  0.1788
34681POPC   GL262155   5.849  30.951   8.559  0.0603 -0.3062  0.1066
34681POPC   C1A62156   5.993  31.175   8.131 -0.1650  0.3393 -0.1399
34681POPC   D2A62157   6.131  31.060   7.687  0.0169 -0.1582  0.0585
34681POPC   C3A62158   6.220  31.240   7.287 -0.1735 -0.0113 -0.0892
34681POPC   C4A62159   6.408  31.121   6.887 -0.1279  0.1789 -0.0899
34681POPC   C1B62160   5.905  30.691   8.113  0.0912 -0.1728 -0.0936
34681POPC   C2B62161   5.927  30.411   7.733 -0.2838 -0.0991 -0.0079
34681POPC   C3B62162   6.022  30.221   7.387 -0.2035  0.3077 -0.0825
34681POPC   C4B62163   5.914  30.371   6.980  0.0138  0.0309  0.1471
34682POPC   NC362164  14.787  24.544  10.976  0.0008  0.0620 -0.0345
34682POPC   PO462165  14.699  24.365  11.314 -0.0558 -0.0639  0.1485
34682POPC   GL162166  14.305  24.351  11.406 -0.0910 -0.5125  0.0631
34682POPC   GL262167  14.061  24.525  11.335 -0.1043 -0.1695 -0.1896
34682POPC   C1A62168  13.883  24.105  11.369 -0.0515 -0.0863  0.2681
34682POPC   D2A62169  13.477  23.967  11.125 -0.1125 -0.0833 -0.0149
34682POPC   C3A62170  13.099  23.686  11.207 -0.0344  0.2468 -0.2942
34682POPC   C4A62171  12.767  23.447  11.088  0.2314 -0.0797  0.1038
34682POPC   C1B62172  13.670  24.640  11.103  0.2128  0.1634  0.1576
34682POPC   C2B62173  13.214  24.401  11.124  0.0295  0.0463  0.4120
34682POPC   C3B62174  12.948  24.180  10.948  0.3003  0.2274 -0.2799
34682POPC   C4B62175  12.792  23.803  10.716 -0.1679 -0.2276  0.0492
34683POPC   NC362176  11.834  17.286  13.103 -0.0126  0.0065 -0.4211
34683POPC   PO462177  12.222  17.400  13.177 -0.0308  0.1729  0.1965
34683POPC   GL162178  11.968  17.624  13.443 -0.1998 -0.3080  0.2129
34683POPC   GL262179  11.943  17.438  13.676  0.1335  0.2240  0.2236
34683POPC   C1A62180  11.840  18.065  13.312  0.0442  0.0713 -0.0918
34683POPC   D2A62181  11.793  18.488  13.314 -0.3138 -0.1306  0.2688
34683POPC   C3A62182  11.699  18.848  13.566 -0.0556  0.1272  0.3183
34683POPC   C4A62183  11.463  19.210  13.403  0.1594  0.2036  0.0551
34683POPC   C1B62184  11.715  17.829  13.754  0.2559 -0.1073 -0.0489
34683POPC   C2B62185  11.555  18.255  13.800  0.0117 -0.2257 -0.2807
34683POPC   C3B62186  11.472  18.716  13.998 -0.0236 -0.0970 -0.1059
34683POPC   C4B62187  11.122  19.037  14.143 -0.1331 -0.0969 -0.0576
34684POPC   NC362188   5.021  27.058   9.446  0.1351 -0.1736 -0.3466
34684POPC   PO462189   4.713  27.097   9.223  0.3984  0.1193  0.0332
34684POPC   GL162190   4.743  27.083   8.746  0.1042 -0.1499  0.5669
34684POPC   GL262191   4.599  27.092   8.493  0.1218 -0.0779 -0.1518
34684POPC   C1A62192   5.076  26.959   8.437  0.0501  0.1218  0.0712
34684POPC   D2A62193   5.487  26.751   8.371 -0.1268 -0.1874  0.2483
34684POPC   C3A62194   5.716  26.685   8.740  0.0266 -0.0291  0.0276
34684POPC   C4A62195   5.922  26.756   9.091  0.0361  0.0063 -0.0115
34684POPC   C1B62196   4.762  27.184   8.064  0.2289 -0.0952  0.1137
34684POPC   C2B62197   4.855  27.327   7.635  0.0837  0.1123  0.1843
34684POPC   C3B62198   5.155  27.442   7.303 -0.1040 -0.0270 -0.3004
34684POPC   C4B62199   5.229  27.667   6.900  0.0795 -0.0949 -0.2267
34685POPC   NC362200   5.739  19.468  10.984  0.4605 -0.1650  0.1010
34685POPC   PO462201   6.018  19.464  11.225 -0.2662  0.1270 -0.1783
34685POPC   GL162202   6.169  19.789  11.107 -0.3300  0.2974 -0.2506
34685POPC   GL262203   6.154  19.760  10.851  0.2819  0.1420  0.0031
34685POPC   C1A62204   6.614  19.719  11.025  0.0677  0.0919  0.2668
34685POPC   D2A62205   7.114  19.781  10.993  0.2033 -0.2532  0.1098
34685POPC   C3A62206   7.274  19.761  10.557  0.0305 -0.3302  0.2088
34685POPC   C4A62207   7.628  19.979  10.312 -0.0956  0.0892  0.1047
34685POPC   C1B62208   6.301  20.101  10.712 -0.1858 -0.2559 -0.0090
34685POPC   C2B62209   6.406  20.164  10.248  0.0603 -0.0087 -0.2886
34685POPC   C3B62210   6.668  20.377   9.973  0.2550 -0.1571 -0.0292
34685POPC   C4B62211   6.672  20.809   9.834 -0.0986 -0.1172 -0.2126
34686POPC   NC362212   5.936  24.045  13.500 -0.3296 -0.0731  0.2566
34686POPC   PO462213   5.939  24.347  13.193 -0.3753  0.0460 -0.3129
34686POPC   GL162214   6.294  24.375  13.399  0.3521  0.2577 -0.1523
34686POPC   GL262215   6.447  24.326  13.114  0.1300 -0.0128  0.2682
34686POPC   C1A62216   6.434  24.156  13.768 -0.0719 -0.1652 -0.0903
34686POPC   D2A62217   6.736  24.111  14.097 -0.0347 -0.1393  0.1466
34686POPC   C3A62218   7.181  23.974  14.183 -0.0501  0.2434 -0.0971
34686POPC   C4A62219   7.361  23.667  14.425 -0.1615  0.4543  0.0396
34686POPC   C1B62220   6.662  23.963  12.974  0.0109 -0.1637  0.0391
34686POPC   C2B62221   6.924  23.575  12.875 -0.0872  0.0129  0.0698
34686POPC   C3B62222   7.112  23.253  12.593  0.3192 -0.3079 -0.1764
34686POPC   C4B62223   7.309  22.855  12.612 -0.2483 -0.1330 -0.0126
34687POPC   NC362224  13.349  31.519   8.784  0.1536  0.1626  0.0580
34687POPC   PO462225  13.378  31.862   8.666  0.1586  0.2521 -0.1330
34687POPC   GL162226  13.313  32.125   8.322 -0.0890 -0.0062 -0.2229
34687POPC   GL262227  13.413  31.919   8.140  0.1234 -0.1750 -0.1534
34687POPC   C1A62228  13.025  32.261   7.986 -0.2035 -0.2881 -0.0258
34687POPC   D2A62229  12.932  32.434   7.554  0.2216  0.2034  0.0818
34687POPC   C3A62230  13.128  32.234   7.214  0.1343  0.0939 -0.1005
34687POPC   C4A62231  13.232  31.993   6.868  0.0231 -0.0747 -0.0490
34687POPC   C1B62232  13.527  32.120   7.774 -0.1995  0.2155 -0.2022
34687POPC   C2B62233  13.599  32.314   7.351 -0.0447 -0.0032  0.3240
34687POPC   C3B62234  13.734  32.533   6.988 -0.1859  0.1065 -0.6178
34687POPC   C4B62235  14.075  32.857   6.976 -0.0812 -0.0395 -0.1730
34688POPC   NC362236  12.764  26.946  11.004  0.1610 -0.3686 -0.0230
34688POPC   PO462237  12.563  26.923  10.643  0.1933 -0.0158 -0.0316
34688POPC   GL162238  12.508  26.544  10.495  0.5013  0.0253  0.3387
34688POPC   GL262239  12.519  26.342  10.729  0.0957  0.1052 -0.2768
34688POPC   C1A62240  12.517  26.432  10.074 -0.2181  0.0855 -0.0292
34688POPC   D2A62241  12.362  25.981   9.916 -0.1921  0.1636  0.0129
34688POPC   C3A62242  12.042  25.938   9.576  0.1401  0.2143 -0.0175
34688POPC   C4A62243  12.002  25.755   9.161 -0.1446  0.0943  0.2693
34688POPC   C1B62244  12.342  25.939  10.531  0.4088  0.1435 -0.1299
34688POPC   C2B62245  12.342  25.578  10.280 -0.2588  0.3476 -0.1919
34688POPC   C3B62246  12.084  25.482   9.961 -0.3021  0.1079  0.1085
34688POPC   C4B62247  12.088  25.009   9.891  0.0370  0.0829  0.2617
34689POPC   NC362248  15.066  28.979   8.474  0.0824 -0.2311 -0.3939
34689POPC   PO462249  15.124  28.703   8.709 -0.0578  0.0439 -0.1967
34689POPC   GL162250  15.275  28.525   8.343 -0.0426 -0.1253 -0.1155
34689POPC   GL262251  15.138  28.260   8.342  0.4592 -0.0149  0.0174
34689POPC   C1A62252  15.399  28.405   7.962  0.2509  0.0430  0.0004
34689POPC   D2A62253  15.347  28.556   7.528  0.2122  0.0594 -0.0838
34689POPC   C3A62254  15.125  28.324   7.175  0.1302 -0.1366 -0.0882
34689POPC   C4A62255  14.934  28.225   6.761 -0.0117 -0.1422  0.1410
34689POPC   C1B62256  14.998  28.108   7.954 -0.1084  0.2399  0.0400
34689POPC   C2B62257  15.198  27.938   7.540  0.2041 -0.1477  0.0691
34689POPC   C3B62258  14.988  27.682   7.114  0.1431 -0.2660  0.0005
34689POPC   C4B62259  14.615  27.454   6.884 -0.3209 -0.0054 -0.1064
34690POPC   NC362260  13.482  18.315  11.299 -0.3026 -0.0277 -0.0681
34690POPC   PO462261  13.452  18.623  11.053 -0.1773  0.2493  0.0794
34690POPC   GL162262  13.341  18.893  11.213  0.0385  0.0523  0.2515
34690POPC   GL262263  13.436  19.114  11.020  0.2998  0.1655 -0.5360
34690POPC   C1A62264  13.033  19.072  11.509 -0.0737  0.1188  0.3352
34690POPC   D2A62265  12.920  19.202  11.940  0.0646  0.0772 -0.0369
34690POPC   C3A62266  12.702  19.548  12.110 -0.0375 -0.0308 -0.1012
34690POPC   C4A62267  12.475  19.779  12.449 -0.0143 -0.0219  0.1371
34690POPC   C1B62268  13.183  19.435  11.193 -0.0088  0.3031 -0.2161
34690POPC   C2B62269  12.735  19.476  11.229  0.1283 -0.0503 -0.1042
34690POPC   C3B62270  12.456  19.848  11.333  0.1584 -0.2156 -0.2402
34690POPC   C4B62271  12.496  20.253  11.494  0.0075  0.0359  0.0673
34691POPC   NC362272  11.426  32.475   9.178  0.3264 -0.2855 -0.1112
34691POPC   PO462273  11.343  32.844   9.167  0.3195 -0.1459  0.1678
34691POPC   GL162274  10.957  33.124   9.043 -0.3100  0.3232 -0.3358
34691POPC   GL262275  11.065  33.423   9.034  0.3311  0.0132  0.1458
34691POPC   C1A62276  10.786  33.251   8.648 -0.0046  0.0965  0.2078
34691POPC   D2A62277  10.755  33.080   8.261 -0.2748 -0.0344 -0.0638
34691POPC   C3A62278  10.434  33.209   7.939  0.0835 -0.3929 -0.1244
34691POPC   C4A62279  10.247  33.490   7.668  0.0301 -0.6377  0.2467
34691POPC   C1B62280  10.903  33.787   8.809  0.1832  0.0789  0.0411
34691POPC   C2B62281  10.580  34.129   8.930 -0.3392  0.1210 -0.1157
34691POPC   C3B62282  10.562  34.554   8.798 -0.2705  0.0442 -0.1531
34691POPC   C4B62283  10.424  34.995   8.682  0.2714  0.1339  0.0070
34692POPC   NC362284   0.751  17.594   8.378 -0.0045  0.1813 -0.0198
34692POPC   PO462285   1.013  17.839   8.305  0.2588 -0.1322 -0.2967
34692POPC   GL162286   1.189  17.751   7.940  0.0087  0.0308 -0.0283
34692POPC   GL262287   1.422  17.876   7.985  0.0619 -0.3166 -0.1542
34692POPC   C1A62288   1.095  17.454   7.608 -0.2143  0.2803 -0.0777
34692POPC   D2A62289   1.221  17.264   7.222 -0.3951  0.4165 -0.2825
34692POPC   C3A62290   1.660  17.366   7.143  0.2186 -0.0656 -0.1402
34692POPC   C4A62291   1.954  17.570   6.825  0.2229 -0.4390  0.0190
34692POPC   C1B62292   1.515  17.805   7.540 -0.0834  0.1654  0.3320
34692POPC   C2B62293   1.748  17.863   7.166 -0.3050 -0.3785  0.1261
34692POPC   C3B62294   1.780  18.030   6.755 -0.0230  0.1422  0.0159
34692POPC   C4B62295   1.926  18.331   6.367 -0.1357  0.0126 -0.3118
34693POPC   NC362296   4.600  20.759  10.732 -0.1453 -0.1933  0.0222
34693POPC   PO462297   4.845  21.042  10.619  0.1870 -0.1034 -0.1564
34693POPC   GL162298   5.186  21.038  10.397 -0.2085 -0.1599  0.2976
34693POPC   GL262299   5.174  20.761  10.316 -0.2125  0.0047 -0.4130
34693POPC   C1A62300   5.576  21.221  10.184  0.0120 -0.2574  0.0546
34693POPC   D2A62301   5.925  21.486   9.994 -0.0420  0.1371  0.0696
34693POPC   C3A62302   6.296  21.352   9.709  0.0480  0.2385 -0.1512
34693POPC   C4A62303   6.629  21.411   9.400 -0.1897  0.1897  0.0076
34693POPC   C1B62304   5.194  20.816   9.901 -0.0984 -0.1623  0.0618
34693POPC   C2B62305   5.261  20.990   9.485  0.3145  0.2549  0.1702
34693POPC   C3B62306   5.582  21.026   9.170 -0.1999  0.1982 -0.0390
34693POPC   C4B62307   5.724  20.997   8.721  0.0736 -0.0954  0.0627
34694POPC   NC362308   8.211  31.600   8.858  0.0404  0.3146  0.0493
34694POPC   PO462309   8.571  31.803   8.836 -0.0064  0.0502 -0.0937
34694POPC   GL162310   8.515  31.678   8.471 -0.1399 -0.0773 -0.1873
34694POPC   GL262311   8.527  32.029   8.393  0.0415 -0.0722  0.2143
34694POPC   C1A62312   8.379  31.680   8.026  0.1993  0.4053 -0.1058
34694POPC   D2A62313   8.208  31.415   7.725  0.1387  0.1231 -0.1390
34694POPC   C3A62314   8.472  31.476   7.338  0.1504  0.1307 -0.1675
34694POPC   C4A62315   8.390  31.369   6.879  0.0397  0.0103 -0.2751
34694POPC   C1B62316   8.508  32.205   7.987 -0.1376 -0.3223  0.1362
34694POPC   C2B62317   8.443  31.960   7.627  0.3915 -0.1366  0.3723
34694POPC   C3B62318   8.128  31.851   7.290 -0.1242 -0.1246  0.0364
34694POPC   C4B62319   8.133  32.011   6.856 -0.2080  0.2233 -0.1694
34695POPC   NC362320  14.339  27.878   9.289  0.1171 -0.0454 -0.3410
34695POPC   PO462321  13.963  27.959   9.139 -0.3123 -0.2388 -0.0811
34695POPC   GL162322  14.111  27.565   8.854  0.0020 -0.2105  0.5419
34695POPC   GL262323  13.911  27.338   8.843 -0.2245 -0.0116  0.0142
34695POPC   C1A62324  14.238  27.832   8.518  0.0093  0.0297 -0.1145
34695POPC   D2A62325  14.123  28.030   8.116  0.0545 -0.1298  0.0490
34695POPC   C3A62326  14.163  27.894   7.654 -0.2992  0.1820  0.0429
34695POPC   C4A62327  14.606  27.925   7.431 -0.2177 -0.0981  0.0191
34695POPC   C1B62328  13.713  27.504   8.479 -0.2545 -0.1794  0.1896
34695POPC   C2B62329  13.508  27.533   8.015 -0.0474 -0.0944 -0.0544
34695POPC   C3B62330  13.268  27.489   7.662 -0.2310 -0.3519 -0.1054
34695POPC   C4B62331  13.348  27.752   7.240 -0.1133  0.1463  0.0431
34696POPC   NC362332  15.209  21.798  14.632 -0.3631  0.0949  0.1872
34696POPC   PO462333  15.164  22.195  14.568  0.2393  0.0157 -0.0263
34696POPC   GL162334  14.849  22.115  14.791  0.2052  0.0499  0.2585
34696POPC   GL262335  14.623  22.011  14.693  0.1909 -0.0929 -0.1497
34696POPC   C1A62336  14.605  22.120  15.207 -0.1847 -0.0063 -0.0045
34696POPC   D2A62337  14.310  21.885  15.478  0.0849  0.1833 -0.1089
34696POPC   C3A62338  13.918  21.668  15.559  0.2536 -0.1349 -0.0897
34696POPC   C4A62339  13.699  21.306  15.689  0.6471 -0.0639 -0.0750
34696POPC   C1B62340  14.267  21.875  14.858  0.1864  0.5883  0.2217
34696POPC   C2B62341  13.856  21.722  15.050  0.0062  0.0837 -0.2805
34696POPC   C3B62342  13.519  21.471  15.207  0.2380  0.1779  0.2428
34696POPC   C4B62343  13.257  21.171  15.499  0.0619  0.0669  0.2133
34697POPC   NC362344   7.315  29.065   9.363 -0.1039 -0.1245 -0.1816
34697POPC   PO462345   7.585  29.107   9.031  0.3403 -0.0450  0.1837
34697POPC   GL162346   7.504  29.141   8.607 -0.0811 -0.0555 -0.2757
34697POPC   GL262347   7.432  29.402   8.403 -0.0724 -0.1416 -0.1702
34697POPC   C1A62348   7.805  29.032   8.225  0.0655  0.0102 -0.0207
34697POPC   D2A62349   7.924  28.979   7.773 -0.0101  0.5438 -0.4089
34697POPC   C3A62350   8.045  29.236   7.430 -0.2292 -0.0875  0.0345
34697POPC   C4A62351   8.263  29.412   7.070  0.4023  0.1529  0.0057
34697POPC   C1B62352   7.209  29.215   8.069  0.2784  0.0542  0.3168
34697POPC   C2B62353   6.951  28.965   7.761 -0.0552 -0.0946 -0.1097
34697POPC   C3B62354   6.868  28.767   7.359  0.1021  0.1057 -0.2371
34697POPC   C4B62355   6.687  28.853   6.986 -0.1870 -0.0726  0.1252
34698POPC   NC362356   2.640  23.897   9.094 -0.0805 -0.3547  0.1609
34698POPC   PO462357   2.467  23.581   9.016  0.0480  0.0524 -0.2034
34698POPC   GL162358   2.684  23.566   8.730 -0.1509  0.0031 -0.1170
34698POPC   GL262359   2.893  23.769   8.677 -0.1138  0.0830  0.3181
34698POPC   C1A62360   2.601  23.615   8.278  0.1118 -0.0703 -0.0852
34698POPC   D2A62361   2.796  23.434   7.895  0.2933  0.1389  0.0739
34698POPC   C3A62362   2.673  23.299   7.487  0.3756  0.0496  0.0097
34698POPC   C4A62363   2.297  23.069   7.367  0.0191  0.1747  0.0994
34698POPC   C1B62364   3.075  23.937   8.276  0.1583 -0.1006  0.0145
34698POPC   C2B62365   3.104  24.114   7.847  0.1118  0.2756 -0.1892
34698POPC   C3B62366   2.853  24.000   7.489 -0.0432  0.0561  0.0405
34698POPC   C4B62367   2.811  23.664   7.151 -0.1999  0.1570 -0.0248
34699POPC   NC362368  16.106  21.584   9.046  0.0170 -0.1494  0.0896
34699POPC   PO462369  15.910  21.903   9.129 -0.1785  0.0070  0.1733
34699POPC   GL162370  15.761  21.770   8.790 -0.0002 -0.0917  0.1248
34699POPC   GL262371  15.895  21.976   8.602  0.1588 -0.0168 -0.1649
34699POPC   C1A62372  15.447  21.627   8.457 -0.0015 -0.3814  0.0735
34699POPC   D2A62373  15.224  21.789   8.086 -0.2089  0.0993  0.0195
34699POPC   C3A62374  15.308  21.904   7.625 -0.1304 -0.2481  0.0945
34699POPC   C4A62375  15.571  21.819   7.280  0.0487  0.1205  0.2711
34699POPC   C1B62376  15.511  22.118   8.451  0.0093  0.1760  0.2014
34699POPC   C2B62377  15.448  22.303   8.040  0.1586 -0.2184 -0.0209
34699POPC   C3B62378  15.193  22.583   7.802  0.1675 -0.0367  0.0353
34699POPC   C4B62379  15.083  22.771   7.379 -0.0963 -0.0353 -0.1329
34700POPC   NC362380  16.153  29.669   8.074  0.0470 -0.1645  0.1425
34700POPC   PO462381  16.402  29.979   8.133  0.0599 -0.0052  0.1127
34700POPC   GL162382  16.569  29.803   7.727  0.0537  0.2566 -0.1562
34700POPC   GL262383  16.854  29.677   7.744 -0.2753  0.1807  0.0887
34700POPC   C1A62384  16.630  29.809   7.266 -0.1331  0.1329 -0.2202
34700POPC   D2A62385  16.583  30.042   6.905 -0.1601 -0.0009 -0.3744
34700POPC   C3A62386  16.230  29.968   6.600 -0.3137 -0.0841 -0.0293
34700POPC   C4A62387  15.897  29.648   6.513  0.1393 -0.3025  0.2432
34700POPC   C1B62388  16.559  29.385   7.542 -0.2925 -0.4220  0.1004
34700POPC   C2B62389  16.543  29.343   7.108 -0.1874  0.2411  0.1319
34700POPC   C3B62390  16.643  29.123   6.689 -0.3023 -0.3050 -0.3233
34700POPC   C4B62391  16.672  28.877   6.296 -0.1742 -0.0521  0.2609
34701POPC   NC362392  13.789  19.004   9.754 -0.0032 -0.1749  0.1952
34701POPC   PO462393  13.516  18.792   9.578  0.2389 -0.3610  0.0182
34701POPC   GL162394  13.241  19.045   9.462  0.2061  0.1480  0.1387
34701POPC   GL262395  13.019  18.807   9.580  0.1027 -0.2041 -0.1961
34701POPC   C1A62396  13.106  19.263   9.038 -0.2327 -0.3494  0.0346
34701POPC   D2A62397  12.913  19.541   8.798  0.2117 -0.2741 -0.0246
34701POPC   C3A62398  12.857  19.842   9.142  0.2646 -0.1206 -0.1389
34701POPC   C4A62399  12.851  20.038   9.558  0.0907  0.1886 -0.0043
34701POPC   C1B62400  12.722  19.050   9.398 -0.0507  0.2287  0.1137
34701POPC   C2B62401  12.509  19.366   9.071  0.2267 -0.1490  0.1268
34701POPC   C3B62402  12.388  19.803   8.927  0.0140  0.0587 -0.0556
34701POPC   C4B62403  12.138  20.202   8.854  0.0550  0.1300  0.0274
34702POPC   NC362404   4.313  22.921  10.322  0.0761 -0.6334  0.1107
34702POPC   PO462405   4.487  23.202  10.534  0.1458 -0.1016 -0.0440
34702POPC   GL162406   4.780  23.028  10.357  0.0355  0.2972  0.2034
34702POPC   GL262407   4.985  23.139  10.503  0.1418  0.0936  0.0826
34702POPC   C1A62408   5.148  22.988  10.031  0.1114  0.2658  0.0560
34702POPC   D2A62409   5.409  22.835   9.741  0.2095 -0.1732  0.0695
34702POPC   C3A62410   5.688  22.949   9.380  0.0239  0.2828 -0.2387
34702POPC   C4A62411   6.014  22.796   9.084  0.2430 -0.0079  0.0665
34702POPC   C1B62412   5.369  23.236  10.333 -0.3446  0.1691 -0.3103
34702POPC   C2B62413   5.786  23.387  10.292  0.1970 -0.0770 -0.1584
34702POPC   C3B62414   6.147  23.539  10.190  0.0489  0.1242  0.1298
34702POPC   C4B62415   6.211  23.758   9.831 -0.0616  0.1140  0.0620
34703POPC   NC362416  15.327  22.635  10.071 -0.1989  0.1233 -0.3947
34703POPC   PO462417  15.390  23.000  10.199 -0.1988 -0.0665  0.1094
34703POPC   GL162418  15.276  23.180   9.913  0.5453  0.1746  0.1108
34703POPC   GL262419  15.051  22.985   9.815 -0.1984  0.1118  0.3407
34703POPC   C1A62420  15.407  23.127   9.526  0.2817 -0.2388  0.2761
34703POPC   D2A62421  15.307  23.289   9.074 -0.3504 -0.0775 -0.2111
34703POPC   C3A62422  14.943  23.295   8.786 -0.0986  0.0091  0.0693
34703POPC   C4A62423  14.733  23.295   8.340 -0.1154 -0.1413  0.0305
34703POPC   C1B62424  14.911  22.556   9.778  0.3262  0.0179  0.0236
34703POPC   C2B62425  14.481  22.394   9.636  0.0260  0.0932 -0.0314
34703POPC   C3B62426  14.021  22.418   9.541 -0.0285  0.2462 -0.0960
34703POPC   C4B62427  13.650  22.229   9.583  0.0263 -0.0608  0.0385
34704POPC   NC362428  16.319  30.316   7.753 -0.0303  0.2487  0.4192
34704POPC   PO462429  16.004  30.057   7.810  0.0822 -0.0298  0.3124
34704POPC   GL162430  15.906  30.038   7.474 -0.0823 -0.1224  0.4674
34704POPC   GL262431  16.146  30.047   7.271 -0.0742 -0.1200 -0.1826
34704POPC   C1A62432  15.629  29.821   7.179  0.1016  0.1597  0.1074
34704POPC   D2A62433  15.592  29.459   6.947  0.1518  0.0472  0.0224
34704POPC   C3A62434  15.378  29.060   7.122 -0.2743  0.0856  0.0241
34704POPC   C4A62435  15.481  28.670   6.851  0.0178  0.2508 -0.2761
34704POPC   C1B62436  16.189  30.415   6.947 -0.1703 -0.4242 -0.2061
34704POPC   C2B62437  16.391  30.643   6.623 -0.1100  0.3089  0.0900
34704POPC   C3B62438  16.296  30.699   6.130  0.0545  0.0037 -0.0688
34704POPC   C4B62439  16.108  30.567   5.748  0.1009  0.2975  0.2078
34705POPC   NC362440   6.672  18.379  12.708  0.0327 -0.5523  0.0963
34705POPC   PO462441   6.844  18.675  12.509  0.0444  0.2159 -0.0228
34705POPC   GL162442   7.216  18.818  12.697 -0.0105 -0.2177 -0.0797
34705POPC   GL262443   7.331  18.860  12.488  0.1086  0.0752  0.0310
34705POPC   C1A62444   7.311  19.311  12.744  0.2810  0.0749 -0.1861
34705POPC   D2A62445   7.623  19.589  12.900 -0.1434 -0.0109 -0.3054
34705POPC   C3A62446   7.982  19.502  13.168 -0.3617  0.1000 -0.0246
34705POPC   C4A62447   8.272  19.346  13.495  0.1062  0.0301 -0.3787
34705POPC   C1B62448   7.714  18.997  12.704  0.0578  0.1282 -0.3013
34705POPC   C2B62449   8.077  19.251  12.612 -0.0549  0.1161 -0.1001
34705POPC   C3B62450   8.209  19.730  12.763 -0.1017  0.1524  0.0574
34705POPC   C4B62451   8.551  20.085  12.806 -0.1920  0.0429 -0.0311
34706POPC   NC362452  16.345  20.674   9.038 -0.0856  0.1944 -0.1754
34706POPC   PO462453  16.030  20.480   8.869  0.1029 -0.1109 -0.2404
34706POPC   GL162454  16.268  20.441   8.623 -0.1613  0.2725  0.0430
34706POPC   GL262455  16.442  20.163   8.623  0.1607  0.0368 -0.0789
34706POPC   C1A62456  16.378  20.570   8.185  0.0740 -0.1274  0.3669
34706POPC   D2A62457  16.509  20.807   7.784 -0.0668  0.1285  0.1630
34706POPC   C3A62458  16.126  20.982   7.536  0.1246  0.1044  0.2140
34706POPC   C4A62459  15.932  21.354   7.390 -0.1278 -0.0617 -0.0386
34706POPC   C1B62460  16.746  20.095   8.249  0.1367 -0.2821 -0.0003
34706POPC   C2B62461  16.702  20.090   7.780  0.0359 -0.1846 -0.0788
34706POPC   C3B62462  16.655  20.091   7.285 -0.0373  0.2259  0.0444
34706POPC   C4B62463  16.593  19.770   6.946  0.1300  0.0637 -0.0430
34707POPC   NC362464   6.709  17.671  14.416 -0.2234 -0.0072 -0.1948
34707POPC   PO462465   7.023  17.492  14.444 -0.0689  0.0206 -0.1582
34707POPC   GL162466   7.056  17.804  14.695  0.0290  0.0313  0.0234
34707POPC   GL262467   6.987  17.781  14.958  0.0775 -0.2346  0.2128
34707POPC   C1A62468   7.433  18.073  14.669  0.0158  0.0105 -0.0741
34707POPC   D2A62469   7.687  18.351  15.045 -0.4798 -0.4312  0.2650
34707POPC   C3A62470   7.851  18.470  15.434  0.0276 -0.0875 -0.1522
34707POPC   C4A62471   8.279  18.571  15.644 -0.0930  0.0624  0.5151
34707POPC   C1B62472   7.224  18.162  15.160 -0.1262 -0.1537  0.0268
34707POPC   C2B62473   7.401  18.334  15.493 -0.0245 -0.1670 -0.4780
34707POPC   C3B62474   7.647  18.344  15.913 -0.0866  0.1393 -0.0704
34707POPC   C4B62475   8.064  18.333  16.113  0.1275  0.2486  0.1920
34708POPC   NC362476   8.014  23.080   8.966 -0.0492 -0.1598 -0.2751
34708POPC   PO462477   8.000  22.993   9.349 -0.0590  0.2062  0.0615
34708POPC   GL162478   7.795  22.930   9.775  0.0843 -0.1323 -0.0854
34708POPC   GL262479   8.056  23.136   9.894  0.1249 -0.0983 -0.2212
34708POPC   C1A62480   7.569  22.817  10.178 -0.2576 -0.2760 -0.0528
34708POPC   D2A62481   7.074  22.739  10.148  0.0096  0.2200 -0.1432
34708POPC   C3A62482   6.809  23.123  10.010  0.0132  0.1164 -0.0203
34708POPC   C4A62483   6.595  23.483   9.769 -0.4837 -0.0161  0.2875
34708POPC   C1B62484   7.643  23.271  10.070 -0.1859 -0.2419 -0.0234
34708POPC   C2B62485   7.273  23.216  10.275  0.0876 -0.0687 -0.0890
34708POPC   C3B62486   7.254  23.065  10.743  0.1643 -0.1051  0.0739
34708POPC   C4B62487   7.245  23.042  11.182  0.2129  0.0907 -0.0739
34709POPC   NC362488   6.218  27.746   5.339  0.0242 -0.0263  0.1992
34709POPC   PO462489   6.076  28.087   5.280  0.2014  0.0772 -0.2440
34709POPC   GL162490   6.269  28.276   5.529  0.7262 -0.2435 -0.0624
34709POPC   GL262491   6.261  28.056   5.773 -0.1078 -0.0463 -0.1681
34709POPC   C1A62492   6.491  28.487   5.934 -0.0447 -0.3182 -0.1989
34709POPC   D2A62493   6.558  28.639   6.356  0.0023 -0.1331  0.2277
34709POPC   C3A62494   6.425  29.091   6.417 -0.1831 -0.3520 -0.0151
34709POPC   C4A62495   6.539  29.423   6.765 -0.1903  0.1577  0.0887
34709POPC   C1B62496   6.077  28.267   6.124  0.0547  0.2023 -0.2049
34709POPC   C2B62497   5.847  28.347   6.498  0.1198  0.2173  0.0199
34709POPC   C3B62498   5.621  28.615   6.774 -0.0031  0.0357 -0.0281
34709POPC   C4B62499   5.372  28.942   7.021  0.0980 -0.1174  0.0971
34710POPC   NC362500  14.386  25.673   4.759  0.0212  0.1606  0.0046
34710POPC   PO462501  14.492  25.890   5.091 -0.3962  0.2894  0.4899
34710POPC   GL162502  14.828  26.089   5.318  0.4473  0.1253 -0.2597
34710POPC   GL262503  14.906  26.005   5.577 -0.2776 -0.0575  0.0851
34710POPC   C1A62504  14.621  26.495   5.456  0.0139  0.1121  0.0832
34710POPC   D2A62505  14.322  26.810   5.643  0.0889 -0.2422  0.0166
34710POPC   C3A62506  14.192  26.892   6.057  0.2872  0.3484 -0.0639
34710POPC   C4A62507  14.257  26.833   6.514  0.1167  0.1529 -0.2200
34710POPC   C1B62508  15.086  26.102   5.992  0.3595  0.0602  0.2065
34710POPC   C2B62509  15.541  26.010   6.223 -0.1275  0.3879 -0.1016
34710POPC   C3B62510  15.853  25.644   6.256 -0.4267  0.1346  0.0560
34710POPC   C4B62511  16.072  25.220   6.231  0.0173  0.0944 -0.3795
34711POPC   NC362512  15.665  17.356   4.460  0.0697 -0.0444 -0.3587
34711POPC   PO462513  15.378  17.104   4.429  0.1715  0.0579  0.3952
34711POPC   GL162514  15.400  17.006   4.757  0.3232  0.4481 -0.3394
34711POPC   GL262515  15.681  17.068   4.897  0.2482 -0.1599 -0.1051
34711POPC   C1A62516  15.079  16.751   4.966 -0.2602 -0.1682 -0.1968
34711POPC   D2A62517  14.864  16.485   5.282 -0.0324 -0.0009 -0.2584
34711POPC   C3A62518  14.706  16.232   5.744  0.2372 -0.0262  0.0055
34711POPC   C4A62519  14.674  16.239   6.189  0.0500  0.1871 -0.0245
34711POPC   C1B62520  15.708  16.891   5.297  0.1249 -0.0328 -0.0207
34711POPC   C2B62521  15.699  16.695   5.723 -0.0880 -0.0940  0.2439
34711POPC   C3B62522  15.662  16.293   5.975  0.0571  0.0636 -0.2762
34711POPC   C4B62523  15.929  15.928   6.119  0.1341  0.6458 -0.2575
34712POPC   NC362524   4.591  23.769   5.899 -0.1037 -0.1463  0.0158
34712POPC   PO462525   4.751  23.418   5.894  0.0983 -0.5399 -0.1739
34712POPC   GL162526   4.637  23.533   6.313 -0.1115  0.3071 -0.6417
34712POPC   GL262527   4.476  23.259   6.267  0.0570 -0.3291 -0.0555
34712POPC   C1A62528   4.498  23.460   6.756 -0.0013  0.2609  0.1514
34712POPC   D2A62529   4.180  23.404   7.150 -0.0992  0.0292 -0.0778
34712POPC   C3A62530   3.829  23.729   7.238 -0.1285 -0.1370 -0.0919
34712POPC   C4A62531   3.980  24.132   7.368 -0.1703  0.0027  0.3553
34712POPC   C1B62532   4.181  23.073   6.606 -0.4232  0.2396 -0.2434
34712POPC   C2B62533   4.044  22.945   7.058 -0.1694 -0.2723 -0.0728
34712POPC   C3B62534   3.836  23.035   7.399  0.3057  0.0978 -0.1707
34712POPC   C4B62535   3.575  23.374   7.594 -0.2924 -0.1398 -0.3442
34713POPC   NC362536   8.695  21.053   9.550  0.1117  0.1015 -0.2961
34713POPC   PO462537   8.604  21.109   9.202  0.1847  0.0606 -0.1389
34713POPC   GL162538   8.356  20.859   9.339  0.1724  0.1474  0.0410
34713POPC   GL262539   8.146  21.074   9.429 -0.2246  0.1448 -0.0038
34713POPC   C1A62540   8.380  20.633   9.746  0.2409 -0.2244 -0.1718
34713POPC   D2A62541   8.595  20.496  10.083  0.0844  0.0767 -0.1163
34713POPC   C3A62542   8.509  20.312  10.456 -0.1867  0.1767 -0.0435
34713POPC   C4A62543   8.555  19.870  10.605  0.0217  0.1019 -0.2964
34713POPC   C1B62544   7.720  21.081   9.496 -0.0469 -0.0731  0.2369
34713POPC   C2B62545   7.259  21.196   9.708 -0.1520 -0.4467  0.0781
34713POPC   C3B62546   6.914  21.025   9.440 -0.3004  0.3771 -0.2152
34713POPC   C4B62547   6.483  20.911   9.316  0.1499  0.1665 -0.3492
34714POPC   NC362548  10.865  20.880   7.484 -0.5287 -0.3971 -0.0561
34714POPC   PO462549  11.126  20.672   7.314 -0.3617  0.0808  0.2111
34714POPC   GL162550  11.178  20.402   7.644  0.3734  0.1693  0.3776
34714POPC   GL262551  10.916  20.284   7.564 -0.0056 -0.0660  0.0660
34714POPC   C1A62552  11.505  20.188   7.916  0.1838 -0.0839  0.0263
34714POPC   D2A62553  11.408  20.036   8.342 -0.0173 -0.0322 -0.0770
34714POPC   C3A62554  11.606  19.674   8.610  0.3806 -0.0998  0.2234
34714POPC   C4A62555  11.831  19.399   8.912  0.2296  0.0731  0.1163
34714POPC   C1B62556  10.862  20.216   8.033 -0.2304 -0.1630 -0.1327
34714POPC   C2B62557  10.829  20.236   8.497  0.0135  0.0850 -0.1859
34714POPC   C3B62558  11.009  20.046   8.936 -0.0289 -0.2310 -0.2006
34714POPC   C4B62559  11.165  20.179   9.335  0.2662 -0.0007  0.0906
34715POPC   NC362560  12.596  18.020   4.667 -0.1155  0.2455 -0.2368
34715POPC   PO462561  12.484  17.812   5.027  0.1598 -0.0038 -0.0599
34715POPC   GL162562  12.445  17.730   5.380  0.2730  0.3736 -0.2190
34715POPC   GL262563  12.673  17.468   5.348 -0.1782 -0.0251 -0.0306
34715POPC   C1A62564  12.518  17.871   5.821 -0.0652 -0.0040  0.1887
34715POPC   D2A62565  12.693  17.885   6.280 -0.1834 -0.2571  0.1418
34715POPC   C3A62566  12.810  17.420   6.321 -0.1148 -0.1527 -0.1884
34715POPC   C4A62567  12.951  16.963   6.246 -0.0419 -0.2421 -0.1622
34715POPC   C1B62568  13.039  17.663   5.665  0.1544  0.0250  0.1860
34715POPC   C2B62569  13.256  17.794   6.065 -0.1427  0.0138 -0.1096
34715POPC   C3B62570  13.615  17.591   6.239  0.1310  0.0060 -0.0637
34715POPC   C4B62571  13.998  17.358   6.336  0.0763 -0.2715  0.0396
34716POPC   NC362572   2.541  17.139   4.328  0.0630  0.5601  0.2432
34716POPC   PO462573   2.680  16.794   4.298 -0.1768  0.0004 -0.0026
34716POPC   GL162574   2.518  16.578   4.656  0.2305 -0.0722  0.0635
34716POPC   GL262575   2.305  16.802   4.700  0.0174  0.3123 -0.0784
34716POPC   C1A62576   2.784  16.453   5.016  0.2285 -0.0211  0.2457
34716POPC   D2A62577   2.631  16.422   5.449 -0.1042  0.0137  0.3259
34716POPC   C3A62578   2.799  16.208   5.830  0.1243  0.0843  0.0113
34716POPC   C4A62579   2.866  15.816   6.027 -0.1109  0.0068  0.2713
34716POPC   C1B62580   2.196  16.927   5.145 -0.0924  0.0607 -0.0584
34716POPC   C2B62581   2.017  16.902   5.601  0.3530  0.0442 -0.3854
34716POPC   C3B62582   1.990  16.840   6.092 -0.0778 -0.3864 -0.1808
34716POPC   C4B62583   1.682  16.840   6.423  0.0184  0.0720  0.1653
34717POPC   NC362584   3.932  23.887   5.319 -0.0864 -0.0577  0.3508
34717POPC   PO462585   4.187  23.632   5.384 -0.2356  0.0403  0.2869
34717POPC   GL162586   4.008  23.658   5.798 -0.3388 -0.4023  0.2792
34717POPC   GL262587   4.240  23.414   5.872  0.0393 -0.1226 -0.0736
34717POPC   C1A62588   3.894  23.925   6.150 -0.0004 -0.1033 -0.0047
34717POPC   D2A62589   3.902  24.063   6.622  0.1409 -0.0493  0.1258
34717POPC   C3A62590   4.226  24.187   6.905 -0.2114  0.0979 -0.0720
34717POPC   C4A62591   4.558  23.836   7.043 -0.0020 -0.0546  0.2666
34717POPC   C1B62592   4.061  23.501   6.276  0.2324  0.1675 -0.0391
34717POPC   C2B62593   3.883  23.533   6.718 -0.0083 -0.1145 -0.0759
34717POPC   C3B62594   3.593  23.332   7.081 -0.1146  0.0603  0.0079
34717POPC   C4B62595   3.127  23.260   7.135 -0.0375  0.3323 -0.0625
34718POPC   NC362596   3.583  17.892   5.065  0.2048  0.1795 -0.1759
34718POPC   PO462597   3.494  17.589   5.324 -0.0778 -0.0758  0.0114
34718POPC   GL162598   3.438  17.624   5.675  0.2631  0.1107  0.4895
34718POPC   GL262599   3.701  17.507   5.798  0.1053 -0.2291 -0.0615
34718POPC   C1A62600   3.585  17.873   6.071  0.1136 -0.0382  0.0577
34718POPC   D2A62601   3.464  17.790   6.545  0.2111  0.1124  0.0536
34718POPC   C3A62602   3.255  17.378   6.606  0.0907 -0.0469 -0.0449
34718POPC   C4A62603   2.870  17.214   6.790  0.2129  0.1057  0.0498
34718POPC   C1B62604   3.746  17.438   6.240  0.0543 -0.0502  0.3061
34718POPC   C2B62605   3.921  17.247   6.640 -0.0267  0.0365 -0.0392
34718POPC   C3B62606   3.902  17.051   7.104  0.0252 -0.2288 -0.1159
34718POPC   C4B62607   4.068  16.944   7.506  0.1079  0.3116 -0.0336
34719POPC   NC362608  11.448  22.242   7.976 -0.4941 -0.1622 -0.0187
34719POPC   PO462609  11.512  22.223   8.334  0.0958 -0.3187 -0.0103
34719POPC   GL162610  11.911  22.096   8.343 -0.3602 -0.2058  0.1316
34719POPC   GL262611  12.030  21.940   8.185 -0.0280  0.1192 -0.2174
34719POPC   C1A62612  12.374  22.282   8.303 -0.1759 -0.2224  0.1909
34719POPC   D2A62613  12.762  22.553   8.239  0.2049  0.2183 -0.0527
34719POPC   C3A62614  12.838  22.860   8.613  0.1240  0.0165  0.1276
34719POPC   C4A62615  13.088  23.015   8.947  0.2375 -0.2534 -0.4238
34719POPC   C1B62616  12.152  21.858   8.611 -0.0192 -0.1385  0.0723
34719POPC   C2B62617  12.157  21.474   8.938  0.0372 -0.1700  0.2555
34719POPC   C3B62618  12.376  21.058   8.920  0.1165  0.2505 -0.0669
34719POPC   C4B62619  12.595  20.697   8.946 -0.3026 -0.0521  0.2233
34720POPC   NC362620   4.405  22.493   5.709 -0.0900 -0.0845 -0.2352
34720POPC   PO462621   4.650  22.339   6.014  0.0916 -0.1738 -0.1555
34720POPC   GL162622   4.378  22.449   6.210  0.1437  0.0277  0.0276
34720POPC   GL262623   4.401  22.611   6.384 -0.2702 -0.1726  0.1343
34720POPC   C1A62624   4.148  22.196   6.561  0.0748 -0.0801  0.0323
34720POPC   D2A62625   4.119  22.060   7.012  0.0943 -0.2618 -0.0066
34720POPC   C3A62626   3.777  21.948   7.249 -0.0663  0.2178  0.0937
34720POPC   C4A62627   3.817  21.551   7.572  0.3754 -0.1467  0.1048
34720POPC   C1B62628   4.343  22.614   6.849  0.0161 -0.0273  0.1651
34720POPC   C2B62629   4.348  22.475   7.249  0.1742 -0.0923 -0.2362
34720POPC   C3B62630   4.385  22.144   7.530 -0.0045  0.0586 -0.2571
34720POPC   C4B62631   4.302  21.654   7.717 -0.2263 -0.1181  0.1605
34721POPC   NC362632   8.792   1.433   5.352 -0.1288 -0.1460  0.2476
34721POPC   PO462633   8.851   1.001   5.307 -0.1251 -0.0321 -0.3444
34721POPC   GL162634   8.612   0.975   5.759  0.0969 -0.2765  0.1642
34721POPC   GL262635   8.542   0.752   5.740 -0.0861  0.3433  0.1359
34721POPC   C1A62636   8.161   1.058   5.918  0.1580  0.0010  0.0280
34721POPC   D2A62637   7.767   1.064   6.124  0.2946  0.0193  0.1039
34721POPC   C3A62638   7.524   0.707   6.348 -0.1872 -0.1088 -0.1307
34721POPC   C4A62639   7.186   0.555   6.606  0.2253 -0.0634 -0.1710
34721POPC   C1B62640   8.601   0.404   6.029  0.1779  0.0793 -0.1735
34721POPC   C2B62641   8.359   0.178   6.332  0.0915  0.0970 -0.1658
34721POPC   C3B62642   8.208  -0.132   6.606 -0.0126 -0.0586 -0.0363
34721POPC   C4B62643   7.837  -0.342   6.789 -0.1660 -0.0567  0.0414
34722POPC   NC362644   0.098  19.276   4.490 -0.1770  0.2054  0.0387
34722POPC   PO462645  -0.194  19.509   4.608 -0.1288  0.0276 -0.0189
34722POPC   GL162646  -0.271  19.139   4.834  0.0499 -0.5170  0.0879
34722POPC   GL262647  -0.466  19.255   5.051 -0.3351 -0.1202 -0.0129
34722POPC   C1A62648  -0.264  18.787   5.121  0.1249 -0.1644  0.0300
34722POPC   D2A62649  -0.074  18.724   5.533  0.2894  0.1263 -0.0694
34722POPC   C3A62650  -0.374  18.711   5.866 -0.1330 -0.2395 -0.2528
34722POPC   C4A62651  -0.391  18.748   6.267  0.0141 -0.1702 -0.1222
34722POPC   C1B62652  -0.325  19.224   5.439 -0.0219  0.4758  0.0407
34722POPC   C2B62653  -0.340  19.349   5.888  0.2718  0.0195  0.1529
34722POPC   C3B62654  -0.250  19.281   6.332 -0.1840 -0.1306 -0.1866
34722POPC   C4B62655  -0.159  19.225   6.817  0.1458 -0.2922 -0.1045
34723POPC   NC362656   8.337  28.954   5.028 -0.3112 -0.0728  0.0185
34723POPC   PO462657   8.704  28.800   5.230  0.0837 -0.0580 -0.0960
34723POPC   GL162658   8.436  28.829   5.505  0.1331 -0.6305  0.2235
34723POPC   GL262659   8.234  28.974   5.632 -0.0622  0.1214 -0.0396
34723POPC   C1A62660   8.393  28.547   5.877  0.0759  0.2628  0.0131
34723POPC   D2A62661   8.479  28.336   6.304  0.0711  0.0357  0.0583
34723POPC   C3A62662   8.176  28.325   6.675  0.0608  0.1523  0.0022
34723POPC   C4A62663   8.023  28.243   7.125 -0.1882  0.0183 -0.2729
34723POPC   C1B62664   8.280  29.370   5.864  0.0423 -0.5519  0.0746
34723POPC   C2B62665   8.270  29.743   6.170 -0.1354  0.0968 -0.1171
34723POPC   C3B62666   8.281  29.976   6.619 -0.0929 -0.2784  0.1666
34723POPC   C4B62667   8.380  30.379   6.753  0.2911  0.0019  0.0266
34724POPC   NC362668   4.842  31.116   4.715 -0.2608  0.1358 -0.2975
34724POPC   PO462669   4.504  31.061   4.482  0.1758 -0.1420  0.1371
34724POPC   GL162670   4.320  30.997   4.768 -0.3122  0.1513 -0.0691
34724POPC   GL262671   4.044  30.889   4.613 -0.3672 -0.1238 -0.5037
34724POPC   C1A62672   4.187  31.378   5.029  0.0903  0.2963 -0.0225
34724POPC   D2A62673   4.025  31.693   5.328  0.0690 -0.2378 -0.0492
34724POPC   C3A62674   4.245  31.812   5.746 -0.1011  0.1518 -0.2474
34724POPC   C4A62675   4.280  32.004   6.151  0.2034  0.1651  0.1223
34724POPC   C1B62676   4.015  30.572   4.916 -0.4790 -0.0502 -0.4243
34724POPC   C2B62677   3.827  30.440   5.318  0.0306  0.1249  0.2162
34724POPC   C3B62678   3.616  30.184   5.603 -0.1239 -0.0666 -0.4238
34724POPC   C4B62679   3.139  30.143   5.766  0.4863  0.0717  0.1006
34725POPC   NC362680  10.568  21.234  11.595  0.1057  0.0498  0.2896
34725POPC   PO462681  10.292  21.426  11.825 -0.5272 -0.1216 -0.0357
34725POPC   GL162682  10.425  21.101  12.029 -0.0176 -0.1666  0.0793
34725POPC   GL262683  10.667  21.152  12.156  0.1073 -0.0311 -0.1752
34725POPC   C1A62684  10.588  20.645  11.982  0.1283 -0.0420  0.1388
34725POPC   D2A62685  10.985  20.500  11.842 -0.2836  0.2955 -0.0566
34725POPC   C3A62686  11.344  20.259  11.858 -0.0620 -0.0558 -0.0115
34725POPC   C4A62687  11.435  19.912  12.055  0.0418 -0.1252  0.0950
34725POPC   C1B62688  10.963  20.963  11.905  0.0805 -0.2467 -0.2255
34725POPC   C2B62689  11.425  20.839  12.007 -0.2167  0.1346 -0.0147
34725POPC   C3B62690  11.896  20.800  12.070  0.2566  0.0144  0.0922
34725POPC   C4B62691  12.277  20.753  11.758  0.2555 -0.3771  0.2335
34726POPC   NC362692  12.022  30.103   4.058  0.1122 -0.1207  0.2393
34726POPC   PO462693  11.920  30.463   4.199 -0.2005  0.0957  0.0910
34726POPC   GL162694  11.883  30.455   4.606  0.2467  0.0838 -0.1373
34726POPC   GL262695  12.052  30.235   4.661  0.1638  0.0783 -0.2221
34726POPC   C1A62696  11.963  30.691   4.977  0.2664  0.0203  0.2901
34726POPC   D2A62697  12.107  30.893   5.393 -0.1222  0.0008 -0.2906
34726POPC   C3A62698  12.486  30.629   5.394 -0.2324  0.1231 -0.0710
34726POPC   C4A62699  12.574  30.159   5.377 -0.2750  0.2126  0.2584
34726POPC   C1B62700  12.429  30.124   4.501 -0.3741 -0.2769 -0.0646
34726POPC   C2B62701  12.813  30.092   4.776 -0.0321  0.1167  0.0125
34726POPC   C3B62702  13.051  29.972   5.208  0.1967  0.3124  0.1550
34726POPC   C4B62703  13.041  30.014   5.711  0.0240 -0.1740  0.2060
34727POPC   NC362704  12.690  32.262   4.354 -0.2167  0.0150  0.1853
34727POPC   PO462705  12.366  32.470   4.491  0.4096 -0.1767 -0.0111
34727POPC   GL162706  12.529  32.225   4.800 -0.1036 -0.1054  0.3108
34727POPC   GL262707  12.890  32.120   4.796 -0.2172  0.2239  0.1259
34727POPC   C1A62708  12.763  32.471   5.113 -0.5457 -0.1148  0.3107
34727POPC   D2A62709  13.080  32.732   5.255 -0.0062  0.0207 -0.0327
34727POPC   C3A62710  13.183  32.713   5.665 -0.2141 -0.0435 -0.1902
34727POPC   C4A62711  13.140  32.492   6.066 -0.1023  0.2799  0.4019
34727POPC   C1B62712  12.726  31.952   5.167 -0.1595  0.0527  0.2791
34727POPC   C2B62713  12.621  31.851   5.599 -0.2944  0.0985 -0.3056
34727POPC   C3B62714  12.265  31.824   5.965 -0.0521 -0.0558 -0.3661
34727POPC   C4B62715  11.919  31.945   6.260  0.3161 -0.1429  0.0101
34728POPC   NC362716  11.063  21.514  12.279  0.1468  0.4797 -0.0402
34728POPC   PO462717  10.817  21.423  12.580 -0.0758  0.2111  0.3899
34728POPC   GL162718  11.063  21.009  12.358  0.0251  0.2020 -0.2556
34728POPC   GL262719  11.326  21.127  12.456 -0.1896  0.1913  0.3133
34728POPC   C1A62720  11.013  20.546  12.288 -0.1137 -0.1038 -0.1370
34728POPC   D2A62721  10.910  20.088  12.149  0.1071 -0.0439  0.0003
34728POPC   C3A62722  10.569  19.848  11.978 -0.0414  0.1456  0.2518
34728POPC   C4A62723  10.353  19.503  11.896  0.0752  0.1974 -0.3100
34728POPC   C1B62724  11.483  20.644  12.460  0.2706 -0.0560 -0.1830
34728POPC   C2B62725  11.712  20.342  12.796 -0.0293  0.0586  0.3536
34728POPC   C3B62726  11.837  19.953  12.985 -0.2788  0.1220  0.2033
34728POPC   C4B62727  11.532  19.637  13.103  0.2426  0.2158 -0.1314
34729POPC   NC362728  11.456  23.124   9.362 -0.1934 -0.1390  0.0057
34729POPC   PO462729  11.266  22.761   9.268  0.1362 -0.0285 -0.0144
34729POPC   GL162730  11.712  22.744   9.214 -0.1008 -0.2004  0.0441
34729POPC   GL262731  11.837  22.423   9.204 -0.0951 -0.1053 -0.1131
34729POPC   C1A62732  12.013  22.936   9.549 -0.0721 -0.0293  0.1819
34729POPC   D2A62733  12.217  23.196   9.880 -0.1223 -0.0251  0.3226
34729POPC   C3A62734  12.604  23.019   9.758  0.2093 -0.0666 -0.2857
34729POPC   C4A62735  12.972  22.981   9.529  0.3039  0.0416 -0.2145
34729POPC   C1B62736  12.254  22.526   9.331 -0.1763 -0.1052  0.0506
34729POPC   C2B62737  12.768  22.475   9.205 -0.1715  0.1169 -0.0313
34729POPC   C3B62738  13.192  22.508   9.397 -0.0116 -0.1556  0.0455
34729POPC   C4B62739  13.533  22.728   9.272 -0.1318 -0.4548  0.0257
34730POPC   NC362740   8.572  18.755   6.284 -0.1302 -0.3491 -0.1764
34730POPC   PO462741   8.827  19.047   6.256  0.0343  0.0962  0.2206
34730POPC   GL162742   8.837  18.975   6.579 -0.2015 -0.1327 -0.3177
34730POPC   GL262743   8.715  19.128   6.782  0.0323  0.0540  0.2917
34730POPC   C1A62744   8.601  18.666   6.820  0.0986 -0.2158  0.3090
34730POPC   D2A62745   8.176  18.539   6.983  0.0891 -0.2885  0.0307
34730POPC   C3A62746   8.147  18.367   7.436 -0.0367 -0.0966 -0.4301
34730POPC   C4A62747   8.089  18.089   7.743  0.1310  0.0059  0.1110
34730POPC   C1B62748   8.497  19.101   7.194 -0.1210 -0.3037 -0.2394
34730POPC   C2B62749   8.282  18.890   7.526 -0.1960 -0.3319  0.1569
34730POPC   C3B62750   8.247  18.570   7.873 -0.0916 -0.4237 -0.0880
34730POPC   C4B62751   8.298  18.320   8.265 -0.1913 -0.3561  0.0667
34731POPC   NC362752   0.493  31.982   3.907  0.0272  0.3135 -0.1892
34731POPC   PO462753   0.174  32.203   3.877 -0.1980 -0.0792  0.0012
34731POPC   GL162754   0.427  32.356   4.191  0.2424 -0.0327  0.0599
34731POPC   GL262755   0.408  32.642   4.249 -0.1457  0.0866  0.0788
34731POPC   C1A62756   0.729  32.243   4.523  0.1606 -0.2737 -0.1073
34731POPC   D2A62757   0.776  32.218   4.986 -0.1234 -0.2502  0.0766
34731POPC   C3A62758   0.569  31.915   5.193  0.4435  0.1274  0.2430
34731POPC   C4A62759   0.372  31.844   5.622  0.0460  0.1927  0.3976
34731POPC   C1B62760   0.405  32.946   4.593 -0.2990  0.0098 -0.2581
34731POPC   C2B62761   0.583  32.982   5.003  0.2349 -0.0099  0.0416
34731POPC   C3B62762   0.498  33.017   5.497 -0.0051 -0.1734 -0.2283
34731POPC   C4B62763   0.368  32.736   5.842 -0.1491  0.0381 -0.2392
34732POPC   NC362764   8.520  29.295   5.347  0.1102  0.0815 -0.0799
34732POPC   PO462765   8.867  29.438   5.436 -0.1432  0.1290 -0.1046
34732POPC   GL162766   8.828  29.373   5.869 -0.2914 -0.0665  0.5074
34732POPC   GL262767   8.692  29.105   5.808  0.0412 -0.1225 -0.0152
34732POPC   C1A62768   8.643  29.389   6.278 -0.5059 -0.0386  0.4600
34732POPC   D2A62769   8.390  29.268   6.609 -0.0289 -0.1995  0.3261
34732POPC   C3A62770   8.525  28.996   6.909  0.5137 -0.0229 -0.3278
34732POPC   C4A62771   8.870  28.844   7.062  0.1497  0.3400 -0.2309
34732POPC   C1B62772   8.413  28.995   6.114  0.3073 -0.0552 -0.2657
34732POPC   C2B62773   8.215  28.818   6.527 -0.1745 -0.1624 -0.0370
34732POPC   C3B62774   7.990  28.935   6.883  0.0866  0.1461  0.1895
34732POPC   C4B62775   7.670  29.296   6.979 -0.2342 -0.1402  0.1036
34733POPC   NC362776   4.933  18.769   5.242  0.0637  0.0183 -0.0544
34733POPC   PO462777   5.271  18.799   5.407  0.0219 -0.3086 -0.2280
34733POPC   GL162778   5.086  18.611   5.748 -0.3046 -0.3118  0.1725
34733POPC   GL262779   4.984  18.681   6.072 -0.1259  0.0503  0.2699
34733POPC   C1A62780   5.040  18.187   5.973  0.0116  0.0605 -0.1403
34733POPC   D2A62781   4.856  17.978   6.309  0.0290  0.0989  0.0315
34733POPC   C3A62782   4.936  17.950   6.750  0.3350  0.1956 -0.2524
34733POPC   C4A62783   4.897  17.849   7.178  0.1198 -0.2549  0.2356
34733POPC   C1B62784   4.729  18.408   6.410 -0.1529 -0.1074  0.1589
34733POPC   C2B62785   4.671  18.373   6.897 -0.1712  0.0840  0.0372
34733POPC   C3B62786   4.560  18.140   7.323  0.1253  0.1520  0.0596
34733POPC   C4B62787   4.789  17.923   7.678  0.0143 -0.1406  0.3056
34734POPC   NC362788   9.528  21.637   9.165  0.0967 -0.0035 -0.0972
34734POPC   PO462789   9.561  21.427   9.493 -0.3020 -0.0145 -0.0447
34734POPC   GL162790   9.420  21.059   9.715  0.0387  0.0137  0.2916
34734POPC   GL262791   9.172  20.993   9.789 -0.0193 -0.0610 -0.0411
34734POPC   C1A62792   9.383  20.611   9.591 -0.1116 -0.1624 -0.0664
34734POPC   D2A62793   9.188  20.230   9.475  0.1330 -0.0222 -0.0206
34734POPC   C3A62794   8.735  20.105   9.393  0.0681  0.2000  0.3202
34734POPC   C4A62795   8.355  20.104   9.646 -0.0592  0.0809 -0.1086
34734POPC   C1B62796   9.138  20.676  10.115 -0.0287 -0.2305  0.1521
34734POPC   C2B62797   9.018  20.367  10.454  0.1756 -0.3278  0.0426
34734POPC   C3B62798   8.983  20.131  10.850  0.0587  0.5244  0.2273
34734POPC   C4B62799   9.081  19.931  11.257 -0.2093  0.0408  0.1600
34735POPC   NC362800  13.426  21.126   5.996 -0.0336  0.0508  0.0735
34735POPC   PO462801  13.075  20.942   5.932 -0.0533  0.0765  0.2889
34735POPC   GL162802  13.084  20.957   6.296 -0.3206  0.1192  0.1552
34735POPC   GL262803  13.359  20.798   6.340  0.1994 -0.3180  0.2265
34735POPC   C1A62804  13.084  20.917   6.774 -0.0258  0.1232 -0.2523
34735POPC   D2A62805  13.146  20.742   7.222  0.0351 -0.0469  0.0671
34735POPC   C3A62806  13.274  20.941   7.583  0.2250  0.3114 -0.0945
34735POPC   C4A62807  13.589  21.211   7.758  0.3716  0.2596  0.0554
34735POPC   C1B62808  13.602  20.967   6.685  0.2473  0.0471 -0.0621
34735POPC   C2B62809  13.941  20.771   6.946  0.0609 -0.0063  0.1532
34735POPC   C3B62810  14.109  20.396   7.015  0.1278  0.1489 -0.0159
34735POPC   C4B62811  14.033  19.956   7.203  0.2328 -0.3746 -0.0307
34736POPC   NC362812   5.435  27.724   4.996 -0.0062 -0.1290  0.1963
34736POPC   PO462813   5.222  27.366   4.847 -0.1895  0.0202  0.1946
34736POPC   GL162814   5.077  27.238   5.165 -0.0071  0.3383 -0.4920
34736POPC   GL262815   5.291  27.432   5.377  0.2541  0.3070  0.0954
34736POPC   C1A62816   4.760  27.266   5.501  0.3074 -0.1947  0.1892
34736POPC   D2A62817   4.601  27.430   5.918  0.0613 -0.3379 -0.2692
34736POPC   C3A62818   4.357  27.552   6.261 -0.0421  0.1908 -0.3084
34736POPC   C4A62819   4.129  27.864   6.581  0.0698  0.1823  0.0794
34736POPC   C1B62820   5.042  27.593   5.739  0.0108 -0.0816 -0.1198
34736POPC   C2B62821   4.956  27.715   6.118 -0.0720  0.1755  0.1053
34736POPC   C3B62822   5.123  28.020   6.437 -0.0004  0.1305  0.0283
34736POPC   C4B62823   5.254  28.239   6.786  0.0171 -0.1132 -0.0317
34737POPC   NC362824   9.660  22.968  10.959  0.0342 -0.1124 -0.0602
34737POPC   PO462825   9.397  22.879  10.683 -0.0923 -0.1308  0.3211
34737POPC   GL162826   9.053  23.082  10.712 -0.0193 -0.1858 -0.1281
34737POPC   GL262827   9.132  23.311  10.876 -0.4579 -0.0353  0.3533
34737POPC   C1A62828   8.629  23.286  10.843 -0.0288 -0.3854  0.0494
34737POPC   D2A62829   8.300  23.599  10.992  0.1229  0.1493 -0.0479
34737POPC   C3A62830   8.351  23.750  11.473 -0.2111  0.2426 -0.0059
34737POPC   C4A62831   8.779  23.991  11.622  0.3405 -0.0273 -0.0902
34737POPC   C1B62832   8.888  23.644  10.987 -0.0196 -0.0376 -0.1185
34737POPC   C2B62833   8.603  24.004  10.976  0.0503  0.0144 -0.0652
34737POPC   C3B62834   8.364  24.322  11.108 -0.1561  0.1466 -0.2032
34737POPC   C4B62835   8.255  24.730  11.198  0.3101 -0.1293 -0.1018
34738POPC   NC362836   7.318  21.239   7.625  0.1045  0.0138 -0.1698
34738POPC   PO462837   7.203  21.570   7.422 -0.3879  0.2008 -0.0693
34738POPC   GL162838   7.058  21.646   7.772 -0.2884  0.3143  0.0101
34738POPC   GL262839   7.171  21.897   7.902 -0.4549 -0.2175 -0.2972
34738POPC   C1A62840   6.779  21.439   8.038  0.0927 -0.1276 -0.1482
34738POPC   D2A62841   6.523  21.246   8.360 -0.1960  0.1263  0.0971
34738POPC   C3A62842   6.084  21.333   8.501  0.1149 -0.0441 -0.3197
34738POPC   C4A62843   5.707  21.531   8.341 -0.0329  0.0616 -0.4225
34738POPC   C1B62844   6.707  21.902   7.806 -0.1676  0.1874  0.2785
34738POPC   C2B62845   6.219  21.983   7.775 -0.0793 -0.1451 -0.3821
34738POPC   C3B62846   5.834  21.773   7.790 -0.2071 -0.0313  0.0693
34738POPC   C4B62847   5.770  21.324   7.916 -0.1338 -0.0204  0.0366
34739POPC   NC362848   8.343  32.680   4.688  0.1538  0.3039 -0.1019
34739POPC   PO462849   8.537  32.396   4.840 -0.1509  0.3473 -0.3337
34739POPC   GL162850   8.729  32.279   5.240 -0.1766  0.0628 -0.3868
34739POPC   GL262851   9.000  32.305   5.371 -0.0577 -0.1644 -0.1018
34739POPC   C1A62852   8.502  32.367   5.661 -0.0090  0.3284 -0.0861
34739POPC   D2A62853   8.289  32.187   6.039  0.2439  0.2100 -0.3354
34739POPC   C3A62854   7.789  32.230   5.935 -0.1929 -0.0289  0.1415
34739POPC   C4A62855   7.315  32.233   5.869  0.0936 -0.2890 -0.1790
34739POPC   C1B62856   9.043  32.272   5.852 -0.0054  0.0078 -0.0255
34739POPC   C2B62857   9.076  32.390   6.283 -0.1559 -0.0543  0.5190
34739POPC   C3B62858   9.209  32.311   6.753  0.2387 -0.0446 -0.2664
34739POPC   C4B62859   9.144  32.077   7.134  0.0121  0.1350  0.2608
34740POPC   NC362860   6.523  15.638   4.776 -0.1166 -0.1103 -0.2017
34740POPC   PO462861   6.804  15.923   4.713 -0.2381 -0.0152 -0.0833
34740POPC   GL162862   6.863  15.945   5.211  0.1740  0.0156 -0.0236
34740POPC   GL262863   6.973  15.724   5.157  0.1610  0.2649  0.0979
34740POPC   C1A62864   6.619  16.048   5.652  0.0534 -0.1250  0.0297
34740POPC   D2A62865   6.781  16.459   5.901  0.1942 -0.1178 -0.4836
34740POPC   C3A62866   6.591  16.857   6.017 -0.0092 -0.2948 -0.4182
34740POPC   C4A62867   6.671  17.329   5.843 -0.2491  0.1950  0.0333
34740POPC   C1B62868   6.653  15.630   5.482  0.1023 -0.1699  0.4406
34740POPC   C2B62869   6.527  15.604   5.927  0.2174  0.0922 -0.1595
34740POPC   C3B62870   6.778  15.515   6.294  0.0192 -0.0537  0.0141
34740POPC   C4B62871   6.944  15.278   6.605 -0.1689  0.0871 -0.2345
34741POPC   NC362872   8.379  30.716   4.584 -0.1344 -0.2361 -0.1966
34741POPC   PO462873   8.192  30.436   4.804  0.2062  0.1798 -0.0535
34741POPC   GL162874   8.211  30.262   5.174 -0.2061  0.0856 -0.2507
34741POPC   GL262875   7.978  30.231   5.336 -0.3496 -0.1089  0.1079
34741POPC   C1A62876   8.499  30.354   5.535  0.1262  0.3077 -0.1739
34741POPC   D2A62877   8.511  30.724   5.788 -0.0540 -0.1130 -0.1366
34741POPC   C3A62878   8.735  30.651   6.230 -0.1009  0.0473  0.1265
34741POPC   C4A62879   8.678  30.805   6.684 -0.1042 -0.5291  0.1015
34741POPC   C1B62880   8.029  30.551   5.619 -0.0545 -0.1844 -0.0325
34741POPC   C2B62881   8.001  30.815   6.026  0.0876  0.0569 -0.0833
34741POPC   C3B62882   8.276  30.817   6.399  0.0090 -0.2799 -0.1697
34741POPC   C4B62883   8.531  31.221   6.473  0.0454  0.0539 -0.1448
34742POPC   NC362884   9.455  25.985   6.701  0.1700  0.0006  0.3524
34742POPC   PO462885   9.424  26.300   6.976 -0.0092 -0.0354 -0.0339
34742POPC   GL162886   9.409  26.568   7.238  0.2880  0.0982  0.0518
34742POPC   GL262887   9.478  26.770   7.185 -0.1438  0.1235  0.0867
34742POPC   C1A62888   9.574  26.437   7.662  0.1603 -0.2581 -0.1714
34742POPC   D2A62889   9.739  26.269   8.032 -0.1137 -0.0601 -0.1809
34742POPC   C3A62890  10.000  26.435   8.386 -0.1484  0.3995  0.2261
34742POPC   C4A62891  10.439  26.648   8.469  0.3068 -0.0685 -0.0352
34742POPC   C1B62892   9.469  26.935   7.628  0.1007 -0.2749 -0.1394
34742POPC   C2B62893   9.676  27.087   8.035 -0.2366  0.0478 -0.0049
34742POPC   C3B62894   9.734  27.259   8.474 -0.0889  0.1750  0.0215
34742POPC   C4B62895   9.800  27.484   8.856 -0.3586 -0.2749  0.0997
34743POPC   NC362896   7.966  23.686   7.802  0.3109 -0.0764 -0.1301
34743POPC   PO462897   7.733  23.435   8.032 -0.3503 -0.4368  0.2144
34743POPC   GL162898   7.417  23.379   8.287  0.1033 -0.1689  0.0620
34743POPC   GL262899   7.478  23.064   8.307  0.0374 -0.0528 -0.0215
34743POPC   C1A62900   6.967  23.528   8.329 -0.1199  0.0877  0.0015
34743POPC   D2A62901   6.690  23.789   8.624 -0.0714  0.0145 -0.1377
34743POPC   C3A62902   6.973  23.765   9.032  0.2123  0.1340  0.2855
34743POPC   C4A62903   6.962  23.438   9.379  0.1139 -0.0149  0.0017
34743POPC   C1B62904   7.112  22.908   8.464  0.3915 -0.0289  0.1397
34743POPC   C2B62905   6.643  22.856   8.510 -0.0935  0.1767 -0.0546
34743POPC   C3B62906   6.313  22.575   8.583  0.0268  0.4643  0.3093
34743POPC   C4B62907   5.855  22.452   8.709 -0.2444  0.1558  0.0130
34744POPC   NC362908  12.181  20.240   5.925  0.0350  0.1300 -0.1987
34744POPC   PO462909  12.491  20.377   6.070 -0.3938  0.1985 -0.1310
34744POPC   GL162910  12.718  20.208   6.343 -0.0517  0.1159  0.2262
34744POPC   GL262911  12.561  19.923   6.285  0.2483 -0.3042 -0.3227
34744POPC   C1A62912  12.965  20.080   6.735  0.1097 -0.0235 -0.4568
34744POPC   D2A62913  13.125  20.099   7.178 -0.1699 -0.0173 -0.2485
34744POPC   C3A62914  13.503  20.021   7.377  0.0451 -0.0731 -0.1598
34744POPC   C4A62915  13.455  20.150   7.826  0.1869 -0.1321 -0.0927
34744POPC   C1B62916  12.538  19.770   6.704  0.0396  0.2678 -0.0508
34744POPC   C2B62917  12.655  19.557   7.113  0.0509 -0.0613  0.1029
34744POPC   C3B62918  12.586  19.519   7.560 -0.0172  0.2383  0.0051
34744POPC   C4B62919  12.539  19.177   7.777 -0.2249  0.0931  0.0594
34745POPC   NC362920   9.623  26.884   5.879 -0.2068 -0.0377  0.0752
34745POPC   PO462921   9.962  26.728   5.764 -0.1064  0.0026  0.0323
34745POPC   GL162922  10.223  26.855   6.079  0.0871  0.0201  0.2606
34745POPC   GL262923  10.150  27.180   6.018  0.1725  0.1987 -0.0345
34745POPC   C1A62924  10.338  26.903   6.527 -0.0409  0.0304  0.0800
34745POPC   D2A62925  10.472  26.865   6.986  0.0829  0.3781  0.1292
34745POPC   C3A62926  10.725  27.123   7.270  0.0847  0.1588  0.0850
34745POPC   C4A62927  10.909  27.266   7.711 -0.1771 -0.0040 -0.1610
34745POPC   C1B62928  10.528  27.321   6.270 -0.1956 -0.0156  0.4444
34745POPC   C2B62929  10.730  27.716   6.462  0.1981  0.1572 -0.0390
34745POPC   C3B62930  11.053  27.963   6.694 -0.0090  0.1089  0.0198
34745POPC   C4B62931  11.095  27.853   7.146 -0.0070 -0.0614  0.0707
34746POPC   NC362932  10.142  24.340   8.079  0.4923 -0.2493  0.1354
34746POPC   PO462933  10.552  24.406   8.078 -0.0194 -0.2611 -0.2557
34746POPC   GL162934  10.705  24.686   8.436  0.1212  0.1624  0.0228
34746POPC   GL262935  10.497  24.611   8.539  0.0779  0.0603 -0.1208
34746POPC   C1A62936  11.073  24.780   8.684  0.2978  0.0513  0.1012
34746POPC   D2A62937  11.488  25.031   8.748 -0.0340  0.2304  0.2854
34746POPC   C3A62938  11.632  25.287   9.055  0.1166 -0.0062 -0.0762
34746POPC   C4A62939  11.650  25.384   9.519 -0.0509  0.2857  0.2566
34746POPC   C1B62940  10.549  24.884   8.886 -0.0084 -0.0622  0.1882
34746POPC   C2B62941  10.512  25.151   9.277 -0.2145  0.0050  0.2880
34746POPC   C3B62942  10.421  25.229   9.696 -0.1534  0.1266 -0.0669
34746POPC   C4B62943  10.358  25.631   9.941  0.3169  0.0262  0.0598
34747POPC   NC362944   7.245   0.647   5.259 -0.1608  0.4480  0.3060
34747POPC   PO462945   7.454   0.914   5.069 -0.0200 -0.0759  0.1628
34747POPC   GL162946   7.725   0.894   5.387 -0.1020 -0.0396 -0.1962
34747POPC   GL262947   7.504   0.873   5.592 -0.2148  0.0538  0.0392
34747POPC   C1A62948   8.000   0.653   5.678  0.1470  0.3398 -0.0286
34747POPC   D2A62949   8.098   0.575   6.112 -0.2826 -0.1027 -0.1364
34747POPC   C3A62950   7.809   0.223   6.314 -0.0186 -0.0006 -0.0200
34747POPC   C4A62951   7.502   0.059   6.600  0.1866  0.0705 -0.1638
34747POPC   C1B62952   7.561   0.438   5.784 -0.0809  0.0190 -0.0727
34747POPC   C2B62953   7.327   0.284   6.126 -0.0059 -0.2201  0.1353
34747POPC   C3B62954   6.996  -0.019   6.340 -0.2015 -0.3566 -0.2710
34747POPC   C4B62955   6.772  -0.374   6.495  0.0288 -0.0994 -0.0300
34748POPC   NC362956   0.163  29.563   3.746  0.2118 -0.1828 -0.1747
34748POPC   PO462957   0.083  29.300   4.003  0.2751 -0.0609  0.0010
34748POPC   GL162958  -0.065  29.315   4.344  0.0202  0.1519 -0.1731
34748POPC   GL262959   0.102  29.528   4.549  0.0713 -0.0470  0.0746
34748POPC   C1A62960  -0.367  29.391   4.714 -0.3760  0.1349  0.2919
34748POPC   D2A62961  -0.340  29.184   5.129 -0.0422  0.3787  0.0121
34748POPC   C3A62962  -0.400  28.851   5.372  0.1930  0.3288 -0.0327
34748POPC   C4A62963  -0.560  28.518   5.721 -0.0251  0.0104  0.0971
34748POPC   C1B62964   0.032  29.517   4.988  0.0436  0.0661  0.0963
34748POPC   C2B62965   0.129  29.760   5.429  0.0087 -0.0958  0.0893
34748POPC   C3B62966   0.104  30.014   5.836  0.0863  0.0217  0.2767
34748POPC   C4B62967  -0.108  30.232   6.171 -0.0364 -0.2074  0.0642
34749POPC   NC362968  10.128  23.576   9.583  0.1113 -0.0471  0.2089
34749POPC   PO462969  10.423  23.301   9.667  0.0261 -0.1733 -0.3567
34749POPC   GL162970  10.718  23.562   9.679 -0.1458  0.2001  0.1062
34749POPC   GL262971  10.580  23.797   9.687 -0.1429 -0.0850 -0.3484
34749POPC   C1A62972  11.084  23.526   9.855 -0.3490 -0.0817 -0.0274
34749POPC   D2A62973  11.538  23.540  10.092  0.1265  0.0066 -0.1597
34749POPC   C3A62974  11.772  23.829  10.318 -0.1487 -0.1962  0.0375
34749POPC   C4A62975  12.107  24.115  10.388 -0.1662  0.1109  0.0565
34749POPC   C1B62976  10.488  24.258   9.692 -0.4437 -0.2005 -0.1794
34749POPC   C2B62977  10.349  24.744   9.823 -0.1891  0.1753 -0.0319
34749POPC   C3B62978  10.165  25.040  10.112 -0.2666 -0.4224 -0.0829
34749POPC   C4B62979   9.884  25.396  10.138  0.1534 -0.1757 -0.1002
34750POPC   NC362980   7.087  25.788   6.095  0.2484 -0.2052  0.0692
34750POPC   PO462981   6.900  25.438   6.037 -0.1860 -0.3138 -0.1198
34750POPC   GL162982   6.636  25.774   6.313 -0.5883 -0.1637 -0.0123
34750POPC   GL262983   6.763  25.772   6.629  0.1398 -0.0023  0.1015
34750POPC   C1A62984   6.250  25.732   6.595  0.1568  0.2006 -0.0137
34750POPC   D2A62985   6.082  25.824   7.082  0.1487 -0.0460 -0.1730
34750POPC   C3A62986   5.747  25.780   7.444  0.0746  0.3704  0.1050
34750POPC   C4A62987   5.640  25.767   7.864 -0.0060 -0.1639 -0.0234
34750POPC   C1B62988   6.566  25.677   6.985  0.1211 -0.0227  0.0253
34750POPC   C2B62989   6.507  25.848   7.423  0.3125 -0.0446 -0.1462
34750POPC   C3B62990   6.575  26.033   7.837  0.1282 -0.1114  0.1256
34750POPC   C4B62991   6.396  26.147   8.285  0.0182 -0.0227 -0.1046
34751POPC   NC362992  15.187  22.476   5.327 -0.3492  0.0387 -0.0041
34751POPC   PO462993  15.581  22.605   5.268 -0.1877 -0.1082 -0.3150
34751POPC   GL162994  15.531  22.721   5.567 -0.2537  0.0252  0.1906
34751POPC   GL262995  15.761  22.804   5.729  0.1102  0.0808  0.1828
34751POPC   C1A62996  15.394  22.702   6.018  0.2361  0.1041  0.1328
34751POPC   D2A62997  15.439  22.828   6.417  0.0430  0.3763  0.1339
34751POPC   C3A62998  15.674  23.065   6.706 -0.0741 -0.0395  0.1934
34751POPC   C4A62999  16.087  22.998   6.943  0.0436 -0.0685 -0.1475
34751POPC   C1B63000  16.174  22.712   5.930 -0.1938  0.0903 -0.2728
34751POPC   C2B63001  16.562  22.871   6.169  0.1709 -0.0164 -0.0042
34751POPC   C3B63002  16.659  22.922   6.579  0.0117  0.4696 -0.2349
34751POPC   C4B63003  17.009  22.734   6.816 -0.1158  0.0542 -0.0590
34752POPC   NC363004   4.654  30.192   4.430 -0.0799  0.1109  0.1069
34752POPC   PO463005   5.057  30.258   4.568 -0.0265  0.0214 -0.1615
34752POPC   GL163006   4.854  30.239   4.912 -0.1291 -0.0061 -0.3186
34752POPC   GL263007   4.793  29.889   4.930 -0.1334 -0.1964 -0.2342
34752POPC   C1A63008   4.988  30.093   5.368 -0.1110 -0.0063  0.2252
34752POPC   D2A63009   5.316  30.134   5.698  0.2062 -0.1386 -0.2734
34752POPC   C3A63010   5.532  29.949   6.068  0.1827  0.0848 -0.2185
34752POPC   C4A63011   5.445  29.519   6.231  0.0391  0.0652 -0.1623
34752POPC   C1B63012   4.805  29.659   5.372  0.0038  0.1288  0.2167
34752POPC   C2B63013   4.502  29.770   5.663 -0.2720 -0.0894 -0.1863
34752POPC   C3B63014   4.311  29.666   6.083  0.2204  0.0881  0.5741
34752POPC   C4B63015   4.252  29.457   6.527  0.1437 -0.1747 -0.0584
34753POPC   NC363016  14.607  32.149   4.707  0.1609  0.1242  0.1529
34753POPC   PO463017  14.390  32.189   4.378 -0.0449  0.0719 -0.0949
34753POPC   GL163018  14.160  32.134   4.649 -0.2073  0.0983  0.1009
34753POPC   GL263019  14.104  31.843   4.684  0.3383  0.0965 -0.3600
34753POPC   C1A63020  14.175  32.415   5.023  0.1574 -0.2114 -0.4424
34753POPC   D2A63021  14.013  32.295   5.446 -0.2067 -0.4642 -0.0764
34753POPC   C3A63022  14.087  32.450   5.918 -0.1507  0.3383 -0.0356
34753POPC   C4A63023  14.246  32.249   6.270 -0.0477 -0.1334 -0.0558
34753POPC   C1B63024  14.042  31.417   4.900 -0.0442 -0.2227  0.0450
34753POPC   C2B63025  14.095  31.085   5.191  0.2911 -0.5017  0.1357
34753POPC   C3B63026  14.316  30.689   5.168  0.1750  0.1508 -0.0815
34753POPC   C4B63027  14.592  30.405   4.883  0.2336 -0.0028  0.0241
34754POPC   NC363028   1.048  30.171   3.952  0.1652 -0.2973 -0.0625
34754POPC   PO463029   0.684  30.251   3.760 -0.3302 -0.2612  0.2085
34754POPC   GL163030   0.641  30.504   4.077 -0.1975  0.0303 -0.1511
34754POPC   GL263031   0.968  30.595   4.176  0.1238 -0.1607  0.4136
34754POPC   C1A63032   0.375  30.377   4.421  0.0575 -0.1774  0.2020
34754POPC   D2A63033   0.557  30.459   4.844 -0.0413  0.1318 -0.1413
34754POPC   C3A63034   0.287  30.695   5.166 -0.0780 -0.1039  0.0696
34754POPC   C4A63035  -0.112  30.864   5.370  0.3099 -0.1971 -0.0088
34754POPC   C1B63036   0.855  30.738   4.574 -0.0047  0.0750  0.2849
34754POPC   C2B63037   0.739  30.923   4.963  0.0493 -0.2455  0.1862
34754POPC   C3B63038   0.723  30.847   5.437 -0.3326 -0.2361 -0.0388
34754POPC   C4B63039   1.057  31.000   5.751  0.1145 -0.2546  0.1925
34755POPC   NC363040   9.166  22.993  10.262  0.0443 -0.2880 -0.0495
34755POPC   PO463041   8.897  22.776  10.456 -0.1103  0.2143 -0.1052
34755POPC   GL163042   8.459  22.861  10.519 -0.0916 -0.6751  0.1251
34755POPC   GL263043   8.367  22.632  10.375 -0.0163  0.2410  0.2431
34755POPC   C1A63044   8.013  23.007  10.425  0.2143  0.2886  0.3372
34755POPC   D2A63045   7.714  23.257  10.545  0.3157 -0.4652 -0.0891
34755POPC   C3A63046   7.736  23.325  11.000  0.5122 -0.1006 -0.1243
34755POPC   C4A63047   7.892  23.055  11.285  0.1566  0.3468 -0.1003
34755POPC   C1B63048   8.316  22.419  10.735 -0.1951  0.0590 -0.1668
34755POPC   C2B63049   8.184  22.128  11.049  0.0781  0.2774  0.2793
34755POPC   C3B63050   7.941  22.048  11.459  0.0296  0.1371  0.1580
34755POPC   C4B63051   7.776  21.972  11.921  0.1515 -0.2282 -0.0280
34756POPC   NC363052  14.887  30.748   3.941 -0.1743  0.0582  0.1044
34756POPC   PO463053  15.116  30.453   4.095 -0.0271 -0.0336  0.1474
34756POPC   GL163054  15.254  30.579   4.486 -0.2122 -0.1273  0.0366
34756POPC   GL263055  14.962  30.682   4.566  0.0648 -0.2105  0.0243
34756POPC   C1A63056  15.172  30.323   4.892  0.1258  0.2477 -0.1513
34756POPC   D2A63057  14.940  30.185   5.270  0.3745 -0.3936  0.1092
34756POPC   C3A63058  15.064  29.763   5.432 -0.1476 -0.2349  0.0544
34756POPC   C4A63059  15.079  29.362   5.235  0.5328  0.0602 -0.0416
34756POPC   C1B63060  15.196  30.974   4.839  0.0857  0.0538 -0.1057
34756POPC   C2B63061  15.299  30.954   5.295 -0.2522  0.0558  0.1913
34756POPC   C3B63062  15.245  30.931   5.718  0.3600  0.2828 -0.1228
34756POPC   C4B63063  15.170  31.235   6.082  0.3816 -0.4215  0.1143
34757POPC   NC363064   2.408  16.679   3.897 -0.0093 -0.1201  0.2935
34757POPC   PO463065   2.282  16.509   4.238  0.0213 -0.0094  0.0246
34757POPC   GL163066   2.263  16.270   4.545 -0.5811 -0.3846  0.2110
34757POPC   GL263067   2.327  16.016   4.309  0.0650 -0.2612  0.2342
34757POPC   C1A63068   2.061  16.364   4.962 -0.0516 -0.0304  0.1454
34757POPC   D2A63069   2.128  16.348   5.437  0.2441  0.0514 -0.0710
34757POPC   C3A63070   1.818  16.354   5.814 -0.0424 -0.0929 -0.3252
34757POPC   C4A63071   1.600  16.371   6.215  0.2133  0.0006 -0.0421
34757POPC   C1B63072   2.670  16.103   4.665 -0.1438 -0.3059  0.3965
34757POPC   C2B63073   3.035  15.969   4.865  0.0418 -0.4975  0.4299
34757POPC   C3B63074   3.271  16.214   5.116  0.1890 -0.0087  0.2293
34757POPC   C4B63075   3.144  16.411   5.573 -0.0145 -0.1201  0.1432
34758POPC   NC363076   6.575  21.353   6.801 -0.0619 -0.1500  0.1372
34758POPC   PO463077   6.677  21.053   6.513  0.2786 -0.0179  0.0219
34758POPC   GL163078   6.682  20.941   6.953 -0.0446  0.0600 -0.3683
34758POPC   GL263079   6.462  21.094   7.158  0.0955 -0.2054 -0.0106
34758POPC   C1A63080   6.432  20.628   7.259  0.0194 -0.2888  0.0813
34758POPC   D2A63081   6.432  20.447   7.666 -0.1373 -0.2561 -0.2184
34758POPC   C3A63082   6.204  20.563   7.993  0.0491 -0.0516 -0.1464
34758POPC   C4A63083   5.983  20.397   8.384 -0.2816  0.2624 -0.2207
34758POPC   C1B63084   6.277  21.243   7.514  0.0024 -0.2590 -0.4957
34758POPC   C2B63085   6.328  21.513   7.874  0.2945 -0.1963 -0.0788
34758POPC   C3B63086   6.161  21.701   8.184 -0.3744 -0.2938 -0.0040
34758POPC   C4B63087   6.043  21.816   8.623  0.0683 -0.0968  0.1587
34759POPC   NC363088  13.084  27.782   4.591  0.1532  0.1624  0.0704
34759POPC   PO463089  13.094  28.158   4.625  0.2667 -0.0503  0.1493
34759POPC   GL163090  12.887  28.445   4.930 -0.0355  0.1088  0.1150
34759POPC   GL263091  12.852  28.712   4.859  0.0898  0.1958 -0.1356
34759POPC   C1A63092  12.828  28.452   5.375 -0.1363  0.0500 -0.0221
34759POPC   D2A63093  12.659  28.446   5.809 -0.1283 -0.0229 -0.3269
34759POPC   C3A63094  12.673  28.824   6.062 -0.0805  0.0987 -0.1531
34759POPC   C4A63095  12.628  28.927   6.531  0.3470  0.1621  0.0997
34759POPC   C1B63096  13.113  28.828   5.212 -0.0785  0.1213  0.0519
34759POPC   C2B63097  13.330  28.693   5.586  0.1621  0.1199 -0.0320
34759POPC   C3B63098  13.403  28.507   5.941  0.0011 -0.1692  0.0104
34759POPC   C4B63099  13.720  28.538   6.317  0.1200  0.0260  0.0399
34760POPC   NC363100  12.551  18.775   5.320  0.1525 -0.0817  0.0151
34760POPC   PO463101  12.657  19.136   5.230 -0.2254 -0.1247  0.2184
34760POPC   GL163102  13.001  18.998   5.447  0.0082  0.1017 -0.2752
34760POPC   GL263103  13.162  19.188   5.573 -0.1633 -0.0000 -0.3973
34760POPC   C1A63104  12.890  18.772   5.804 -0.2181 -0.2466 -0.0041
34760POPC   D2A63105  13.133  18.673   6.229 -0.1924 -0.1599  0.5087
34760POPC   C3A63106  13.448  19.064   6.231 -0.2402  0.1002 -0.0853
34760POPC   C4A63107  13.496  19.408   5.959 -0.3020  0.1018 -0.4246
34760POPC   C1B63108  13.037  19.281   6.048 -0.2414  0.1369  0.1687
34760POPC   C2B63109  13.096  19.144   6.499 -0.1072 -0.2157  0.0730
34760POPC   C3B63110  13.382  18.837   6.735  0.1120 -0.1102 -0.0976
34760POPC   C4B63111  13.751  18.572   6.743  0.1668  0.1097  0.1118
34761POPC   NC363112   4.475  19.020   5.805 -0.0687  0.0019  0.0489
34761POPC   PO463113   4.854  19.038   5.691 -0.3391  0.1542 -0.0364
34761POPC   GL163114   4.874  19.134   6.098 -0.0183 -0.2263 -0.2355
34761POPC   GL263115   4.692  18.982   6.317  0.0393 -0.2224 -0.1003
34761POPC   C1A63116   4.604  19.478   6.333 -0.4193  0.3763 -0.1499
34761POPC   D2A63117   4.400  19.773   6.665 -0.2829  0.1574 -0.3588
34761POPC   C3A63118   4.148  19.636   6.972 -0.0665 -0.0019  0.1024
34761POPC   C4A63119   3.716  19.514   7.060  0.2231 -0.1700 -0.0806
34761POPC   C1B63120   4.445  18.806   6.702 -0.1463  0.1588  0.0532
34761POPC   C2B63121   4.186  18.654   7.046 -0.0715 -0.2306 -0.1547
34761POPC   C3B63122   4.086  18.460   7.453  0.0778 -0.2014 -0.0186
34761POPC   C4B63123   4.075  18.392   7.939 -0.0641 -0.0009  0.2601
34762POPC   NC363124   5.493  26.115   5.512  0.2809 -0.1071 -0.0736
34762POPC   PO463125   5.798  26.325   5.417  0.0337 -0.1907  0.0347
34762POPC   GL163126   5.897  26.277   5.764  0.1821 -0.1318 -0.0952
34762POPC   GL263127   6.164  26.147   5.803 -0.2225 -0.1303 -0.1560
34762POPC   C1A63128   5.873  26.453   6.206 -0.2108  0.0081 -0.3610
34762POPC   D2A63129   5.945  26.901   6.398 -0.3679 -0.1742 -0.4257
34762POPC   C3A63130   5.584  27.102   6.538  0.2680 -0.1937 -0.1732
34762POPC   C4A63131   5.341  27.154   6.930  0.2977 -0.0073 -0.1392
34762POPC   C1B63132   6.136  26.000   6.212  0.0520 -0.0465 -0.0770
34762POPC   C2B63133   5.814  26.047   6.533 -0.0398 -0.0133 -0.2728
34762POPC   C3B63134   5.758  26.208   6.964 -0.2187  0.0743 -0.0005
34762POPC   C4B63135   5.776  26.525   7.305  0.3231 -0.1840 -0.1282
34763POPC   NC363136  12.952  22.929   6.910  0.0361  0.1107 -0.1934
34763POPC   PO463137  13.136  22.630   6.684 -0.0677 -0.3473 -0.1421
34763POPC   GL163138  13.380  22.409   6.852 -0.0795  0.0672  0.0549
34763POPC   GL263139  13.297  22.098   6.857 -0.2725 -0.0972 -0.0259
34763POPC   C1A63140  13.708  22.466   7.139  0.1870  0.1066 -0.1186
34763POPC   D2A63141  13.594  22.393   7.557 -0.0913 -0.1048 -0.0036
34763POPC   C3A63142  13.770  22.709   7.891  0.1326  0.0083 -0.0743
34763POPC   C4A63143  13.925  22.923   8.285 -0.3373  0.0527 -0.0757
34763POPC   C1B63144  13.739  22.011   7.134  0.1618 -0.5190  0.1877
34763POPC   C2B63145  14.053  22.065   7.470 -0.0796 -0.2483  0.0945
34763POPC   C3B63146  14.273  22.394   7.772 -0.3168 -0.0502  0.1349
34763POPC   C4B63147  14.727  22.592   7.720  0.4579 -0.3607 -0.2658
34764POPC   NC363148   6.960  32.062   4.769  0.0798 -0.1300  0.1113
34764POPC   PO463149   7.266  32.117   4.976  0.0395  0.4311  0.4114
34764POPC   GL163150   7.183  31.819   5.131  0.1310 -0.1716 -0.1019
34764POPC   GL263151   6.934  31.870   5.269 -0.2145  0.2085 -0.0336
34764POPC   C1A63152   7.407  31.491   5.359  0.0994 -0.0635  0.0251
34764POPC   D2A63153   7.471  31.248   5.725 -0.4143 -0.1114 -0.1175
34764POPC   C3A63154   7.068  31.305   5.969 -0.0862  0.2776 -0.0576
34764POPC   C4A63155   6.758  31.490   6.227 -0.1585  0.0595 -0.0895
34764POPC   C1B63156   7.036  31.820   5.751  0.2493 -0.0380  0.2687
34764POPC   C2B63157   7.182  31.857   6.158 -0.1100 -0.3115 -0.0935
34764POPC   C3B63158   7.603  31.990   6.388  0.0124 -0.2055 -0.0406
34764POPC   C4B63159   7.961  32.205   6.382 -0.3561 -0.0242 -0.1684
34765POPC   NC363160   0.579  27.993   4.429  0.1139 -0.0599 -0.1047
34765POPC   PO463161   0.557  28.241   4.116  0.1028 -0.1350 -0.0836
34765POPC   GL163162   0.687  28.476   4.438  0.3116 -0.0158  0.2418
34765POPC   GL263163   0.379  28.545   4.498  0.1770  0.0303 -0.0015
34765POPC   C1A63164   0.964  28.426   4.802  0.0563  0.0705  0.1418
34765POPC   D2A63165   1.365  28.389   4.942 -0.0647  0.0189 -0.0752
34765POPC   C3A63166   1.449  28.361   5.382  0.1156 -0.0192  0.0524
34765POPC   C4A63167   1.502  28.576   5.792  0.2242  0.2075 -0.0350
34765POPC   C1B63168   0.624  28.727   4.890 -0.0304 -0.1462  0.1240
34765POPC   C2B63169   0.584  28.851   5.320 -0.2012  0.1064  0.1564
34765POPC   C3B63170   0.593  28.773   5.782  0.1944 -0.1977  0.2496
34765POPC   C4B63171   0.681  28.669   6.218  0.0445  0.1521  0.1630
34766POPC   NC363172  10.137  21.515   9.697  0.0167  0.0648 -0.0314
34766POPC   PO463173  10.460  21.253   9.681 -0.1811 -0.2169  0.0398
34766POPC   GL163174  10.683  21.084  10.062 -0.2698 -0.0160 -0.4293
34766POPC   GL263175  10.861  20.911   9.989  0.0222  0.0971  0.1899
34766POPC   C1A63176  10.610  20.693  10.332 -0.1479  0.1872 -0.2331
34766POPC   D2A63177  10.507  20.524  10.803  0.1172  0.0754 -0.0779
34766POPC   C3A63178  10.507  20.255  11.156  0.1114 -0.0770 -0.0820
34766POPC   C4A63179  10.728  20.067  11.569 -0.1565  0.1867 -0.3096
34766POPC   C1B63180  11.051  20.504  10.034 -0.0476 -0.0081 -0.0232
34766POPC   C2B63181  10.989  20.079  10.249 -0.3030  0.0379  0.0204
34766POPC   C3B63182  10.554  19.953  10.264 -0.0454 -0.2895  0.2596
34766POPC   C4B63183  10.157  19.768  10.251 -0.2503  0.1221  0.0691
34767POPC   NC363184  13.374  26.920   4.772  0.4970 -0.2303  0.0664
34767POPC   PO463185  13.728  26.823   4.641  0.1009 -0.0956  0.0141
34767POPC   GL163186  13.878  26.679   4.957 -0.0034 -0.0984 -0.1134
34767POPC   GL263187  13.706  26.714   5.156  0.3035  0.1445  0.0625
34767POPC   C1A63188  14.118  26.443   5.285  0.1468  0.0675 -0.2775
34767POPC   D2A63189  14.183  26.103   5.598 -0.0572  0.0452  0.1969
34767POPC   C3A63190  14.538  26.198   5.862  0.1556  0.0661  0.2803
34767POPC   C4A63191  14.740  26.575   6.053 -0.0495  0.2436 -0.1636
34767POPC   C1B63192  13.798  26.869   5.588  0.1357  0.0083 -0.1524
34767POPC   C2B63193  13.746  27.065   6.027  0.3611 -0.5102 -0.2538
34767POPC   C3B63194  13.950  27.257   6.398  0.0642 -0.1663  0.1761
34767POPC   C4B63195  14.186  27.194   6.805  0.0260  0.0709 -0.0074
34768POPC   NC363196   0.982  31.262   3.895  0.1613  0.0370  0.3843
34768POPC   PO463197   0.811  31.621   3.882  0.4450  0.3114  0.0582
34768POPC   GL163198   0.676  31.585   4.235 -0.0501  0.2478  0.0710
34768POPC   GL263199   0.864  31.774   4.356  0.1777 -0.2932  0.0528
34768POPC   C1A63200   0.633  31.275   4.540 -0.0553 -0.0445  0.1190
34768POPC   D2A63201   0.377  30.871   4.544 -0.2472 -0.5789  0.1417
34768POPC   C3A63202   0.064  30.629   4.725 -0.1408  0.0716  0.3558
34768POPC   C4A63203  -0.227  30.312   4.531  0.3053  0.0638 -0.3983
34768POPC   C1B63204   0.920  31.722   4.798 -0.1549  0.4472  0.1500
34768POPC   C2B63205   0.978  31.570   5.205  0.0168  0.1374  0.1563
34768POPC   C3B63206   0.852  31.482   5.636 -0.1133  0.2592  0.2076
34768POPC   C4B63207   0.810  31.235   6.037 -0.2266 -0.1594  0.3951
34769POPC   NC363208  12.899  26.087   5.771 -0.2453 -0.0592 -0.1062
34769POPC   PO463209  12.676  26.336   5.592 -0.3966 -0.1768 -0.2763
34769POPC   GL163210  12.942  26.554   5.810  0.1669  0.1163 -0.1207
34769POPC   GL263211  12.894  26.427   6.119  0.2200  0.2381  0.0870
34769POPC   C1A63212  12.821  26.926   6.097 -0.1331  0.2478  0.0690
34769POPC   D2A63213  12.832  27.171   6.432 -0.0397  0.2128  0.0030
34769POPC   C3A63214  12.997  27.518   6.764  0.3386 -0.1035  0.1588
34769POPC   C4A63215  13.140  27.994   6.812 -0.1409 -0.1946 -0.2327
34769POPC   C1B63216  13.018  26.599   6.556  0.1077 -0.0048  0.2948
34769POPC   C2B63217  12.963  26.950   6.912  0.0839  0.1624 -0.2254
34769POPC   C3B63218  13.259  27.240   7.204  0.0991 -0.1957 -0.0954
34769POPC   C4B63219  13.693  27.316   7.089  0.0364 -0.0313 -0.0193
34770POPC   NC363220   3.426  18.997   5.212 -0.0096 -0.1838 -0.0906
34770POPC   PO463221   3.689  18.682   5.150  0.1712 -0.2259  0.0744
34770POPC   GL163222   3.621  18.630   5.526  0.2981 -0.1774 -0.2491
34770POPC   GL263223   3.445  18.803   5.678 -0.3102 -0.1676 -0.2149
34770POPC   C1A63224   3.420  18.205   5.701  0.1522 -0.1434  0.1393
34770POPC   D2A63225   3.124  17.882   5.813  0.0214 -0.0785 -0.0665
34770POPC   C3A63226   3.255  17.535   6.085  0.2165 -0.0852  0.0767
34770POPC   C4A63227   3.330  17.100   5.956  0.0761 -0.2273  0.1429
34770POPC   C1B63228   3.012  18.906   5.720 -0.0200 -0.1835  0.1558
34770POPC   C2B63229   2.656  18.719   5.847  0.1314 -0.2215  0.1438
34770POPC   C3B63230   2.335  18.473   5.985  0.0832 -0.0465 -0.3344
34770POPC   C4B63231   2.333  18.063   6.200  0.0015  0.0612  0.0251
34771POPC   NC363232   0.603  26.511   4.387  0.0282 -0.1236 -0.1330
34771POPC   PO463233   0.943  26.646   4.511  0.1832  0.1608  0.0543
34771POPC   GL163234   0.783  26.654   4.819 -0.5237  0.1170  0.3053
34771POPC   GL263235   0.836  26.482   4.976 -0.3790 -0.0936  0.4639
34771POPC   C1A63236   0.668  26.970   5.074  0.1937  0.0691 -0.1738
34771POPC   D2A63237   0.666  27.204   5.449 -0.2252  0.0529 -0.1703
34771POPC   C3A63238   0.347  27.102   5.796  0.0360  0.0234 -0.1104
34771POPC   C4A63239  -0.017  27.010   6.069 -0.0470  0.0119  0.4373
34771POPC   C1B63240   1.221  26.745   5.105 -0.1091 -0.0228  0.2366
34771POPC   C2B63241   1.227  27.035   5.518 -0.1167 -0.0577 -0.2018
34771POPC   C3B63242   1.214  27.295   5.916 -0.3024  0.0490 -0.1971
34771POPC   C4B63243   1.359  27.171   6.382  0.2842  0.4879 -0.2122
34772POPC   NC363244   9.952  20.760   7.910 -0.1305  0.1539  0.0382
34772POPC   PO463245   9.873  20.922   8.266 -0.0159 -0.2508 -0.4125
34772POPC   GL163246   9.980  20.666   8.535  0.4171 -0.1341  0.3107
34772POPC   GL263247   9.904  20.398   8.434  0.0792  0.2233  0.0534
34772POPC   C1A63248  10.317  20.364   8.683  0.0875 -0.0800  0.1046
34772POPC   D2A63249  10.522  20.119   8.980  0.1347 -0.0735  0.2733
34772POPC   C3A63250  10.348  20.173   9.411 -0.3943 -0.1277  0.4951
34772POPC   C4A63251  10.183  20.030   9.806  0.2225  0.2290 -0.2397
34772POPC   C1B63252   9.812  19.991   8.491 -0.3146  0.2404  0.0690
34772POPC   C2B63253   9.919  19.545   8.642  0.0496  0.1080  0.3010
34772POPC   C3B63254  10.263  19.253   8.574  0.0411  0.1037  0.2138
34772POPC   C4B63255  10.729  19.134   8.454 -0.1096 -0.1825  0.0832
34773POPC   NC363256   8.244  23.507   8.213  0.2525  0.3077  0.0687
34773POPC   PO463257   7.952  23.800   8.289 -0.0032 -0.1091 -0.1567
34773POPC   GL163258   7.657  23.603   8.520  0.0014 -0.1317  0.2730
34773POPC   GL263259   7.710  23.633   8.790 -0.0603 -0.3751 -0.1903
34773POPC   C1A63260   7.269  23.835   8.582  0.0402 -0.1637 -0.1425
34773POPC   D2A63261   7.041  24.202   8.736 -0.0036 -0.2375 -0.1021
34773POPC   C3A63262   6.543  24.245   8.778  0.0994 -0.2293 -0.1579
34773POPC   C4A63263   6.123  24.485   8.692  0.1159  0.5294 -0.0070
34773POPC   C1B63264   7.460  23.924   9.080 -0.0733  0.2013 -0.2254
34773POPC   C2B63265   7.241  24.083   9.415 -0.0104  0.2404 -0.0312
34773POPC   C3B63266   6.851  23.905   9.520  0.3661  0.1105  0.3130
34773POPC   C4B63267   6.494  23.850   9.279  0.0540  0.2984  0.1719
34774POPC   NC363268  14.691  21.675   4.983 -0.1266  0.0374 -0.2672
34774POPC   PO463269  14.424  21.538   5.258  0.1419 -0.0154 -0.1950
34774POPC   GL163270  14.230  21.513   5.585 -0.2158  0.1499  0.1066
34774POPC   GL263271  14.368  21.663   5.819 -0.1160 -0.0205 -0.0001
34774POPC   C1A63272  14.299  21.154   5.885 -0.0922 -0.2153  0.0924
34774POPC   D2A63273  14.266  20.704   5.937  0.0954 -0.1944 -0.0472
34774POPC   C3A63274  14.547  20.617   6.238 -0.0104 -0.1655 -0.3308
34774POPC   C4A63275  14.870  20.631   6.606 -0.0305 -0.0975 -0.2105
34774POPC   C1B63276  14.557  21.735   6.303 -0.1599 -0.0635 -0.3254
34774POPC   C2B63277  14.597  21.750   6.787  0.0061  0.1838  0.3166
34774POPC   C3B63278  14.616  22.025   7.177  0.1732  0.0936  0.1006
34774POPC   C4B63279  14.902  22.326   7.388  0.2504  0.1085  0.1683
34775POPC   NC363280  10.087  29.461   4.810 -0.0206 -0.1783 -0.4589
34775POPC   PO463281   9.687  29.524   4.848  0.2797 -0.2630  0.0603
34775POPC   GL163282   9.750  29.676   5.206 -0.0272  0.1753 -0.0217
34775POPC   GL263283  10.019  29.680   5.291 -0.1384  0.0323  0.2118
34775POPC   C1A63284   9.585  29.870   5.545 -0.1323 -0.0888  0.3062
34775POPC   D2A63285   9.420  29.895   5.975 -0.0988 -0.0702 -0.3088
34775POPC   C3A63286   9.018  29.820   6.192 -0.3275 -0.1046  0.1835
34775POPC   C4A63287   8.808  29.801   6.605  0.0232 -0.0692  0.0186
34775POPC   C1B63288  10.442  29.789   5.520  0.1775 -0.1644  0.0787
34775POPC   C2B63289  10.857  30.003   5.484 -0.3090  0.2943  0.0275
34775POPC   C3B63290  11.131  29.726   5.773  0.1333  0.2451  0.0849
34775POPC   C4B63291  11.482  29.580   5.936 -0.2706  0.0512 -0.2822
34776POPC   NC363292   9.457  22.419  12.276 -0.0465 -0.2035  0.0816
34776POPC   PO463293   9.620  22.152  11.982  0.2875  0.0152 -0.3850
34776POPC   GL163294   9.250  22.079  11.989  0.2542  0.1008  0.0850
34776POPC   GL263295   9.056  22.293  11.886 -0.1024  0.0467 -0.2907
34776POPC   C1A63296   8.921  21.736  12.058 -0.1364 -0.2453 -0.0547
34776POPC   D2A63297   8.404  21.648  12.132  0.1898 -0.0143 -0.3260
34776POPC   C3A63298   8.193  22.067  12.143  0.0147  0.1322  0.0825
34776POPC   C4A63299   8.280  22.455  12.459 -0.2880 -0.5082 -0.1195
34776POPC   C1B63300   8.640  22.101  11.975  0.0718  0.0042 -0.0434
34776POPC   C2B63301   8.344  21.879  11.738  0.1733  0.2267 -0.0595
34776POPC   C3B63302   8.078  21.494  11.641  0.0024 -0.0573  0.1847
34776POPC   C4B63303   7.593  21.600  11.667  0.0157  0.0584  0.0741
34777POPC   NC363304   3.635  31.000   3.999 -0.0774 -0.0659  0.0751
34777POPC   PO463305   3.754  31.245   4.282 -0.0802 -0.3105  0.0321
34777POPC   GL163306   3.584  31.022   4.568  0.0445  0.1959  0.0173
34777POPC   GL263307   3.512  30.782   4.520 -0.0193 -0.1027 -0.0343
34777POPC   C1A63308   3.690  30.960   5.015 -0.0396  0.0081 -0.0924
34777POPC   D2A63309   3.556  30.821   5.468  0.1803  0.0759  0.2041
34777POPC   C3A63310   3.851  30.788   5.838  0.2290  0.3540  0.1813
34777POPC   C4A63311   4.195  30.619   6.053 -0.1060  0.0618 -0.2655
34777POPC   C1B63312   3.153  30.885   4.774 -0.2911 -0.0456 -0.2094
34777POPC   C2B63313   2.880  30.879   5.147  0.0466 -0.3478 -0.3341
34777POPC   C3B63314   2.756  30.526   5.403 -0.1114  0.0982 -0.1041
34777POPC   C4B63315   2.668  30.253   5.742  0.0504 -0.2516 -0.0088
34778POPC   NC363316  12.026  19.410   5.853 -0.1565  0.0780  0.1021
34778POPC   PO463317  12.248  19.695   5.973 -0.0158  0.0093 -0.1013
34778POPC   GL163318  12.543  19.519   6.067 -0.5152  0.2598 -0.2705
34778POPC   GL263319  12.499  19.377   6.307  0.3194  0.0421 -0.0112
34778POPC   C1A63320  12.937  19.621   6.411  0.0765  0.1767 -0.0892
34778POPC   D2A63321  13.235  19.618   6.769 -0.1065 -0.0795  0.0784
34778POPC   C3A63322  13.214  19.526   7.242  0.2674  0.1063  0.2864
34778POPC   C4A63323  13.037  19.294   7.606 -0.0032  0.0166 -0.1084
34778POPC   C1B63324  12.624  19.278   6.711  0.1349  0.1556 -0.3299
34778POPC   C2B63325  12.914  19.128   7.021  0.0126 -0.0057  0.1233
34778POPC   C3B63326  13.069  18.795   7.267  0.0113 -0.3211  0.2692
34778POPC   C4B63327  13.525  18.694   7.357 -0.1160 -0.0147 -0.2895
34779POPC   NC363328   7.441  25.511   6.933  0.2534  0.3140  0.2228
34779POPC   PO463329   7.777  25.694   6.856 -0.0057 -0.0695 -0.1067
34779POPC   GL163330   7.914  25.771   7.187  0.2445 -0.2232 -0.0601
34779POPC   GL263331   7.623  25.760   7.371  0.1581  0.2390  0.1693
34779POPC   C1A63332   8.125  25.839   7.625  0.4555 -0.0754  0.0592
34779POPC   D2A63333   8.196  26.018   8.054 -0.3410 -0.2320 -0.2495
34779POPC   C3A63334   7.923  26.057   8.454  0.1975 -0.1532  0.2452
34779POPC   C4A63335   7.463  25.920   8.586  0.3665  0.2574  0.0225
34779POPC   C1B63336   7.369  26.105   7.539 -0.1487 -0.1596 -0.0903
34779POPC   C2B63337   7.391  26.523   7.771 -0.3353 -0.0168  0.4571
34779POPC   C3B63338   7.288  26.868   8.081  0.1031 -0.0112 -0.2114
34779POPC   C4B63339   7.578  27.219   8.128  0.0046 -0.4037  0.2798
34780POPC   NC363340  10.338  20.862   8.872 -0.1628 -0.4187 -0.0205
34780POPC   PO463341   9.947  20.937   9.032 -0.1612  0.0281  0.2423
34780POPC   GL163342   9.965  20.528   9.033  0.1032  0.0802 -0.0181
34780POPC   GL263343   9.744  20.488   9.257 -0.2523 -0.0820  0.1795
34780POPC   C1A63344  10.024  20.066   8.935 -0.4200  0.0842  0.0112
34780POPC   D2A63345  10.229  19.659   9.016 -0.2133 -0.1651 -0.0317
34780POPC   C3A63346  10.307  19.693   9.466  0.2164  0.1196  0.0428
34780POPC   C4A63347  10.597  19.631   9.814 -0.1041  0.2623 -0.4810
34780POPC   C1B63348   9.791  20.019   9.339  0.0316 -0.1018 -0.0509
34780POPC   C2B63349   9.485  19.812   9.606  0.1818  0.2118  0.0658
34780POPC   C3B63350   9.112  19.674   9.768  0.3614 -0.0029  0.1301
34780POPC   C4B63351   8.708  19.639   9.574  0.1227  0.1051  0.2422
34781POPC   NC363352   7.611  19.742   6.719  0.1772  0.1445  0.0414
34781POPC   PO463353   7.794  19.942   7.019 -0.1621  0.0245 -0.2898
34781POPC   GL163354   7.663  19.728   7.383 -0.2432  0.1041 -0.3452
34781POPC   GL263355   7.490  19.526   7.210  0.0322 -0.0350 -0.1029
34781POPC   C1A63356   7.768  19.662   7.843 -0.4585 -0.2340 -0.2107
34781POPC   D2A63357   7.843  19.709   8.335 -0.0355 -0.1049  0.2569
34781POPC   C3A63358   8.026  19.518   8.748 -0.0841 -0.1186 -0.0589
34781POPC   C4A63359   8.034  19.340   9.170 -0.0878 -0.4297 -0.1375
34781POPC   C1B63360   7.468  19.111   7.457 -0.2240 -0.0842  0.0242
34781POPC   C2B63361   7.241  19.035   7.851 -0.2539 -0.1221  0.0690
34781POPC   C3B63362   7.045  18.963   8.289 -0.1780 -0.2264 -0.0958
34781POPC   C4B63363   6.882  19.263   8.568  0.1470  0.1985  0.0460
34782POPC   NC363364  10.020   1.366   5.284 -0.1683  0.0462  0.0095
34782POPC   PO463365  10.178   0.975   5.287  0.1394 -0.1245  0.2220
34782POPC   GL163366  10.285   0.793   5.535 -0.1045  0.1749  0.0924
34782POPC   GL263367  10.062   0.813   5.762 -0.1682  0.0441 -0.1455
34782POPC   C1A63368  10.082   0.378   5.716 -0.3442  0.0361  0.2716
34782POPC   D2A63369   9.932   0.097   6.032 -0.0369  0.0245 -0.2966
34782POPC   C3A63370  10.057  -0.321   6.050 -0.0514 -0.0286 -0.1009
34782POPC   C4A63371  10.408  -0.504   6.345 -0.0578  0.2384 -0.0788
34782POPC   C1B63372   9.856   0.572   6.098  0.2885 -0.1141  0.1622
34782POPC   C2B63373   9.843   0.244   6.470  0.0744 -0.1370  0.1810
34782POPC   C3B63374   9.984  -0.168   6.572 -0.4193 -0.1958  0.3393
34782POPC   C4B63375   9.996  -0.617   6.637 -0.0134 -0.1196  0.0042
34783POPC   NC363376   7.754  19.251   6.365 -0.0559  0.0310  0.1294
34783POPC   PO463377   7.399  19.495   6.325  0.1489  0.0183 -0.0056
34783POPC   GL163378   7.390  19.240   6.688 -0.0994 -0.2620 -0.2295
34783POPC   GL263379   7.649  19.054   6.797 -0.1488  0.1789  0.1327
34783POPC   C1A63380   7.200  18.922   6.981  0.1372 -0.0691  0.0891
34783POPC   D2A63381   7.234  18.462   7.123 -0.0242  0.1448  0.1864
34783POPC   C3A63382   7.195  18.124   7.483  0.0391  0.2548 -0.1232
34783POPC   C4A63383   7.342  17.963   7.948 -0.0613 -0.0718 -0.0613
34783POPC   C1B63384   7.642  18.635   6.899  0.1246  0.0234  0.0048
34783POPC   C2B63385   7.713  18.334   7.223  0.1777  0.2285  0.2106
34783POPC   C3B63386   7.672  18.006   7.510  0.2588  0.0192 -0.1566
34783POPC   C4B63387   7.781  17.660   7.776  0.0447 -0.1192 -0.0065
34784POPC   NC363388   3.182  32.640   4.020  0.1510 -0.1022 -0.0990
34784POPC   PO463389   3.375  32.647   4.353 -0.1230 -0.2093 -0.0269
34784POPC   GL163390   3.376  32.483   4.747  0.0549  0.2731 -0.0276
34784POPC   GL263391   3.226  32.658   4.937 -0.0437 -0.1948  0.2421
34784POPC   C1A63392   3.700  32.448   5.085 -0.1126  0.1455  0.2381
34784POPC   D2A63393   3.775  32.197   5.495  0.0569  0.0027  0.2604
34784POPC   C3A63394   3.867  32.255   5.927 -0.0172  0.1819 -0.1146
34784POPC   C4A63395   4.152  32.513   6.226  0.0369  0.0076  0.3161
34784POPC   C1B63396   2.960  32.596   5.288  0.1429 -0.0677  0.0189
34784POPC   C2B63397   3.015  32.613   5.768  0.1251  0.0005  0.2441
34784POPC   C3B63398   2.814  32.680   6.159  0.0477 -0.1500  0.2685
34784POPC   C4B63399   2.420  32.624   6.301 -0.0645  0.5221 -0.1496
34785POPC   NC363400  14.272  28.539   4.349  0.0743 -0.3903  0.0442
34785POPC   PO463401  14.676  28.421   4.287  0.1168  0.0522 -0.1741
34785POPC   GL163402  14.891  28.397   4.604 -0.3227 -0.2949 -0.1758
34785POPC   GL263403  14.900  28.218   4.771 -0.0221  0.2241 -0.1192
34785POPC   C1A63404  15.096  28.759   4.871 -0.3128 -0.2764 -0.1934
34785POPC   D2A63405  15.486  28.839   5.061 -0.4056  0.0273 -0.3414
34785POPC   C3A63406  15.548  28.887   5.512 -0.1441 -0.1547  0.1065
34785POPC   C4A63407  15.926  29.106   5.761  0.2142 -0.1385 -0.1949
34785POPC   C1B63408  14.711  28.489   5.036  0.0092  0.0890  0.1403
34785POPC   C2B63409  14.710  28.501   5.533 -0.0279 -0.4036 -0.1629
34785POPC   C3B63410  14.658  28.785   5.890  0.1376  0.0292 -0.0615
34785POPC   C4B63411  14.610  28.723   6.348 -0.2111 -0.1395  0.1552
34786POPC   NC363412   3.216  16.967   4.284  0.0167  0.2612 -0.0526
34786POPC   PO463413   2.995  17.198   4.488 -0.0928  0.0942 -0.4954
34786POPC   GL163414   2.969  16.907   4.693 -0.2416  0.1726 -0.0549
34786POPC   GL263415   2.811  17.028   4.901  0.1074  0.0696  0.0780
34786POPC   C1A63416   3.137  16.768   5.126  0.0637  0.1120 -0.0760
34786POPC   D2A63417   3.503  16.660   5.366 -0.2456 -0.0053 -0.1301
34786POPC   C3A63418   3.578  16.656   5.799 -0.0397 -0.0758  0.1488
34786POPC   C4A63419   3.445  16.525   6.190 -0.0305 -0.1841  0.1467
34786POPC   C1B63420   2.651  16.899   5.283 -0.2111 -0.0708  0.2132
34786POPC   C2B63421   2.535  16.842   5.720 -0.0503 -0.2660 -0.0931
34786POPC   C3B63422   2.382  16.494   5.941 -0.1382 -0.0952  0.1265
34786POPC   C4B63423   2.112  16.065   6.064 -0.4788 -0.0349  0.0150
34787POPC   NC363424   9.450  20.917   9.187  0.2814 -0.0587 -0.1398
34787POPC   PO463425   9.165  21.131   9.317 -0.1509 -0.3024 -0.1103
34787POPC   GL163426   9.006  20.752   9.363  0.0191  0.1505 -0.2626
34787POPC   GL263427   8.818  20.641   9.178 -0.1078 -0.0347  0.0911
34787POPC   C1A63428   8.881  20.533   9.724  0.3136  0.2902  0.0851
34787POPC   D2A63429   9.017  20.162   9.976 -0.1585  0.1136  0.1862
34787POPC   C3A63430   8.673  19.979  10.104  0.1491 -0.0808  0.2520
34787POPC   C4A63431   8.434  19.641  10.142 -0.3392 -0.0908  0.1260
34787POPC   C1B63432   9.217  20.531   9.007  0.0628  0.1877 -0.3557
34787POPC   C2B63433   9.515  20.161   8.879 -0.0070  0.2898  0.3701
34787POPC   C3B63434   9.616  19.722   8.979  0.2086 -0.2652 -0.1540
34787POPC   C4B63435   9.863  19.499   9.326 -0.1277 -0.1417  0.0572
34788POPC   NC363436  12.275  22.420   6.866 -0.2681 -0.0193  0.6591
34788POPC   PO463437  12.463  22.758   6.915 -0.0896 -0.0684  0.1585
34788POPC   GL163438  12.673  22.694   7.255 -0.3244  0.1451  0.2835
34788POPC   GL263439  12.678  23.036   7.315 -0.0496 -0.1930  0.1767
34788POPC   C1A63440  12.845  22.760   7.726 -0.0261 -0.2351 -0.0432
34788POPC   D2A63441  13.021  22.982   8.096 -0.0208 -0.1865 -0.3696
34788POPC   C3A63442  13.328  22.712   8.383  0.1334 -0.0405  0.0331
34788POPC   C4A63443  13.151  22.474   8.753 -0.2845 -0.0086 -0.4679
34788POPC   C1B63444  12.956  23.288   7.602  0.1648  0.0001 -0.3289
34788POPC   C2B63445  13.202  23.522   7.883 -0.1834  0.1240  0.1799
34788POPC   C3B63446  13.476  23.711   8.286 -0.1818  0.2448  0.0789
34788POPC   C4B63447  13.462  23.823   8.706  0.0142 -0.0011  0.1805
34789POPC   NC363448  12.691  23.684   6.745  0.1153  0.0615  0.1947
34789POPC   PO463449  12.553  23.388   6.967  0.4145  0.1493 -0.0447
34789POPC   GL163450  12.717  23.628   7.231 -0.3073  0.4779 -0.1480
34789POPC   GL263451  12.557  23.843   7.390 -0.3378 -0.1830  0.1499
34789POPC   C1A63452  13.020  23.751   7.505  0.1215 -0.0478 -0.1116
34789POPC   D2A63453  13.169  24.022   7.891  0.0553  0.2895  0.2620
34789POPC   C3A63454  13.301  24.431   8.026  0.1272 -0.0646 -0.0346
34789POPC   C4A63455  13.624  24.678   8.206 -0.0379 -0.1485 -0.3234
34789POPC   C1B63456  12.624  24.086   7.790  0.2551 -0.0795 -0.0507
34789POPC   C2B63457  12.734  24.346   8.141  0.1590 -0.2361  0.1541
34789POPC   C3B63458  12.870  24.715   8.414  0.0097  0.1611 -0.0611
34789POPC   C4B63459  13.079  24.990   8.724  0.1305 -0.3902 -0.1498
34790POPC   NC363460   1.862  16.556   4.490  0.1251 -0.1242 -0.0745
34790POPC   PO463461   1.539  16.781   4.454 -0.2797 -0.1766  0.1846
34790POPC   GL163462   1.204  16.612   4.599  0.1401  0.0951  0.0939
34790POPC   GL263463   0.995  16.879   4.654  0.0837 -0.1234 -0.1189
34790POPC   C1A63464   0.985  16.288   4.837 -0.1336 -0.0341 -0.0869
34790POPC   D2A63465   1.078  16.210   5.226  0.0138  0.0358  0.5122
34790POPC   C3A63466   1.284  16.444   5.638  0.1495 -0.1108  0.0741
34790POPC   C4A63467   1.525  16.787   5.796 -0.0163 -0.1200 -0.0065
34790POPC   C1B63468   0.543  17.088   4.684  0.1709 -0.2323  0.2329
34790POPC   C2B63469   0.157  17.009   4.968  0.1638  0.0614 -0.0178
34790POPC   C3B63470   0.172  16.820   5.383  0.0225  0.0262 -0.2904
34790POPC   C4B63471   0.389  16.592   5.684  0.1874  0.0244 -0.1814
34791POPC   NC363472  12.943  21.547   5.808  0.0265  0.0937  0.0075
34791POPC   PO463473  13.029  21.457   6.177  0.1142 -0.0645 -0.2164
34791POPC   GL163474  13.257  21.372   6.435 -0.0824  0.0935 -0.2079
34791POPC   GL263475  13.173  21.395   6.738 -0.2772  0.0850 -0.2906
34791POPC   C1A63476  13.738  21.428   6.343  0.4312  0.0511  0.3306
34791POPC   D2A63477  14.156  21.223   6.461 -0.1164 -0.1490 -0.4711
34791POPC   C3A63478  14.575  21.130   6.303 -0.1286  0.0403  0.1090
34791POPC   C4A63479  14.924  21.256   5.967  0.1324 -0.0440 -0.1142
34791POPC   C1B63480  13.407  21.174   7.125  0.2303 -0.0944  0.0151
34791POPC   C2B63481  13.777  21.026   7.343 -0.2215  0.0848 -0.0058
34791POPC   C3B63482  14.146  20.742   7.373  0.4603  0.2918  0.1407
34791POPC   C4B63483  14.594  20.720   7.329  0.0985 -0.0940  0.2188
34792POPC   NC363484   6.408  23.795   6.919 -0.0713  0.3567  0.1977
34792POPC   PO463485   6.720  23.658   7.142 -0.1198  0.2465 -0.3527
34792POPC   GL163486   6.663  23.677   7.601  0.0198  0.0755  0.1861
34792POPC   GL263487   6.744  23.964   7.580  0.2804  0.3420 -0.1376
34792POPC   C1A63488   6.561  23.816   8.055  0.0383  0.1592  0.0952
34792POPC   D2A63489   6.325  24.149   8.305 -0.2564  0.1103  0.2627
34792POPC   C3A63490   5.921  24.038   8.372 -0.3351 -0.1501  0.0085
34792POPC   C4A63491   5.500  23.907   8.369 -0.3295  0.3564  0.2671
34792POPC   C1B63492   6.530  24.291   7.878  0.0378  0.0327  0.1249
34792POPC   C2B63493   6.339  24.632   8.104  0.5083 -0.0336 -0.0304
34792POPC   C3B63494   6.217  24.977   8.447  0.1097 -0.1176  0.1171
34792POPC   C4B63495   5.980  25.279   8.674  0.0331 -0.1866  0.1994
34793POPC   NC363496  11.973  31.054   4.480 -0.0176 -0.2359  0.3486
34793POPC   PO463497  11.701  31.319   4.482 -0.0588  0.1988  0.1065
34793POPC   GL163498  11.609  31.095   4.832 -0.1918  0.0720 -0.0777
34793POPC   GL263499  11.488  30.860   4.664 -0.2809  0.1863 -0.2193
34793POPC   C1A63500  11.812  31.262   5.228  0.1097 -0.0524  0.1145
34793POPC   D2A63501  11.806  31.186   5.705 -0.1880  0.1734 -0.1221
34793POPC   C3A63502  12.149  30.932   5.977  0.0505 -0.0190 -0.1354
34793POPC   C4A63503  12.320  30.923   6.408 -0.0045  0.2312 -0.1697
34793POPC   C1B63504  11.514  30.797   5.155  0.0477 -0.2495 -0.0425
34793POPC   C2B63505  11.672  30.676   5.570  0.0372 -0.1886 -0.4264
34793POPC   C3B63506  11.658  30.811   5.998  0.2108  0.0031 -0.3911
34793POPC   C4B63507  11.814  30.563   6.361 -0.1051  0.3800  0.3369
34794POPC   NC363508   5.589  24.722   5.736  0.0204 -0.0163 -0.2880
34794POPC   PO463509   5.795  24.626   6.088  0.0695 -0.4366  0.0837
34794POPC   GL163510   5.551  24.833   6.231  0.0575  0.1848  0.0850
34794POPC   GL263511   5.543  25.078   6.068 -0.1422  0.0449  0.3828
34794POPC   C1A63512   5.770  25.121   6.531  0.0745 -0.0544  0.2786
34794POPC   D2A63513   5.736  25.309   6.944  0.1385 -0.0706 -0.0464
34794POPC   C3A63514   5.451  25.403   7.236 -0.1763 -0.0213 -0.0319
34794POPC   C4A63515   5.090  25.699   7.306 -0.0499  0.1667 -0.0325
34794POPC   C1B63516   5.288  25.168   6.412  0.2589  0.0700  0.0758
34794POPC   C2B63517   5.085  25.419   6.800 -0.1134 -0.1625  0.0580
34794POPC   C3B63518   4.703  25.497   7.053  0.2745 -0.2259  0.1984
34794POPC   C4B63519   4.416  25.886   7.020  0.3496 -0.1560  0.0794
34795POPC   NC363520   0.529  18.028   4.562 -0.0139  0.0296 -0.1993
34795POPC   PO463521   0.325  18.321   4.734 -0.0646 -0.3283  0.0299
34795POPC   GL163522   0.316  18.297   5.103  0.3453 -0.1754  0.1819
34795POPC   GL263523   0.298  17.952   5.106 -0.0096  0.1665 -0.0895
34795POPC   C1A63524  -0.004  18.239   5.409 -0.3090  0.2602  0.2910
34795POPC   D2A63525  -0.403  18.322   5.615  0.0364 -0.0656  0.1682
34795POPC   C3A63526  -0.552  18.328   6.052 -0.1327 -0.2620  0.2090
34795POPC   C4A63527  -0.393  18.286   6.520 -0.0627  0.2927  0.3957
34795POPC   C1B63528   0.109  17.563   5.208 -0.3568 -0.0254 -0.0400
34795POPC   C2B63529   0.077  17.316   5.605  0.2750  0.3754  0.1818
34795POPC   C3B63530  -0.179  17.447   5.963  0.0934  0.0406 -0.3145
34795POPC   C4B63531  -0.578  17.428   6.213 -0.0832  0.0469 -0.2048
34796POPC   NC363532  10.133  20.548   7.487  0.1387  0.2691  0.1443
34796POPC   PO463533  10.004  20.254   7.307 -0.0206 -0.1123  0.2507
34796POPC   GL163534   9.826  20.099   7.599 -0.2765  0.1379  0.1358
34796POPC   GL263535   9.905  20.176   7.885  0.1245 -0.2758 -0.1467
34796POPC   C1A63536  10.057  19.712   7.824 -0.2998  0.1869 -0.0608
34796POPC   D2A63537  10.052  19.396   8.175  0.0557  0.1119  0.0193
34796POPC   C3A63538   9.944  18.966   8.364  0.0301 -0.0587  0.5239
34796POPC   C4A63539   9.617  18.702   8.438  0.2700  0.3861 -0.0668
34796POPC   C1B63540   9.553  19.886   8.056 -0.1930  0.1348 -0.2744
34796POPC   C2B63541   9.143  19.726   7.913 -0.0735  0.0338  0.1372
34796POPC   C3B63542   8.847  19.497   8.122  0.3294  0.1950  0.0879
34796POPC   C4B63543   8.513  19.350   8.391  0.1185 -0.0519 -0.0391
34797POPC   NC363544  11.509  21.763   8.141  0.0307 -0.3578 -0.0356
34797POPC   PO463545  11.551  21.460   7.940 -0.3249 -0.2724  0.0613
34797POPC   GL163546  11.712  21.122   7.878 -0.3707  0.1488  0.1028
34797POPC   GL263547  11.951  21.022   8.014  0.2246  0.2874 -0.0753
34797POPC   C1A63548  11.619  20.756   8.187 -0.1433  0.0514  0.1035
34797POPC   D2A63549  11.239  20.543   8.323 -0.4022 -0.1384  0.1579
34797POPC   C3A63550  11.335  20.360   8.713 -0.0687 -0.1047  0.1486
34797POPC   C4A63551  11.563  20.070   8.952  0.2422  0.0780  0.1314
34797POPC   C1B63552  12.423  20.996   8.173  0.0777  0.1307 -0.0348
34797POPC   C2B63553  12.694  21.012   8.569 -0.1482 -0.1319  0.1062
34797POPC   C3B63554  13.008  21.126   8.929  0.3424 -0.1229  0.1029
34797POPC   C4B63555  13.133  21.375   9.302 -0.1369 -0.1436  0.2511
34798POPC   NC363556  10.786  29.168   4.419  0.4542 -0.1884 -0.1711
34798POPC   PO463557  11.017  29.447   4.383 -0.0359 -0.0375  0.1637
34798POPC   GL163558  11.326  29.395   4.693  0.0192  0.1147 -0.0986
34798POPC   GL263559  11.257  29.418   4.973 -0.0257  0.0986  0.2832
34798POPC   C1A63560  11.615  29.754   4.837 -0.0084  0.1417  0.0840
34798POPC   D2A63561  11.811  30.130   5.067 -0.2533 -0.3581  0.0460
34798POPC   C3A63562  11.997  30.348   5.387  0.3265 -0.0926  0.0447
34798POPC   C4A63563  12.169  30.454   5.770  0.0907 -0.0842 -0.3732
34798POPC   C1B63564  11.349  29.737   5.254 -0.1270 -0.0977  0.1300
34798POPC   C2B63565  11.700  29.923   5.541 -0.3435  0.1032 -0.1295
34798POPC   C3B63566  11.795  30.098   5.921  0.1719 -0.1466 -0.2633
34798POPC   C4B63567  12.174  30.137   6.183  0.0915  0.1305  0.0339
34799POPC   NC363568   0.225  30.417   3.845 -0.1072  0.1711 -0.2438
34799POPC   PO463569   0.241  30.029   3.827 -0.0195  0.0036  0.1947
34799POPC   GL163570   0.148  30.013   4.227 -0.1734  0.0104 -0.0825
34799POPC   GL263571   0.412  29.903   4.297 -0.2397  0.0408 -0.1763
34799POPC   C1A63572   0.111  29.987   4.658  0.1233 -0.1323 -0.0747
34799POPC   D2A63573  -0.119  30.081   5.060  0.0519  0.0255 -0.0342
34799POPC   C3A63574   0.029  30.303   5.451  0.0151  0.2456 -0.1538
34799POPC   C4A63575   0.187  30.622   5.734  0.2263  0.5092  0.0869
34799POPC   C1B63576   0.755  30.039   4.596 -0.2031  0.0896 -0.1026
34799POPC   C2B63577   0.892  29.958   5.043  0.0065 -0.1046 -0.1375
34799POPC   C3B63578   0.660  29.724   5.420 -0.1486 -0.2483  0.1707
34799POPC   C4B63579   0.466  29.725   5.825  0.2416 -0.3465 -0.2566
34800POPC   NC363580   8.268  22.062   8.958 -0.0269 -0.2494 -0.0418
34800POPC   PO463581   8.409  22.102   9.308  0.0503  0.0325  0.0440
34800POPC   GL163582   8.115  22.206   9.519  0.4398 -0.0630 -0.0562
34800POPC   GL263583   7.873  22.109   9.376 -0.2340 -0.0038 -0.0230
34800POPC   C1A63584   7.864  22.080   9.890  0.3003 -0.0716  0.0715
34800POPC   D2A63585   7.396  22.292   9.986  0.0413 -0.1009  0.2588
34800POPC   C3A63586   6.969  22.160  10.050  0.2542 -0.3628  0.0561
34800POPC   C4A63587   6.639  21.875   9.905  0.1170 -0.1675 -0.0538
34800POPC   C1B63588   7.738  22.496   9.660 -0.1838  0.2387 -0.0865
34800POPC   C2B63589   7.416  22.798   9.569 -0.1003 -0.1660  0.2181
34800POPC   C3B63590   7.254  23.101   9.792 -0.0694 -0.0244 -0.1397
34800POPC   C4B63591   7.103  23.516   9.867  0.3266 -0.1198 -0.2036
34801POPC   NC363592   7.525  24.847   7.321  0.2482  0.1433  0.1978
34801POPC   PO463593   7.366  24.552   7.068 -0.1875  0.1895 -0.3127
34801POPC   GL163594   7.078  24.599   7.231  0.0238  0.0939  0.1340
34801POPC   GL263595   6.986  24.809   7.337  0.0620  0.1135  0.1882
34801POPC   C1A63596   6.687  24.400   7.410 -0.2741 -0.1592 -0.1127
34801POPC   D2A63597   6.275  24.160   7.345 -0.1771  0.0603  0.0260
34801POPC   C3A63598   6.212  23.808   7.613  0.0404  0.3920  0.1505
34801POPC   C4A63599   5.995  23.724   8.010  0.1145  0.0582  0.0382
34801POPC   C1B63600   7.221  24.923   7.748 -0.1846  0.1194  0.0831
34801POPC   C2B63601   7.355  25.170   8.115 -0.0221 -0.1100  0.2247
34801POPC   C3B63602   7.513  25.535   8.255  0.1699  0.1026  0.1743
34801POPC   C4B63603   7.793  25.580   8.633 -0.0443  0.0794 -0.0860
34802POPC   NC363604   0.109  28.424   4.103  0.3640 -0.0143  0.1483
34802POPC   PO463605   0.020  28.190   4.396 -0.2553  0.1436 -0.1546
34802POPC   GL163606   0.105  28.388   4.811  0.0438  0.2833 -0.2021
34802POPC   GL263607   0.163  28.279   5.056  0.1290  0.0988  0.2442
34802POPC   C1A63608   0.070  28.790   5.063 -0.0050 -0.2295  0.0441
34802POPC   D2A63609   0.031  29.069   5.452  0.0276  0.2990 -0.0969
34802POPC   C3A63610  -0.102  28.816   5.856 -0.0416 -0.2916 -0.2141
34802POPC   C4A63611  -0.375  28.759   6.267 -0.0848 -0.2169 -0.0305
34802POPC   C1B63612   0.264  28.110   5.461  0.1510  0.3610 -0.1471
34802POPC   C2B63613   0.601  28.209   5.804 -0.0883 -0.1628 -0.1445
34802POPC   C3B63614   0.987  27.975   5.950  0.0786 -0.1682  0.1380
34802POPC   C4B63615   1.372  27.806   5.814  0.1443  0.3676 -0.0667
34803POPC   NC363616   2.180  21.988   5.128 -0.4250  0.0972  0.1453
34803POPC   PO463617   2.281  21.723   5.361  0.0090  0.0261  0.0289
34803POPC   GL163618   2.403  21.539   5.679  0.2346  0.0770 -0.0000
34803POPC   GL263619   2.529  21.259   5.651  0.2516 -0.3627  0.1715
34803POPC   C1A63620   2.392  21.680   6.113 -0.0177 -0.3051 -0.0112
34803POPC   D2A63621   2.348  21.672   6.582 -0.0344  0.1705  0.1287
34803POPC   C3A63622   2.017  21.946   6.680 -0.1166  0.0059  0.0868
34803POPC   C4A63623   1.657  21.910   6.928  0.0746 -0.1528  0.1455
34803POPC   C1B63624   2.240  21.048   5.979  0.0992 -0.3171 -0.0318
34803POPC   C2B63625   2.113  21.048   6.421 -0.0061 -0.0039  0.1595
34803POPC   C3B63626   2.156  21.259   6.808  0.0901 -0.2917 -0.1246
34803POPC   C4B63627   2.003  21.560   7.144 -0.0552  0.0802 -0.0833
34804POPC   NC363628  12.898  24.537   6.547 -0.0585 -0.1677  0.0642
34804POPC   PO463629  12.824  24.197   6.645  0.0228 -0.0041  0.1575
34804POPC   GL163630  13.038  24.282   6.936 -0.1010 -0.1752 -0.0851
34804POPC   GL263631  13.011  24.074   7.117 -0.0277 -0.2801 -0.0839
34804POPC   C1A63632  13.480  24.312   7.092  0.0888  0.3625  0.0278
34804POPC   D2A63633  13.900  24.369   7.300 -0.0049  0.1568  0.3036
34804POPC   C3A63634  14.196  24.684   7.487  0.0998 -0.0609  0.0882
34804POPC   C4A63635  14.567  24.928   7.380  0.1014  0.0649 -0.0061
34804POPC   C1B63636  12.845  24.352   7.431 -0.2406  0.1628  0.1043
34804POPC   C2B63637  12.996  24.687   7.726  0.0282  0.2821  0.0522
34804POPC   C3B63638  13.160  24.943   8.075 -0.0875  0.2643 -0.1655
34804POPC   C4B63639  13.190  25.342   8.273 -0.0338 -0.0649  0.0276
34805POPC   NC363640  11.178  30.938   4.249  0.0951 -0.1272 -0.1484
34805POPC   PO463641  10.865  30.690   4.227  0.0042  0.2061 -0.3746
34805POPC   GL163642  10.973  30.612   4.640 -0.0152 -0.0121  0.2384
34805POPC   GL263643  10.971  30.312   4.675 -0.1638  0.1651 -0.3314
34805POPC   C1A63644  10.968  30.845   5.058 -0.2104 -0.1355 -0.0810
34805POPC   D2A63645  10.750  31.171   5.350 -0.1762 -0.3008 -0.2337
34805POPC   C3A63646  10.715  30.921   5.757 -0.1653  0.0463 -0.3349
34805POPC   C4A63647  10.646  30.625   6.125 -0.4421 -0.2560 -0.1803
34805POPC   C1B63648  11.296  30.389   4.898 -0.2821  0.1347 -0.4871
34805POPC   C2B63649  11.467  30.290   5.339  0.2509 -0.1304  0.0378
34805POPC   C3B63650  11.299  30.266   5.782  0.0609 -0.0311  0.1367
34805POPC   C4B63651  10.936  30.313   5.948 -0.0045  0.0273  0.1287
34806POPC   NC363652  14.858  23.793   6.026 -0.2418  0.0456  0.0385
34806POPC   PO463653  14.863  23.922   5.640 -0.1462 -0.2563  0.0944
34806POPC   GL163654  14.965  24.209   5.866 -0.1592  0.0455 -0.0680
34806POPC   GL263655  15.237  24.107   6.032 -0.0239  0.3223  0.0795
34806POPC   C1A63656  14.721  24.250   6.249  0.2449 -0.0717  0.0301
34806POPC   D2A63657  14.626  24.543   6.625 -0.3120  0.0670  0.0087
34806POPC   C3A63658  14.311  24.629   6.940  0.0228 -0.2194  0.1703
34806POPC   C4A63659  14.179  25.022   7.135 -0.0190  0.2809 -0.3485
34806POPC   C1B63660  15.224  24.076   6.503  0.0967 -0.1818 -0.1227
34806POPC   C2B63661  15.034  24.081   6.961  0.0686 -0.0692 -0.1536
34806POPC   C3B63662  14.807  24.238   7.344 -0.1274  0.3802 -0.0095
34806POPC   C4B63663  14.812  24.538   7.664 -0.0354  0.1176  0.1300
34807POPC   NC363664  14.590  20.695   4.786 -0.0727 -0.0851 -0.2793
34807POPC   PO463665  14.274  20.778   5.058 -0.1575  0.1087 -0.2770
34807POPC   GL163666  14.172  20.651   5.420 -0.1699  0.2764 -0.1896
34807POPC   GL263667  14.372  20.445   5.526 -0.1653 -0.1026 -0.0605
34807POPC   C1A63668  13.876  20.874   5.755 -0.1405  0.2515  0.1281
34807POPC   D2A63669  13.864  20.994   6.188  0.2486  0.0255 -0.0768
34807POPC   C3A63670  14.147  20.774   6.493 -0.1310 -0.2363 -0.2215
34807POPC   C4A63671  14.428  20.808   6.838 -0.2393 -0.1837 -0.1847
34807POPC   C1B63672  14.673  20.244   5.880 -0.0160  0.0082  0.0675
34807POPC   C2B63673  14.925  20.258   6.278  0.1152  0.0620 -0.0818
34807POPC   C3B63674  15.305  20.324   6.533 -0.2611  0.3534 -0.2357
34807POPC   C4B63675  15.456  20.555   6.901 -0.0498 -0.0158  0.1100
34808POPC   NC363676   1.932  26.633   4.025 -0.3784  0.5204 -0.4603
34808POPC   PO463677   2.214  26.861   4.194  0.1599  0.0498 -0.1749
34808POPC   GL163678   2.085  26.919   4.675  0.1702  0.0483 -0.1819
34808POPC   GL263679   1.802  26.911   4.794 -0.3038  0.1824 -0.0369
34808POPC   C1A63680   2.358  26.866   5.033  0.0731 -0.2358 -0.1151
34808POPC   D2A63681   2.460  26.613   5.425  0.1385 -0.0566  0.2703
34808POPC   C3A63682   2.647  26.780   5.772 -0.2947 -0.0224 -0.3783
34808POPC   C4A63683   2.628  26.768   6.236 -0.0048 -0.0805 -0.2616
34808POPC   C1B63684   1.968  27.147   5.190 -0.0242 -0.0113 -0.0910
34808POPC   C2B63685   2.244  27.037   5.563  0.0582 -0.1884  0.1101
34808POPC   C3B63686   2.148  26.878   5.972  0.0547 -0.0333  0.0706
34808POPC   C4B63687   1.977  27.077   6.354  0.0360  0.0748 -0.3681
34809POPC   NC363688  11.511  22.270  10.075 -0.1771 -0.0084 -0.1750
34809POPC   PO463689  11.601  21.997  10.338 -0.0061 -0.2812  0.0937
34809POPC   GL163690  11.954  22.248  10.239 -0.2788  0.0659 -0.3425
34809POPC   GL263691  12.124  22.139  10.525 -0.0740 -0.3949  0.3648
34809POPC   C1A63692  12.122  21.881   9.987  0.2234 -0.0752  0.0770
34809POPC   D2A63693  12.289  21.433  10.060  0.4065  0.1857  0.0364
34809POPC   C3A63694  12.054  21.168  10.390  0.0087  0.1876 -0.2556
34809POPC   C4A63695  11.875  20.727  10.539 -0.2186 -0.0322 -0.1730
34809POPC   C1B63696  12.227  22.434  10.907 -0.1950  0.0444  0.1843
34809POPC   C2B63697  12.514  22.772  11.154  0.1464  0.4735  0.2070
34809POPC   C3B63698  12.635  23.090  11.447 -0.0303  0.0637  0.1438
34809POPC   C4B63699  13.023  23.362  11.629  0.0653  0.3285  0.1629
34810POPC   NC363700   8.449  25.017   7.551 -0.0560  0.0791 -0.3665
34810POPC   PO463701   8.524  24.715   7.789 -0.1620  0.0756 -0.0502
34810POPC   GL163702   8.617  25.022   7.986 -0.0758 -0.2911  0.0963
34810POPC   GL263703   8.840  25.221   7.919  0.2986 -0.2274 -0.0268
34810POPC   C1A63704   8.795  25.196   8.384  0.2035 -0.0882  0.1063
34810POPC   D2A63705   9.210  25.377   8.486  0.2883  0.2950  0.1861
34810POPC   C3A63706   9.426  25.765   8.591  0.2460  0.3159  0.0487
34810POPC   C4A63707   9.502  26.213   8.470 -0.0662 -0.1306  0.0102
34810POPC   C1B63708   9.060  25.618   7.947  0.0046 -0.0155 -0.1412
34810POPC   C2B63709   9.320  25.998   8.022 -0.1264  0.0005  0.0761
34810POPC   C3B63710   9.308  26.486   8.100 -0.0728  0.2767 -0.1426
34810POPC   C4B63711   9.628  26.747   8.382  0.1142  0.2907 -0.0518
34811POPC   NC363712  12.453  31.479   4.293  0.0092  0.1791  0.0960
34811POPC   PO463713  12.730  31.741   4.501  0.1516 -0.2823 -0.2822
34811POPC   GL163714  12.641  31.520   4.887  0.2089 -0.1794 -0.2689
34811POPC   GL263715  12.892  31.367   4.885  0.1901  0.1779 -0.0312
34811POPC   C1A63716  12.424  31.554   5.221 -0.2054  0.1621 -0.2448
34811POPC   D2A63717  12.243  31.423   5.602 -0.0793 -0.1713  0.1519
34811POPC   C3A63718  12.439  31.364   5.959  0.4422 -0.0029 -0.3001
34811POPC   C4A63719  12.542  31.410   6.413 -0.1163  0.0311 -0.2777
34811POPC   C1B63720  13.023  31.490   5.287 -0.2374 -0.1324 -0.4035
34811POPC   C2B63721  13.241  31.726   5.604  0.0817  0.2058 -0.2819
34811POPC   C3B63722  13.380  31.814   6.058  0.1975 -0.4971 -0.0878
34811POPC   C4B63723  13.517  31.756   6.426  0.0916  0.1516 -0.1723
34812POPC   NC363724  16.115  30.974   3.422  0.1039 -0.0831  0.0082
34812POPC   PO463725  16.331  30.759   3.689 -0.0091  0.5339  0.3155
34812POPC   GL163726  16.710  30.910   3.885  0.0582  0.0003  0.0868
34812POPC   GL263727  16.575  30.784   4.151 -0.3212 -0.2389  0.0769
34812POPC   C1A63728  17.067  30.963   4.137 -0.2979  0.1186  0.1909
34812POPC   D2A63729  17.504  31.105   4.335 -0.2538  0.0615 -0.0215
34812POPC   C3A63730  17.546  31.245   4.791 -0.0864 -0.0799 -0.1764
34812POPC   C4A63731  17.588  31.115   5.278 -0.1806 -0.3465  0.0271
34812POPC   C1B63732  16.419  31.140   4.367 -0.1727  0.0174  0.4014
34812POPC   C2B63733  16.167  31.261   4.783  0.0201  0.1081  0.0579
34812POPC   C3B63734  15.846  31.120   5.063 -0.3530 -0.1383  0.1273
34812POPC   C4B63735  15.766  30.838   5.450 -0.4878 -0.3691  0.0459
34813POPC   NC363736   3.142  22.619   5.350  0.0842  0.1721 -0.1873
34813POPC   PO463737   3.225  22.236   5.239 -0.1954 -0.0125 -0.0078
34813POPC   GL163738   3.138  22.023   5.561 -0.1825 -0.3813 -0.0899
34813POPC   GL263739   2.942  22.224   5.731 -0.2072 -0.2137  0.5818
34813POPC   C1A63740   3.302  22.010   5.980 -0.1135  0.1667 -0.0624
34813POPC   D2A63741   3.296  22.027   6.445 -0.1451 -0.0097 -0.1106
34813POPC   C3A63742   2.978  21.920   6.744 -0.1347  0.1123 -0.0997
34813POPC   C4A63743   2.871  21.837   7.146  0.1558  0.1870 -0.0102
34813POPC   C1B63744   2.660  22.207   6.151  0.1292  0.4206 -0.1217
34813POPC   C2B63745   2.465  22.274   6.557 -0.1092 -0.2350  0.2118
34813POPC   C3B63746   2.465  22.013   6.944 -0.0561  0.0931 -0.1442
34813POPC   C4B63747   2.262  22.056   7.334 -0.3420 -0.0132  0.2578
34814POPC   NC363748   9.968  25.572   7.504  0.1887  0.1332 -0.1245
34814POPC   PO463749  10.125  25.216   7.396  0.0463  0.3009  0.0367
34814POPC   GL163750  10.250  25.271   7.787 -0.1082  0.3441  0.3231
34814POPC   GL263751  10.008  25.245   7.972  0.0216 -0.1883 -0.1934
34814POPC   C1A63752  10.541  25.644   7.897 -0.1575 -0.0581 -0.0755
34814POPC   D2A63753  10.427  26.094   8.045  0.1825 -0.0085 -0.3731
34814POPC   C3A63754  10.397  26.089   8.482  0.2160  0.2094 -0.0280
34814POPC   C4A63755  10.721  26.049   8.772 -0.0456 -0.0102  0.1125
34814POPC   C1B63756  10.268  25.444   8.274  0.0368 -0.0830  0.0428
34814POPC   C2B63757  10.634  25.670   8.383  0.0793 -0.1071 -0.0947
34814POPC   C3B63758  10.966  25.993   8.209 -0.2400 -0.0208  0.1075
34814POPC   C4B63759  11.247  26.306   8.086  0.0409 -0.0944  0.0225
34815POPC   NC363760  14.671  26.379   4.956  0.0232 -0.0288 -0.0421
34815POPC   PO463761  14.895  26.497   4.657 -0.1391  0.0995  0.1659
34815POPC   GL163762  14.813  26.840   4.926 -0.1517 -0.0730  0.1280
34815POPC   GL263763  15.051  26.906   5.087  0.0084 -0.1652  0.2412
34815POPC   C1A63764  14.673  26.976   5.342  0.3437  0.1237  0.0898
34815POPC   D2A63765  14.822  26.974   5.768 -0.1559 -0.2845 -0.3977
34815POPC   C3A63766  14.586  27.161   6.061 -0.2298  0.2383  0.0645
34815POPC   C4A63767  14.454  27.375   6.455 -0.1207 -0.1977  0.2030
34815POPC   C1B63768  15.285  26.857   5.452  0.0839 -0.1155  0.1950
34815POPC   C2B63769  15.403  27.035   5.873  0.2813  0.5121 -0.3270
34815POPC   C3B63770  15.366  27.377   6.207  0.0493  0.0813  0.1556
34815POPC   C4B63771  15.093  27.546   6.558  0.0821  0.0545  0.1408
34816POPC   NC363772   8.507  27.592   5.734  0.0107 -0.1567 -0.3315
34816POPC   PO463773   8.647  27.862   5.481  0.2220  0.0816 -0.0554
34816POPC   GL163774   8.683  28.092   5.884  0.1419  0.0498  0.0494
34816POPC   GL263775   8.581  27.934   6.084  0.0099  0.1564 -0.4883
34816POPC   C1A63776   8.938  28.339   6.181 -0.1009 -0.3350  0.0673
34816POPC   D2A63777   8.916  28.791   6.224  0.0881  0.0454 -0.0868
34816POPC   C3A63778   8.939  29.004   6.610  0.2624 -0.1278  0.2140
34816POPC   C4A63779   9.162  29.302   6.833 -0.0511  0.0618 -0.3826
34816POPC   C1B63780   8.340  27.891   6.467  0.1543  0.0937  0.2698
34816POPC   C2B63781   8.087  27.875   6.868 -0.0953  0.0398 -0.0506
34816POPC   C3B63782   7.657  27.825   7.040 -0.0414  0.0784  0.1229
34816POPC   C4B63783   7.503  27.624   7.425 -0.0138 -0.2715 -0.0219
34817POPC   NC363784   8.364  25.892   6.088 -0.0480 -0.1375  0.0579
34817POPC   PO463785   8.503  26.267   6.113 -0.1064 -0.0730  0.1037
34817POPC   GL163786   8.391  26.587   6.418 -0.2317  0.0673  0.1209
34817POPC   GL263787   8.130  26.507   6.416  0.1751 -0.2725  0.0406
34817POPC   C1A63788   8.698  26.904   6.654  0.0261 -0.1452 -0.0010
34817POPC   D2A63789   8.824  27.238   6.945  0.0379  0.1305 -0.4540
34817POPC   C3A63790   9.233  27.234   7.152 -0.1799  0.1627  0.1902
34817POPC   C4A63791   9.651  27.247   7.269 -0.4469 -0.1365 -0.0057
34817POPC   C1B63792   7.752  26.571   6.472 -0.2103  0.0560  0.0243
34817POPC   C2B63793   7.449  26.850   6.706  0.0761  0.2626 -0.1194
34817POPC   C3B63794   7.337  26.968   7.134  0.1227 -0.1721  0.2269
34817POPC   C4B63795   7.082  27.313   7.260 -0.0500  0.1521  0.0643
34818POPC   NC363796  11.614  24.559   6.979  0.3765  0.0867  0.2587
34818POPC   PO463797  11.303  24.597   7.213  0.1212 -0.1768  0.1087
34818POPC   GL163798  11.536  24.897   7.358 -0.0780  0.3536 -0.4890
34818POPC   GL263799  11.659  24.691   7.572  0.0849 -0.3033 -0.0181
34818POPC   C1A63800  11.571  25.096   7.804  0.0763 -0.2241 -0.2565
34818POPC   D2A63801  11.424  25.156   8.210  0.0424  0.6594 -0.2271
34818POPC   C3A63802  11.553  25.454   8.566  0.1847  0.0874 -0.0004
34818POPC   C4A63803  11.774  25.860   8.594  0.0075 -0.2738  0.0063
34818POPC   C1B63804  11.941  24.896   7.984 -0.1587  0.1719  0.1908
34818POPC   C2B63805  11.990  25.199   8.370 -0.1210 -0.1569  0.2220
34818POPC   C3B63806  12.213  25.496   8.665  0.0412 -0.0627 -0.1994
34818POPC   C4B63807  12.479  25.733   8.966 -0.0387 -0.0465  0.0677
34819POPC   NC363808  14.868  25.596   5.259  0.0089 -0.0749 -0.1324
34819POPC   PO463809  15.170  25.759   5.112 -0.1186  0.0617  0.0611
34819POPC   GL163810  15.320  25.661   5.454 -0.1658 -0.0599  0.0049
34819POPC   GL263811  15.633  25.719   5.368 -0.3056  0.1439 -0.3092
34819POPC   C1A63812  15.288  25.605   5.918  0.2401 -0.3723  0.0881
34819POPC   D2A63813  15.157  25.664   6.364  0.0432  0.0594 -0.1677
34819POPC   C3A63814  15.182  26.157   6.494 -0.0783 -0.1037  0.1524
34819POPC   C4A63815  15.143  26.643   6.642  0.0262  0.2886  0.1477
34819POPC   C1B63816  15.737  25.895   5.780 -0.3073 -0.1771 -0.2224
34819POPC   C2B63817  15.988  26.146   6.099 -0.0225 -0.0528  0.0061
34819POPC   C3B63818  15.992  26.011   6.525 -0.0966 -0.3772  0.0121
34819POPC   C4B63819  15.992  25.858   7.014 -0.0332  0.2497 -0.0084
34820POPC   NC363820   8.386  19.518   6.809 -0.1212  0.3492 -0.2396
34820POPC   PO463821   8.031  19.526   6.641  0.1017  0.0984 -0.3593
34820POPC   GL163822   8.001  19.325   6.888 -0.0346  0.2133  0.1381
34820POPC   GL263823   8.049  19.510   7.166 -0.3679  0.1653  0.3317
34820POPC   C1A63824   7.970  18.988   7.173  0.0795  0.1168 -0.3365
34820POPC   D2A63825   7.810  18.708   7.604 -0.0207  0.0662  0.0798
34820POPC   C3A63826   7.352  18.635   7.577  0.1873 -0.1855 -0.0621
34820POPC   C4A63827   6.974  18.832   7.421  0.1140  0.1119  0.3188
34820POPC   C1B63828   7.922  19.316   7.552  0.1892 -0.1539  0.1064
34820POPC   C2B63829   7.740  19.195   7.935  0.1851  0.0994 -0.2687
34820POPC   C3B63830   7.546  18.847   8.152 -0.0472  0.0015  0.0872
34820POPC   C4B63831   7.328  18.476   8.045  0.0518 -0.0097 -0.0602
34821POPC   NC363832  10.672  21.371  10.441 -0.0083  0.2318  0.1129
34821POPC   PO463833  10.974  21.500  10.663  0.0936 -0.1930  0.4469
34821POPC   GL163834  11.320  21.438  10.780 -0.0522 -0.2193  0.1275
34821POPC   GL263835  11.469  21.694  10.716 -0.3239  0.3478 -0.1506
34821POPC   C1A63836  11.423  21.145  11.186 -0.2589  0.1405  0.0171
34821POPC   D2A63837  11.765  20.963  11.506 -0.2509 -0.0569  0.1788
34821POPC   C3A63838  11.875  20.505  11.568  0.1623 -0.0393 -0.1709
34821POPC   C4A63839  12.056  20.206  11.767 -0.1986  0.1842  0.0053
34821POPC   C1B63840  11.797  21.500  10.899  0.0936  0.0322 -0.0023
34821POPC   C2B63841  12.273  21.415  10.953 -0.1444 -0.0027  0.1274
34821POPC   C3B63842  12.639  21.669  10.937  0.2691 -0.0453  0.0979
34821POPC   C4B63843  12.870  21.950  11.137  0.0263  0.0891 -0.2672
34822POPC   NC363844  15.222  32.046   4.180 -0.2011 -0.1963  0.0493
34822POPC   PO463845  15.524  31.882   3.984  0.0452  0.0392 -0.2287
34822POPC   GL163846  15.790  31.933   4.326  0.2051 -0.3009  0.0369
34822POPC   GL263847  15.605  32.008   4.577  0.2895 -0.0284  0.3493
34822POPC   C1A63848  16.177  31.744   4.526 -0.2473  0.1798 -0.5223
34822POPC   D2A63849  16.334  31.785   4.969  0.0993  0.1643  0.0133
34822POPC   C3A63850  16.497  32.153   5.165  0.1738 -0.0445 -0.0777
34822POPC   C4A63851  16.884  32.402   5.342  0.1882 -0.0442  0.2537
34822POPC   C1B63852  15.425  31.955   5.029  0.0709  0.2015  0.2587
34822POPC   C2B63853  15.397  31.539   5.163 -0.1331 -0.2133  0.0444
34822POPC   C3B63854  15.552  31.314   5.534 -0.2485  0.0839  0.0606
34822POPC   C4B63855  15.722  31.044   5.896 -0.0170 -0.0438 -0.0081
34823POPC   NC363856   6.635   0.155   4.862  0.0386 -0.2542 -0.1642
34823POPC   PO463857   6.425   0.479   4.799 -0.2520  0.0809 -0.0931
34823POPC   GL163858   6.207   0.338   5.084  0.4298 -0.1067  0.0488
34823POPC   GL263859   6.162   0.070   5.046  0.1625  0.0623  0.1086
34823POPC   C1A63860   5.920   0.197   5.455 -0.0314 -0.0591 -0.0761
34823POPC   D2A63861   5.657   0.227   5.870 -0.0934  0.3086 -0.0038
34823POPC   C3A63862   5.423   0.149   6.237  0.4230  0.0774  0.1172
34823POPC   C4A63863   4.995  -0.039   6.320 -0.3175  0.1927 -0.0809
34823POPC   C1B63864   6.194  -0.192   5.433 -0.2057  0.1246  0.0701
34823POPC   C2B63865   6.166  -0.437   5.815 -0.0026 -0.1022 -0.1248
34823POPC   C3B63866   6.232  -0.417   6.254 -0.0264  0.0918  0.1687
34823POPC   C4B63867   6.205  -0.214   6.694  0.4072 -0.0339  0.0941
34824POPC   NC363868   9.311  21.505   9.881 -0.0186  0.3062  0.1571
34824POPC   PO463869   8.927  21.413   9.812 -0.1219  0.1634 -0.3065
34824POPC   GL163870   8.895  21.207  10.116  0.3850  0.1994 -0.1555
34824POPC   GL263871   8.698  20.992  10.081  0.1783  0.1730  0.1528
34824POPC   C1A63872   8.954  20.966  10.507  0.0494  0.0479  0.0873
34824POPC   D2A63873   8.818  20.667  10.820 -0.0624  0.0437 -0.1928
34824POPC   C3A63874   8.371  20.728  10.814  0.0952  0.0373 -0.2617
34824POPC   C4A63875   7.962  20.700  11.064  0.1358  0.1821 -0.2028
34824POPC   C1B63876   8.365  20.934  10.397 -0.0058  0.0874  0.1302
34824POPC   C2B63877   7.912  20.947  10.515 -0.2527 -0.0410  0.1306
34824POPC   C3B63878   7.406  20.970  10.613 -0.0184 -0.0266  0.0041
34824POPC   C4B63879   6.913  21.060  10.663  0.3099 -0.1706  0.0101
34825POPC   NC363880   3.070  24.144   5.212  0.1460 -0.1222  0.0082
34825POPC   PO463881   2.947  24.251   4.834 -0.0743  0.2495 -0.3416
34825POPC   GL163882   2.692  24.374   5.132  0.0134 -0.1085 -0.0693
34825POPC   GL263883   2.601  24.696   5.174 -0.2239 -0.3103 -0.4584
34825POPC   C1A63884   2.618  24.329   5.602  0.0187  0.1715 -0.2162
34825POPC   D2A63885   2.647  24.094   5.993 -0.2485 -0.1709 -0.0956
34825POPC   C3A63886   2.857  24.108   6.373  0.0461  0.1614  0.0180
34825POPC   C4A63887   2.962  23.856   6.736  0.0908  0.3529 -0.1834
34825POPC   C1B63888   2.373  24.805   5.600 -0.1542 -0.0712  0.1071
34825POPC   C2B63889   2.560  24.831   6.032  0.1795 -0.0751 -0.0495
34825POPC   C3B63890   2.875  25.139   6.113 -0.1713 -0.1209 -0.0205
34825POPC   C4B63891   3.298  25.247   6.054 -0.1510  0.0737  0.0034
34826POPC   NC363892   7.935  30.012   4.879  0.1623  0.2990  0.0473
34826POPC   PO463893   8.280  29.854   4.932  0.0383  0.0263  0.1684
34826POPC   GL163894   8.073  29.792   5.311  0.3517 -0.2293  0.1866
34826POPC   GL263895   8.380  29.864   5.397 -0.2838  0.4217  0.1268
34826POPC   C1A63896   8.087  29.962   5.757 -0.0863  0.1188 -0.3410
34826POPC   D2A63897   8.248  30.261   6.060 -0.0382  0.1304  0.1055
34826POPC   C3A63898   8.632  30.178   6.301  0.1732 -0.3781 -0.1685
34826POPC   C4A63899   8.989  30.340   6.546 -0.0320  0.0668  0.0599
34826POPC   C1B63900   8.626  29.860   5.773 -0.3643 -0.3905  0.2112
34826POPC   C2B63901   8.864  30.223   5.876 -0.0173  0.5176  0.4640
34826POPC   C3B63902   9.206  30.475   6.069  0.1195  0.1668 -0.0158
34826POPC   C4B63903   9.600  30.493   6.353  0.0675 -0.0942 -0.1953
34827POPC   NC363904  13.230  30.540   4.137 -0.3285  0.0558  0.2650
34827POPC   PO463905  13.451  30.276   4.304 -0.2982  0.0400 -0.2685
34827POPC   GL163906  13.520  30.234   4.767  0.2369  0.3658  0.0676
34827POPC   GL263907  13.292  30.152   4.819 -0.1314  0.2016  0.1601
34827POPC   C1A63908  13.681  30.584   4.951 -0.2411  0.3666 -0.0443
34827POPC   D2A63909  13.661  30.839   5.370  0.0491 -0.1905  0.0245
34827POPC   C3A63910  13.718  30.705   5.851 -0.0954 -0.2043  0.2080
34827POPC   C4A63911  13.694  30.412   6.190  0.0994 -0.0450  0.1356
34827POPC   C1B63912  13.439  30.270   5.304 -0.0128 -0.1009  0.2768
34827POPC   C2B63913  13.417  30.357   5.768 -0.4293  0.0190  0.0884
34827POPC   C3B63914  13.134  30.374   6.142  0.0601 -0.1714  0.0496
34827POPC   C4B63915  12.960  30.632   6.481  0.0029 -0.0920 -0.1793
34828POPC   NC363916   4.813  20.562   6.232  0.1654  0.0079 -0.3668
34828POPC   PO463917   4.834  20.290   5.989 -0.0755 -0.0984  0.2523
34828POPC   GL163918   4.681  20.096   6.412  0.5325  0.0895 -0.1764
34828POPC   GL263919   4.487  20.274   6.561 -0.0747  0.3293 -0.2085
34828POPC   C1A63920   4.963  19.771   6.588  0.0216  0.0049 -0.4503
34828POPC   D2A63921   5.299  19.813   6.883 -0.0035  0.1394 -0.2523
34828POPC   C3A63922   5.046  19.657   7.259 -0.0448 -0.0721  0.0323
34828POPC   C4A63923   4.888  19.848   7.635 -0.1440  0.1118  0.0006
34828POPC   C1B63924   4.335  20.123   7.000 -0.1391  0.1370 -0.0727
34828POPC   C2B63925   4.068  20.223   7.422  0.2709 -0.0920 -0.0292
34828POPC   C3B63926   3.675  20.213   7.735 -0.2366 -0.0347  0.3444
34828POPC   C4B63927   3.313  20.362   7.993 -0.3599  0.1174  0.1702
34829POPC   NC363928  13.104  20.430   5.453  0.2024  0.0810  0.0935
34829POPC   PO463929  13.372  20.548   5.138  0.1181  0.1455 -0.2052
34829POPC   GL163930  13.605  20.594   5.540  0.2114  0.0645 -0.1479
34829POPC   GL263931  13.475  20.527   5.836 -0.2791 -0.0848  0.1024
34829POPC   C1A63932  13.891  20.264   5.765  0.1094  0.0299 -0.0361
34829POPC   D2A63933  13.663  19.925   5.922  0.0865 -0.0267 -0.1561
34829POPC   C3A63934  13.863  19.918   6.380  0.0951 -0.1348 -0.0976
34829POPC   C4A63935  14.187  19.930   6.727 -0.0210  0.1099  0.1358
34829POPC   C1B63936  13.707  20.390   6.207  0.2497 -0.0289  0.0632
34829POPC   C2B63937  13.792  20.379   6.633 -0.1881  0.2245 -0.0935
34829POPC   C3B63938  13.692  20.062   6.882 -0.0193  0.1349 -0.1442
34829POPC   C4B63939  13.653  19.651   7.031  0.2029  0.1911 -0.2455
34830POPC   NC363940  13.472  29.587   4.310 -0.4351  0.2542 -0.0865
34830POPC   PO463941  13.731  29.308   4.387 -0.2254 -0.0293 -0.1192
34830POPC   GL163942  13.744  29.497   4.796 -0.1673 -0.1410  0.0670
34830POPC   GL263943  13.469  29.662   4.797 -0.0807  0.1681 -0.3262
34830POPC   C1A63944  14.013  29.787   5.087  0.2457 -0.1814  0.0730
34830POPC   D2A63945  14.185  29.731   5.524 -0.1968  0.1047  0.0273
34830POPC   C3A63946  14.648  29.749   5.660  0.1154  0.0771 -0.1747
34830POPC   C4A63947  15.003  29.594   5.907 -0.1206  0.1179 -0.0022
34830POPC   C1B63948  13.511  29.672   5.221  0.2861  0.0033 -0.1262
34830POPC   C2B63949  13.587  29.865   5.577 -0.0888 -0.0102  0.1202
34830POPC   C3B63950  13.542  29.975   6.012  0.2887  0.1009 -0.0701
34830POPC   C4B63951  13.445  29.940   6.469 -0.1779  0.2424 -0.0346
34831POPC   NC363952   4.147  20.709   5.672  0.0908  0.1731  0.2705
34831POPC   PO463953   3.760  20.681   5.499 -0.2504  0.1624  0.0241
34831POPC   GL163954   3.518  20.746   5.905  0.1351  0.0717  0.0937
34831POPC   GL263955   3.783  20.801   6.045  0.0292 -0.0905  0.0574
34831POPC   C1A63956   3.275  20.474   6.220  0.1514  0.0207 -0.2711
34831POPC   D2A63957   3.035  20.204   6.528  0.0921 -0.3281 -0.2986
34831POPC   C3A63958   2.735  20.339   6.900  0.0447 -0.3134  0.3740
34831POPC   C4A63959   2.335  20.329   7.050 -0.0364  0.1540  0.1191
34831POPC   C1B63960   3.678  20.803   6.520 -0.1574  0.0209  0.1424
34831POPC   C2B63961   3.460  20.720   6.881  0.5251 -0.0947  0.1451
34831POPC   C3B63962   3.073  21.034   6.957  0.4748  0.3786 -0.1830
34831POPC   C4B63963   3.016  21.328   7.260  0.1393 -0.0886  0.0366
34832POPC   NC363964   3.019  26.628   4.158 -0.0368 -0.3087  0.0927
34832POPC   PO463965   3.038  26.449   4.502 -0.0737 -0.1150 -0.2490
34832POPC   GL163966   2.813  26.813   4.655  0.3814 -0.2471  0.1992
34832POPC   GL263967   2.550  26.961   4.582 -0.1831  0.1188  0.1396
34832POPC   C1A63968   2.838  27.065   5.068  0.2847  0.2859  0.1384
34832POPC   D2A63969   2.959  26.867   5.481 -0.0679 -0.2171 -0.1180
34832POPC   C3A63970   3.119  26.581   5.847  0.1406  0.1388  0.0876
34832POPC   C4A63971   3.198  26.577   6.314 -0.0601 -0.0422  0.1619
34832POPC   C1B63972   2.311  27.307   4.766 -0.2471  0.0113 -0.1201
34832POPC   C2B63973   2.433  27.413   5.187  0.0521  0.1838 -0.0422
34832POPC   C3B63974   2.645  27.292   5.562  0.2020  0.3500  0.1340
34832POPC   C4B63975   2.613  27.217   6.019  0.2393  0.0984  0.1958
34833POPC   NC363976  11.481  19.995   6.104 -0.0962 -0.2983  0.1029
34833POPC   PO463977  11.847  20.077   6.247  0.1915 -0.0443 -0.3761
34833POPC   GL163978  11.931  19.669   6.282  0.0699  0.2915  0.4504
34833POPC   GL263979  12.092  19.682   6.495 -0.4454  0.2124 -0.2994
34833POPC   C1A63980  11.989  19.193   6.440 -0.3560  0.0239 -0.2240
34833POPC   D2A63981  11.789  19.062   6.855  0.0549  0.1336 -0.0714
34833POPC   C3A63982  11.385  19.288   6.832 -0.1492 -0.0560 -0.0464
34833POPC   C4A63983  10.987  19.142   6.839  0.1582  0.0995 -0.2158
34833POPC   C1B63984  12.067  19.533   6.976  0.0104  0.1743  0.1064
34833POPC   C2B63985  12.188  19.197   7.272  0.1428  0.5075  0.0351
34833POPC   C3B63986  12.600  18.910   7.298 -0.0217  0.4700  0.0676
34833POPC   C4B63987  12.818  18.808   7.671  0.0570  0.1486  0.3075
34834POPC   NC363988   9.839  23.418   8.713 -0.3287  0.1791  0.0022
34834POPC   PO463989  10.242  23.512   8.669 -0.2365 -0.1689 -0.0308
34834POPC   GL163990  10.303  23.854   8.836  0.2275 -0.2567  0.0538
34834POPC   GL263991  10.612  23.814   8.856 -0.0304  0.2503 -0.1070
34834POPC   C1A63992  10.445  24.303   8.933  0.2781  0.2387 -0.0596
34834POPC   D2A63993  10.913  24.389   8.924 -0.4581  0.1048  0.2960
34834POPC   C3A63994  10.954  24.760   9.184 -0.0276  0.1110  0.3435
34834POPC   C4A63995  11.358  24.960   9.378  0.3174 -0.1551 -0.1305
34834POPC   C1B63996  10.770  24.016   9.216 -0.3854  0.0051  0.0832
34834POPC   C2B63997  11.070  23.857   9.551  0.0437 -0.0770  0.1801
34834POPC   C3B63998  11.444  23.630   9.515  0.0898 -0.0289  0.0651
34834POPC   C4B63999  11.834  23.465   9.594 -0.0343 -0.0016  0.3845
34835POPC   NC364000   5.464  26.957   5.038  0.1440  0.0473 -0.0673
34835POPC   PO464001   5.690  27.262   5.140  0.1734 -0.0224  0.0164
34835POPC   GL164002   5.812  27.504   5.385  0.2637  0.2892 -0.5303
34835POPC   GL264003   5.704  27.718   5.375 -0.2856 -0.2891 -0.1961
34835POPC   C1A64004   6.053  27.441   5.776 -0.1446  0.0361 -0.2056
34835POPC   D2A64005   5.957  27.763   6.115 -0.1397  0.2001 -0.0413
34835POPC   C3A64006   5.617  28.110   6.065 -0.1069 -0.1061  0.0930
34835POPC   C4A64007   5.181  28.080   5.936  0.1094  0.3002 -0.2658
34835POPC   C1B64008   5.554  27.643   5.814  0.2716  0.2077 -0.1149
34835POPC   C2B64009   5.447  27.521   6.224 -0.1604 -0.2005 -0.3248
34835POPC   C3B64010   5.112  27.337   6.512 -0.0327  0.0886  0.0020
34835POPC   C4B64011   4.845  27.234   6.898  0.0637  0.2668 -0.3441
34836POPC   NC364012   0.035  26.806   4.801 -0.1314 -0.0141  0.4056
34836POPC   PO464013   0.313  26.528   4.815  0.3343  0.1564  0.2209
34836POPC   GL164014   0.358  26.577   5.176 -0.0159 -0.1789  0.2340
34836POPC   GL264015   0.201  26.768   5.242  0.1387  0.0140  0.3066
34836POPC   C1A64016   0.641  26.702   5.536 -0.2075 -0.0725 -0.0433
34836POPC   D2A64017   0.801  26.998   5.917 -0.3401  0.1469  0.2968
34836POPC   C3A64018   0.788  27.434   6.013  0.1371 -0.0769 -0.0258
34836POPC   C4A64019   1.101  27.602   6.315 -0.3215  0.0388 -0.0499
34836POPC   C1B64020  -0.024  26.697   5.678  0.4228 -0.2707 -0.2687
34836POPC   C2B64021  -0.068  26.479   6.112  0.0346  0.2065  0.2659
34836POPC   C3B64022  -0.333  26.519   6.429  0.1137 -0.0588 -0.1479
34836POPC   C4B64023  -0.811  26.423   6.508 -0.1241 -0.0893  0.0013
34837POPC   NC364024  11.256  22.824  12.159 -0.3375  0.2045 -0.0084
34837POPC   PO464025  10.916  22.876  11.994  0.4025 -0.1393  0.0410
34837POPC   GL164026  10.826  23.115  12.214 -0.1782 -0.1127 -0.0644
34837POPC   GL264027  11.117  23.252  12.263 -0.2226 -0.0051 -0.0420
34837POPC   C1A64028  10.612  23.486  12.362  0.0980 -0.5745 -0.1483
34837POPC   D2A64029  10.547  23.824  12.040 -0.0529 -0.1629 -0.0901
34837POPC   C3A64030  10.638  24.200  11.777 -0.0965  0.3646  0.1951
34837POPC   C4A64031  10.572  24.456  11.429 -0.1217  0.0411 -0.1530
34837POPC   C1B64032  11.085  23.665  12.118 -0.1216  0.0459  0.1777
34837POPC   C2B64033  11.038  24.133  12.016  0.0997 -0.0243 -0.1351
34837POPC   C3B64034  11.054  24.588  11.956  0.1291 -0.0127  0.1203
34837POPC   C4B64035  11.336  24.866  12.232  0.2471  0.1420 -0.0094
34838POPC   NC364036   8.625  23.707   8.815 -0.1377  0.2583 -0.0507
34838POPC   PO464037   8.493  23.904   8.447 -0.2129 -0.2305  0.0401
34838POPC   GL164038   8.342  24.085   8.701 -0.5342 -0.0386 -0.2525
34838POPC   GL264039   8.050  24.070   8.711  0.0488 -0.2025 -0.1450
34838POPC   C1A64040   8.200  24.025   9.153  0.0322 -0.0026  0.1976
34838POPC   D2A64041   7.895  23.972   9.521  0.0017 -0.0786 -0.0028
34838POPC   C3A64042   7.860  24.296   9.873  0.0989  0.2426  0.1238
34838POPC   C4A64043   7.920  24.487  10.249  0.1636  0.3702 -0.1979
34838POPC   C1B64044   7.803  24.285   9.023 -0.0827 -0.2286  0.0179
34838POPC   C2B64045   7.583  24.471   9.349 -0.0710  0.0354  0.1414
34838POPC   C3B64046   7.353  24.378   9.749  0.1498  0.0747 -0.0996
34838POPC   C4B64047   7.094  24.033   9.966  0.4035  0.1019  0.2791
34839POPC   NC364048   2.681  22.887   4.998 -0.0722  0.1482 -0.0911
34839POPC   PO464049   3.005  23.047   5.185  0.2858 -0.1582 -0.2107
34839POPC   GL164050   3.088  23.059   5.528  0.0669 -0.1064  0.2919
34839POPC   GL264051   3.221  22.937   5.790 -0.1437  0.1205  0.1131
34839POPC   C1A64052   2.959  23.461   5.772 -0.0018 -0.0238  0.1110
34839POPC   D2A64053   2.864  23.874   5.676 -0.3000  0.2453 -0.0029
34839POPC   C3A64054   3.109  24.220   5.824 -0.2059 -0.2744 -0.1328
34839POPC   C4A64055   3.024  24.635   6.039 -0.0765  0.2071 -0.0215
34839POPC   C1B64056   3.045  22.611   6.057  0.0232  0.0334  0.1638
34839POPC   C2B64057   2.880  22.526   6.495 -0.1348 -0.1083 -0.2732
34839POPC   C3B64058   2.889  22.426   6.931 -0.1982  0.0782 -0.0455
34839POPC   C4B64059   2.803  22.273   7.372  0.0412  0.1470  0.0056
34840POPC   NC364060   6.951  18.294   5.846  0.0652 -0.0105  0.0214
34840POPC   PO464061   6.881  18.057   5.561  0.0299 -0.1752  0.0401
34840POPC   GL164062   6.790  17.790   5.943 -0.2843 -0.0486  0.1929
34840POPC   GL264063   7.084  17.713   5.871 -0.0526  0.7273  0.1483
34840POPC   C1A64064   6.427  17.659   6.203 -0.0017 -0.1591 -0.2160
34840POPC   D2A64065   6.021  17.839   6.391 -0.0201 -0.0063  0.1914
34840POPC   C3A64066   5.800  17.431   6.524  0.0506 -0.0455  0.1296
34840POPC   C4A64067   5.385  17.107   6.644 -0.0002 -0.1731  0.3033
34840POPC   C1B64068   7.129  17.924   6.252 -0.4577 -0.0202 -0.1483
34840POPC   C2B64069   6.946  17.925   6.676 -0.1192  0.2176  0.0852
34840POPC   C3B64070   6.748  17.722   7.035 -0.2642 -0.0085  0.0727
34840POPC   C4B64071   6.401  17.779   7.392 -0.0916  0.0656 -0.1355
34841POPC   NC364072   3.886  30.130   4.025  0.2596  0.1249 -0.1854
34841POPC   PO464073   4.270  30.091   4.089  0.0145  0.0489  0.0611
34841POPC   GL164074   4.250  30.057   4.521  0.0205  0.0199  0.1706
34841POPC   GL264075   4.057  30.284   4.537 -0.0227  0.0416  0.1751
34841POPC   C1A64076   4.387  30.211   4.960 -0.1836 -0.1090  0.0345
34841POPC   D2A64077   4.321  30.484   5.416 -0.0181 -0.0466 -0.0573
34841POPC   C3A64078   4.620  30.318   5.714 -0.1006 -0.0187  0.2562
34841POPC   C4A64079   4.579  30.067   6.061  0.0642 -0.1665 -0.1456
34841POPC   C1B64080   3.588  30.302   4.613 -0.3326 -0.1157  0.1350
34841POPC   C2B64081   3.476  30.544   4.941  0.0089 -0.0011 -0.1481
34841POPC   C3B64082   3.206  30.432   5.312  0.2366  0.0435 -0.1914
34841POPC   C4B64083   3.119  30.806   5.603  0.1258 -0.1241 -0.1578
34842POPC   NC364084   9.110  28.142   5.616  0.2394  0.1143 -0.0325
34842POPC   PO464085   9.476  28.064   5.537 -0.0868  0.0129 -0.1842
34842POPC   GL164086   9.409  27.853   5.988 -0.4404  0.4664  0.4721
34842POPC   GL264087   9.346  28.063   6.077 -0.1461 -0.1599  0.0159
34842POPC   C1A64088   9.582  27.700   6.393 -0.2642 -0.3633 -0.2651
34842POPC   D2A64089   9.665  27.458   6.763  0.0675 -0.1522  0.3561
34842POPC   C3A64090   9.939  27.623   7.158  0.0905  0.2300 -0.0366
34842POPC   C4A64091  10.246  27.771   7.387 -0.0124  0.1215 -0.0929
34842POPC   C1B64092   9.384  28.096   6.566  0.1416 -0.0409 -0.0660
34842POPC   C2B64093   9.604  27.990   6.966 -0.1274 -0.1524  0.0677
34842POPC   C3B64094   9.493  27.731   7.286  0.0623  0.0784 -0.0904
34842POPC   C4B64095   9.428  27.501   7.667 -0.1297  0.0658 -0.1480
34843POPC   NC364096   1.389  18.175   4.707 -0.2983  0.0864 -0.0962
34843POPC   PO464097   1.015  18.043   4.702  0.0895  0.0111 -0.0959
34843POPC   GL164098   0.819  18.023   4.998  0.1331 -0.0475  0.0963
34843POPC   GL264099   0.793  18.254   5.108  0.0733 -0.0201  0.1333
34843POPC   C1A64100   0.741  17.776   5.417  0.6990  0.1269  0.0195
34843POPC   D2A64101   0.311  17.807   5.677 -0.2297 -0.2869 -0.3619
34843POPC   C3A64102   0.296  17.468   5.995 -0.0557  0.0428 -0.1588
34843POPC   C4A64103   0.120  17.505   6.469 -0.0451 -0.1033  0.0773
34843POPC   C1B64104   0.544  18.244   5.468 -0.1899  0.1037  0.1329
34843POPC   C2B64105   0.359  18.248   5.878  0.1919  0.0282  0.2445
34843POPC   C3B64106   0.349  17.928   6.193 -0.1931  0.0313  0.1061
34843POPC   C4B64107   0.630  17.622   6.378 -0.3122  0.3157  0.1457
34844POPC   NC364108   9.011  26.449   5.982  0.0838 -0.1588 -0.1622
34844POPC   PO464109   9.057  26.342   6.388 -0.0590  0.0007 -0.0983
34844POPC   GL164110   9.116  26.639   6.695 -0.2444  0.2477 -0.1346
34844POPC   GL264111   9.022  26.605   6.986 -0.0375 -0.1329  0.3279
34844POPC   C1A64112   9.495  26.909   6.730  0.2388  0.2179 -0.3990
34844POPC   D2A64113   9.714  27.136   6.402 -0.0482  0.0195  0.1525
34844POPC   C3A64114  10.058  27.433   6.532  0.0102 -0.0688 -0.3450
34844POPC   C4A64115  10.426  27.516   6.785  0.1132 -0.3221  0.0759
34844POPC   C1B64116   9.054  26.660   7.458 -0.1473  0.0286  0.1798
34844POPC   C2B64117   9.007  26.907   7.788  0.2041 -0.0862 -0.1718
34844POPC   C3B64118   8.876  27.247   8.071 -0.3286 -0.0814 -0.0752
34844POPC   C4B64119   8.671  27.542   8.239  0.0455 -0.3891  0.0648
34845POPC   NC364120   9.199  20.805   8.178 -0.0061  0.1957 -0.1366
34845POPC   PO464121   8.905  21.029   8.317  0.1373 -0.2420 -0.0664
34845POPC   GL164122   8.770  20.741   8.430  0.2712 -0.1494 -0.0023
34845POPC   GL264123   8.997  20.520   8.534  0.1138  0.1376 -0.1503
34845POPC   C1A64124   8.441  20.606   8.768 -0.1877  0.0735  0.0461
34845POPC   D2A64125   8.396  20.318   9.134  0.1877  0.1066  0.0655
34845POPC   C3A64126   8.010  20.343   9.390  0.1622 -0.4915  0.3792
34845POPC   C4A64127   7.886  20.140   9.792 -0.0561 -0.1137 -0.3452
34845POPC   C1B64128   9.306  20.204   8.411 -0.0173 -0.2609  0.1382
34845POPC   C2B64129   9.363  19.759   8.495  0.2848 -0.1641 -0.1177
34845POPC   C3B64130   9.080  19.356   8.617 -0.0013 -0.3736  0.1278
34845POPC   C4B64131   8.713  19.037   8.702 -0.1784 -0.0835  0.1300
34846POPC   NC364132   9.271  18.106   5.458  0.2231 -0.2147  0.2350
34846POPC   PO464133   9.641  18.207   5.316  0.0647 -0.0443  0.2255
34846POPC   GL164134   9.682  18.158   5.712  0.1689  0.0768 -0.1544
34846POPC   GL264135   9.815  17.822   5.728 -0.2138  0.2030 -0.0827
34846POPC   C1A64136   9.524  18.131   6.176  0.0532  0.0396  0.3348
34846POPC   D2A64137   9.595  17.953   6.587 -0.1656 -0.0999 -0.0909
34846POPC   C3A64138   9.566  17.706   6.993 -0.2951 -0.2524  0.1300
34846POPC   C4A64139   9.379  17.639   7.431  0.1244 -0.0611 -0.1658
34846POPC   C1B64140   9.972  17.635   6.154 -0.3552  0.0635  0.0122
34846POPC   C2B64141  10.012  17.428   6.610 -0.3119 -0.0331  0.0702
34846POPC   C3B64142  10.053  17.318   7.068 -0.0202  0.1368 -0.1178
34846POPC   C4B64143  10.321  17.111   7.401  0.1837 -0.2242 -0.0122
34847POPC   NC364144   7.915  31.730   5.200 -0.0579  0.2136  0.2552
34847POPC   PO464145   7.895  32.101   5.024  0.0082  0.0104  0.0480
34847POPC   GL164146   8.193  32.189   5.262 -0.0871 -0.4302 -0.2540
34847POPC   GL264147   8.405  32.010   5.316  0.3715 -0.1028 -0.5372
34847POPC   C1A64148   8.077  32.522   5.551 -0.2654  0.0150 -0.2463
34847POPC   D2A64149   8.174  32.905   5.709 -0.0928  0.0345  0.0013
34847POPC   C3A64150   8.645  32.869   5.688 -0.3381  0.2014  0.1073
34847POPC   C4A64151   9.062  32.706   5.607 -0.3054 -0.0986  0.0301
34847POPC   C1B64152   8.157  31.934   5.648  0.0230  0.0361 -0.0204
34847POPC   C2B64153   7.990  31.782   6.102  0.0484  0.0391  0.0572
34847POPC   C3B64154   8.041  31.676   6.526 -0.5013  0.2077  0.2104
34847POPC   C4B64155   7.924  31.512   7.003  0.1429 -0.2835 -0.1414
34848POPC   NC364156   9.854  23.840   7.938  0.2165 -0.1052  0.1019
34848POPC   PO464157   9.893  23.901   8.365  0.2498 -0.2941 -0.0792
34848POPC   GL164158   9.997  24.405   8.521 -0.0954  0.0669 -0.1701
34848POPC   GL264159   9.829  24.244   8.815 -0.0087  0.3551 -0.1034
34848POPC   C1A64160  10.148  24.666   8.891  0.0029 -0.1779 -0.1171
34848POPC   D2A64161  10.135  25.108   9.021  0.2487 -0.0285 -0.0241
34848POPC   C3A64162  10.060  25.439   9.383  0.1065  0.0233 -0.1204
34848POPC   C4A64163   9.926  25.797   9.621 -0.1813  0.1609  0.1096
34848POPC   C1B64164   9.691  24.627   9.032 -0.0722  0.0450  0.1358
34848POPC   C2B64165   9.809  24.964   9.394  0.1604 -0.0088  0.1518
34848POPC   C3B64166   9.624  25.335   9.695 -0.0636  0.1301  0.3153
34848POPC   C4B64167   9.310  25.494   9.985 -0.2677 -0.2432  0.0701
34849POPC   NC364168   5.956  32.074   4.426  0.1062 -0.1389  0.0984
34849POPC   PO464169   6.315  32.067   4.571  0.0680  0.0278 -0.0837
34849POPC   GL164170   6.115  31.812   4.775 -0.4681  0.0617 -0.1934
34849POPC   GL264171   6.218  31.551   4.819 -0.4526 -0.0457  0.1144
34849POPC   C1A64172   5.965  31.750   5.244  0.1730  0.2751  0.0504
34849POPC   D2A64173   5.676  31.677   5.589 -0.1535  0.0125  0.0400
34849POPC   C3A64174   5.739  31.277   5.742  0.1293  0.1201 -0.1357
34849POPC   C4A64175   5.846  30.968   6.075  0.0707 -0.1491  0.0809
34849POPC   C1B64176   6.424  31.477   5.275  0.0827 -0.0485  0.0120
34849POPC   C2B64177   6.507  31.583   5.689  0.0626  0.0034 -0.3567
34849POPC   C3B64178   6.220  31.481   6.025  0.2007  0.2340 -0.0304
34849POPC   C4B64179   6.076  31.355   6.474 -0.2556  0.1309  0.2014
34850POPC   NC364180   6.599  25.312   6.409  0.2017  0.1904  0.1609
34850POPC   PO464181   6.557  24.937   6.505 -0.0433  0.0720 -0.0209
34850POPC   GL164182   6.383  24.854   6.826  0.1261  0.0007 -0.1669
34850POPC   GL264183   6.247  25.112   6.829  0.1921 -0.1925 -0.0305
34850POPC   C1A64184   6.499  24.886   7.297  0.0629  0.2903  0.1718
34850POPC   D2A64185   6.298  25.081   7.719 -0.0612  0.2367 -0.1823
34850POPC   C3A64186   6.213  25.318   8.135 -0.4463  0.1116  0.1607
34850POPC   C4A64187   6.201  25.643   8.493 -0.0119  0.2402 -0.1503
34850POPC   C1B64188   6.229  25.358   7.235  0.0452  0.2557  0.1992
34850POPC   C2B64189   6.142  25.500   7.656  0.3334  0.0976 -0.0112
34850POPC   C3B64190   6.157  25.806   7.979 -0.1052 -0.0524  0.2620
34850POPC   C4B64191   5.965  26.207   7.998  0.0927 -0.1595  0.0220
34851POPC   NC364192   9.339   0.990   5.213 -0.3234  0.0678  0.1913
34851POPC   PO464193   9.639   0.960   5.477 -0.0866  0.1447  0.0900
34851POPC   GL164194   9.605   0.869   5.844 -0.2138 -0.0942 -0.1130
34851POPC   GL264195   9.633   1.115   6.004 -0.0405 -0.3406  0.0548
34851POPC   C1A64196   9.307   0.763   6.130 -0.0013 -0.0382 -0.2244
34851POPC   D2A64197   8.935   0.642   6.348 -0.2630  0.0384  0.1151
34851POPC   C3A64198   8.785   0.303   6.651 -0.2237  0.1615 -0.0819
34851POPC   C4A64199   8.532   0.087   7.002 -0.0584 -0.2029 -0.0666
34851POPC   C1B64200   9.710   0.931   6.434  0.2268  0.2006  0.2638
34851POPC   C2B64201   9.627   0.631   6.758 -0.0423  0.1816 -0.0338
34851POPC   C3B64202   9.492   0.240   6.751  0.1162  0.0400 -0.1217
34851POPC   C4B64203   9.565  -0.244   6.857 -0.1601  0.1219 -0.3290
34852POPC   NC364204   4.758  25.051   4.954 -0.0518 -0.1938  0.0279
34852POPC   PO464205   4.858  25.330   5.218  0.1238  0.3631  0.0868
34852POPC   GL164206   4.424  25.302   5.366  0.1658  0.2054 -0.3054
34852POPC   GL264207   4.241  25.465   5.251  0.0395  0.0365 -0.0913
34852POPC   C1A64208   4.450  25.438   5.813  0.0662  0.0693 -0.2425
34852POPC   D2A64209   4.642  25.478   6.199  0.0052  0.0068  0.2470
34852POPC   C3A64210   4.329  25.442   6.581  0.0618 -0.2642 -0.2258
34852POPC   C4A64211   4.300  25.241   7.008  0.2782  0.0081 -0.2582
34852POPC   C1B64212   3.894  25.547   5.553 -0.2071  0.0448 -0.2619
34852POPC   C2B64213   3.650  25.689   5.917 -0.0086 -0.0260 -0.0463
34852POPC   C3B64214   3.647  25.874   6.272 -0.1316 -0.0303  0.0248
34852POPC   C4B64215   3.372  26.071   6.573  0.3501  0.3794 -0.1794
34853POPC   NC364216  11.715  25.346   6.395 -0.1750 -0.1514  0.1790
34853POPC   PO464217  11.436  25.576   6.248 -0.2475 -0.2182  0.0605
34853POPC   GL164218  11.417  25.863   6.498  0.0440  0.3661  0.0993
34853POPC   GL264219  11.667  25.978   6.613 -0.0867 -0.2408 -0.0771
34853POPC   C1A64220  11.294  26.329   6.519  0.0364 -0.1764  0.1140
34853POPC   D2A64221  11.361  26.811   6.456 -0.4770  0.0612 -0.1481
34853POPC   C3A64222  11.465  27.243   6.587  0.1425 -0.1865 -0.0192
34853POPC   C4A64223  11.358  27.488   6.949  0.1224 -0.1815  0.0149
34853POPC   C1B64224  11.553  26.265   6.993 -0.1311 -0.0308  0.4577
34853POPC   C2B64225  11.310  26.545   7.252  0.0485 -0.0829  0.1360
34853POPC   C3B64226  11.345  26.884   7.464  0.1476 -0.2920 -0.0143
34853POPC   C4B64227  11.428  27.234   7.835  0.0866  0.1428 -0.0403
34854POPC   NC364228   9.120  21.461  10.671  0.0245 -0.1616 -0.1500
34854POPC   PO464229   9.483  21.435  10.790 -0.0468 -0.2161 -0.1352
34854POPC   GL164230   9.303  21.100  10.805 -0.0557  0.2414 -0.2509
34854POPC   GL264231   9.142  21.095  11.090  0.2776 -0.0842  0.3291
34854POPC   C1A64232   9.386  20.686  10.592 -0.1271  0.0247  0.1565
34854POPC   D2A64233   9.504  20.354  10.252  0.2224 -0.1868 -0.0297
34854POPC   C3A64234   9.318  19.976  10.420 -0.2692 -0.0018  0.0372
34854POPC   C4A64235   9.029  19.717  10.271 -0.0461 -0.1054 -0.0632
34854POPC   C1B64236   9.037  20.974  11.507 -0.0215 -0.0801  0.2422
34854POPC   C2B64237   8.817  21.129  11.934  0.0701  0.4408  0.3358
34854POPC   C3B64238   8.362  21.154  12.086  0.0943 -0.1253  0.1580
34854POPC   C4B64239   7.970  21.031  12.314 -0.1720 -0.3791  0.0174
34855POPC   NC364240  14.880  29.563   4.267  0.1137 -0.0185 -0.1045
34855POPC   PO464241  14.986  29.945   4.352  0.0593 -0.1057 -0.1455
34855POPC   GL164242  15.308  29.945   4.551  0.1296  0.2245  0.0264
34855POPC   GL264243  15.493  30.147   4.496 -0.4515 -0.0639  0.1812
34855POPC   C1A64244  15.321  29.816   5.008 -0.0360 -0.0239  0.3179
34855POPC   D2A64245  15.577  29.878   5.379  0.2254 -0.0280 -0.0151
34855POPC   C3A64246  15.406  29.851   5.812 -0.0809  0.1740 -0.1115
34855POPC   C4A64247  15.132  30.109   6.160  0.0829  0.4610  0.0221
34855POPC   C1B64248  15.726  30.110   4.896  0.3885 -0.0432 -0.1891
34855POPC   C2B64249  15.886  29.719   5.053 -0.0737 -0.2473  0.2138
34855POPC   C3B64250  16.079  29.544   5.417  0.1630  0.2518 -0.4001
34855POPC   C4B64251  16.349  29.463   5.791 -0.1338  0.2508  0.1291
34856POPC   NC364252   9.896  16.762   5.059 -0.1336  0.0719  0.1179
34856POPC   PO464253   9.703  17.059   4.945  0.0055 -0.2061  0.2343
34856POPC   GL164254   9.550  17.107   5.401 -0.4365 -0.2773 -0.2220
34856POPC   GL264255   9.590  16.729   5.504 -0.0533  0.0592 -0.2325
34856POPC   C1A64256   9.649  17.297   5.839 -0.0996  0.2703 -0.1562
34856POPC   D2A64257   9.709  17.144   6.262 -0.0177 -0.0668  0.1353
34856POPC   C3A64258   9.903  16.960   6.666  0.0343  0.0153 -0.1158
34856POPC   C4A64259  10.180  16.784   7.009  0.1259  0.0798  0.3096
34856POPC   C1B64260   9.490  16.687   5.986  0.1733  0.0549 -0.1023
34856POPC   C2B64261   9.880  16.611   6.308  0.0527 -0.1817 -0.1575
34856POPC   C3B64262   9.916  16.418   6.687  0.1096 -0.1428  0.2471
34856POPC   C4B64263   9.985  16.368   7.183  0.0868 -0.3286  0.2132
34857POPC   NC364264   3.258  20.689   5.524  0.1706  0.3093  0.3492
34857POPC   PO464265   3.100  20.337   5.522  0.2591  0.2080 -0.1356
34857POPC   GL164266   2.867  20.106   5.799 -0.0645  0.5481  0.4062
34857POPC   GL264267   3.128  20.048   5.939 -0.0218  0.0780  0.0698
34857POPC   C1A64268   2.413  20.135   5.890 -0.0917  0.0088 -0.2225
34857POPC   D2A64269   2.118  19.991   6.226  0.0900 -0.1926  0.1278
34857POPC   C3A64270   1.904  19.865   6.626  0.1848 -0.3153 -0.0813
34857POPC   C4A64271   1.767  19.529   6.954  0.1405  0.2658  0.0557
34857POPC   C1B64272   3.339  19.824   6.304  0.1347  0.2647  0.0460
34857POPC   C2B64273   3.276  19.421   6.478 -0.2497 -0.2084  0.0285
34857POPC   C3B64274   3.340  19.284   6.858 -0.0761  0.0398  0.1223
34857POPC   C4B64275   2.916  19.287   7.090  0.1968 -0.2430 -0.2418
34858POPC   NC364276   5.641  24.257   6.421 -0.1028  0.1410  0.1182
34858POPC   PO464277   5.456  23.960   6.297 -0.1358  0.0937  0.2560
34858POPC   GL164278   5.329  23.839   6.611 -0.1353 -0.0317 -0.1821
34858POPC   GL264279   5.078  23.670   6.644 -0.1679 -0.1699  0.0693
34858POPC   C1A64280   5.426  23.958   7.069 -0.2659  0.0050 -0.2078
34858POPC   D2A64281   5.313  24.157   7.522  0.2389 -0.2196 -0.1912
34858POPC   C3A64282   5.559  24.271   7.838 -0.3515  0.2801 -0.2924
34858POPC   C4A64283   6.076  24.279   7.911  0.1137 -0.0736  0.0498
34858POPC   C1B64284   5.006  23.688   7.092  0.1069  0.1818  0.0149
34858POPC   C2B64285   4.913  23.892   7.478 -0.0115  0.0288 -0.2028
34858POPC   C3B64286   4.833  24.251   7.721 -0.0559 -0.0577  0.1066
34858POPC   C4B64287   5.033  24.606   7.751 -0.2660  0.0675 -0.0358
34859POPC   NC364288  13.235  31.853   5.004  0.1404 -0.1350  0.0337
34859POPC   PO464289  13.370  31.764   4.619  0.0548  0.3463 -0.4340
34859POPC   GL164290  13.706  31.729   4.941 -0.3003 -0.0681  0.0535
34859POPC   GL264291  13.756  32.024   5.019  0.0865  0.5082 -0.1138
34859POPC   C1A64292  13.650  31.747   5.376 -0.0716 -0.2881  0.0512
34859POPC   D2A64293  13.902  31.844   5.758  0.0458  0.3623  0.0216
34859POPC   C3A64294  13.862  31.568   6.117 -0.2609 -0.2732  0.1362
34859POPC   C4A64295  13.671  31.256   6.467  0.3588 -0.0109  0.1052
34859POPC   C1B64296  14.137  31.839   5.246  0.0289 -0.0570 -0.0068
34859POPC   C2B64297  14.132  31.457   5.554 -0.1801 -0.0368 -0.1172
34859POPC   C3B64298  14.199  31.193   5.926  0.4263 -0.2516  0.1038
34859POPC   C4B64299  14.454  30.845   6.126 -0.1485 -0.0663  0.1887
34860POPC   NC364300   2.127  32.253   3.764 -0.2318 -0.1277  0.1231
34860POPC   PO464301   1.855  32.489   3.831  0.0746 -0.1910 -0.0752
34860POPC   GL164302   1.649  32.505   4.206  0.2195  0.2975 -0.2477
34860POPC   GL264303   1.392  32.471   4.176 -0.0710 -0.0766 -0.0716
34860POPC   C1A64304   1.770  32.294   4.631  0.1959 -0.2443  0.0621
34860POPC   D2A64305   1.740  32.418   5.064 -0.0188  0.0762  0.0227
34860POPC   C3A64306   1.365  32.422   5.373 -0.0687  0.1526  0.0061
34860POPC   C4A64307   0.937  32.450   5.629 -0.0052 -0.1697  0.1802
34860POPC   C1B64308   1.388  32.056   4.415  0.3128  0.2474  0.3050
34860POPC   C2B64309   1.345  31.619   4.568  0.1001 -0.1349 -0.2211
34860POPC   C3B64310   1.460  31.522   5.030 -0.0899 -0.0408  0.1510
34860POPC   C4B64311   1.388  31.587   5.455  0.0442 -0.1128 -0.1073
34861POPC   NC364312  12.078  23.655   7.754  0.2152 -0.2767 -0.0316
34861POPC   PO464313  11.688  23.755   7.671 -0.1947  0.2551 -0.1127
34861POPC   GL164314  11.789  23.967   7.994  0.2252 -0.2478  0.1812
34861POPC   GL264315  11.645  24.151   8.239  0.0037  0.0406 -0.2252
34861POPC   C1A64316  12.241  23.936   8.123 -0.0654 -0.3256 -0.1024
34861POPC   D2A64317  12.428  24.101   8.486  0.1812 -0.0565 -0.1803
34861POPC   C3A64318  12.753  24.034   8.678  0.0188  0.3126  0.4453
34861POPC   C4A64319  13.128  24.133   8.917 -0.1839  0.1715 -0.0398
34861POPC   C1B64320  11.925  24.268   8.599 -0.3011 -0.1447  0.4559
34861POPC   C2B64321  12.324  24.514   8.837 -0.0008 -0.0199 -0.2514
34861POPC   C3B64322  12.816  24.521   8.896  0.0193  0.4604  0.2078
34861POPC   C4B64323  13.148  24.531   9.225 -0.0591 -0.2672  0.1655
34862POPC   NC364324   2.684  23.443   5.162 -0.2133 -0.1084 -0.0275
34862POPC   PO464325   2.424  23.283   4.955  0.2620 -0.0601 -0.2184
34862POPC   GL164326   2.245  23.251   5.288 -0.0863 -0.4553 -0.1865
34862POPC   GL264327   2.154  23.554   5.345  0.0069 -0.3016 -0.0175
34862POPC   C1A64328   2.207  23.114   5.741  0.0159 -0.0879  0.2603
34862POPC   D2A64329   2.518  23.173   6.063 -0.0654  0.1204  0.0660
34862POPC   C3A64330   2.312  23.220   6.458 -0.0545 -0.0666 -0.0007
34862POPC   C4A64331   2.091  23.022   6.769  0.2444  0.0659  0.0853
34862POPC   C1B64332   1.925  23.694   5.754 -0.1658  0.0933 -0.0631
34862POPC   C2B64333   1.976  23.960   6.184  0.0107 -0.2685 -0.1610
34862POPC   C3B64334   1.782  24.036   6.633 -0.2904  0.5336  0.2454
34862POPC   C4B64335   1.534  24.362   6.888 -0.2302 -0.0301  0.1093
34863POPC   NC364336  12.877  15.780   4.196 -0.0316 -0.0661  0.1699
34863POPC   PO464337  12.953  16.164   4.233 -0.2611  0.1756 -0.0343
34863POPC   GL164338  13.064  16.346   4.520 -0.1480  0.0888 -0.2240
34863POPC   GL264339  12.824  16.372   4.701  0.1456 -0.1507  0.0127
34863POPC   C1A64340  13.311  16.273   4.941 -0.0603 -0.0515  0.1799
34863POPC   D2A64341  13.390  15.893   5.184  0.1893  0.0639 -0.2372
34863POPC   C3A64342  13.576  16.034   5.629 -0.3366 -0.0090  0.1372
34863POPC   C4A64343  13.719  16.418   5.873  0.0525 -0.1527 -0.1854
34863POPC   C1B64344  12.820  16.079   5.098  0.0857 -0.4865 -0.1256
34863POPC   C2B64345  12.904  15.898   5.489  0.3221  0.1943  0.1673
34863POPC   C3B64346  12.981  15.857   5.895  0.0387 -0.0563  0.2826
34863POPC   C4B64347  13.117  15.903   6.315 -0.3379  0.0061  0.0214
34864POPC   NC364348   8.600  21.072   8.698  0.0962 -0.0324  0.0665
34864POPC   PO464349   8.471  21.481   8.765  0.0531  0.0176  0.0616
34864POPC   GL164350   8.161  21.293   8.856 -0.0669 -0.3081 -0.2428
34864POPC   GL264351   8.125  20.967   8.909  0.2708 -0.0960 -0.0982
34864POPC   C1A64352   7.700  21.215   8.931  0.1548 -0.1100 -0.3123
34864POPC   D2A64353   7.315  21.387   9.184 -0.0147  0.1899  0.0498
34864POPC   C3A64354   6.908  21.520   8.980  0.0234 -0.3314 -0.1184
34864POPC   C4A64355   6.458  21.585   8.853  0.1250  0.2851  0.0549
34864POPC   C1B64356   7.812  20.705   9.125  0.1391 -0.0191 -0.3548
34864POPC   C2B64357   7.374  20.714   9.252  0.4584 -0.1511  0.2197
34864POPC   C3B64358   7.170  20.672   9.663 -0.1109 -0.1895  0.0232
34864POPC   C4B64359   7.181  20.374  10.048 -0.1437  0.2176 -0.1448
34865POPC   NC364360  11.201  25.289   6.546 -0.2178  0.2075 -0.0680
34865POPC   PO464361  10.849  25.448   6.635 -0.1019  0.2554 -0.2240
34865POPC   GL164362  10.913  25.667   6.915 -0.2847  0.1307 -0.0193
34865POPC   GL264363  11.173  25.740   6.951  0.0182 -0.2871 -0.0329
34865POPC   C1A64364  10.660  25.930   7.213 -0.1055 -0.0670  0.0809
34865POPC   D2A64365  10.287  26.020   7.498 -0.1227  0.0924 -0.2114
34865POPC   C3A64366  10.141  26.366   7.725  0.0722  0.0523 -0.1806
34865POPC   C4A64367  10.063  26.706   8.011  0.0300 -0.2914  0.0577
34865POPC   C1B64368  11.155  26.106   7.225  0.1433  0.0768  0.1453
34865POPC   C2B64369  11.283  26.251   7.609 -0.1097 -0.2583 -0.2404
34865POPC   C3B64370  11.586  26.563   7.742 -0.2197 -0.0240 -0.3457
34865POPC   C4B64371  12.010  26.476   7.968  0.1347 -0.4164  0.4528
34866POPC   NC364372  11.544  31.692   4.184 -0.2032 -0.0136  0.2826
34866POPC   PO464373  11.362  31.758   4.497  0.0455  0.0770 -0.0117
34866POPC   GL164374  11.462  31.501   4.845 -0.0376  0.1504 -0.0722
34866POPC   GL264375  11.770  31.618   4.875  0.1141  0.0000 -0.0244
34866POPC   C1A64376  11.222  31.283   5.182  0.1581 -0.3484 -0.1833
34866POPC   D2A64377  11.375  31.060   5.567  0.1894 -0.1475 -0.1849
34866POPC   C3A64378  11.409  31.254   6.011  0.2197  0.0155  0.2715
34866POPC   C4A64379  11.206  31.320   6.444  0.1683  0.0297  0.1802
34866POPC   C1B64380  11.527  31.723   5.244  0.0336 -0.2649 -0.4026
34866POPC   C2B64381  11.363  31.793   5.637 -0.4313  0.0066  0.0993
34866POPC   C3B64382  11.181  31.794   6.017  0.1181  0.0743  0.2739
34866POPC   C4B64383  11.428  31.763   6.436  0.3186  0.1021  0.1537
34867POPC   NC364384   2.900  30.914   3.992 -0.0664 -0.0953 -0.0294
34867POPC   PO464385   3.199  31.117   4.177  0.3500  0.3328  0.3000
34867POPC   GL164386   3.013  31.348   4.546  0.0001  0.1023  0.2601
34867POPC   GL264387   2.775  31.165   4.494  0.0309 -0.2710 -0.1101
34867POPC   C1A64388   2.789  31.398   4.967  0.3365  0.0080  0.0750
34867POPC   D2A64389   2.529  31.541   5.353 -0.0979 -0.0386  0.2498
34867POPC   C3A64390   2.576  31.661   5.787 -0.0714 -0.0783  0.1942
34867POPC   C4A64391   2.589  31.498   6.241  0.1181 -0.2702 -0.0166
34867POPC   C1B64392   2.581  31.608   4.523 -0.1123 -0.1005 -0.3010
34867POPC   C2B64393   2.659  31.936   4.853  0.3320  0.0409 -0.1858
34867POPC   C3B64394   2.747  32.076   5.318  0.2149 -0.0996  0.1299
34867POPC   C4B64395   2.961  32.088   5.711 -0.0740  0.0130 -0.1272
34868POPC   NC364396   3.868  26.563   4.091 -0.3556  0.3131 -0.2235
34868POPC   PO464397   4.139  26.577   4.392  0.1291 -0.2046  0.0795
34868POPC   GL164398   4.145  26.599   4.844  0.0892 -0.3165  0.1689
34868POPC   GL264399   3.860  26.742   4.866  0.2480 -0.1594  0.3506
34868POPC   C1A64400   4.046  26.664   5.294 -0.0052  0.0210  0.0154
34868POPC   D2A64401   4.044  26.557   5.755  0.0508 -0.3585  0.0422
34868POPC   C3A64402   3.947  26.775   6.170 -0.0765 -0.0877 -0.1291
34868POPC   C4A64403   4.017  27.126   6.387  0.0225 -0.3928 -0.0529
34868POPC   C1B64404   3.513  26.811   5.123 -0.2632 -0.0853 -0.1968
34868POPC   C2B64405   3.487  26.815   5.576 -0.1268  0.1344 -0.0051
34868POPC   C3B64406   3.538  27.006   6.013 -0.1665  0.0814 -0.0277
34868POPC   C4B64407   3.507  27.091   6.517  0.1008  0.0116 -0.0879
34869POPC   NC364408  12.175  20.837   7.130  0.2408 -0.0406  0.0325
34869POPC   PO464409  12.012  21.158   7.269 -0.0953  0.0793 -0.0874
34869POPC   GL164410  12.201  20.843   7.582 -0.0846 -0.0305 -0.0491
34869POPC   GL264411  12.340  21.037   7.710  0.0868 -0.0494  0.1771
34869POPC   C1A64412  12.247  20.360   7.410 -0.1282  0.2108 -0.0335
34869POPC   D2A64413  12.257  20.039   7.741 -0.2429  0.1899 -0.2863
34869POPC   C3A64414  11.910  19.895   8.013  0.4273  0.4359 -0.2923
34869POPC   C4A64415  11.589  19.592   8.128 -0.1638 -0.0990  0.3022
34869POPC   C1B64416  12.817  20.962   7.828  0.0472  0.1215 -0.0527
34869POPC   C2B64417  13.084  21.073   8.207 -0.2428  0.1349  0.5009
34869POPC   C3B64418  13.409  21.149   8.569  0.1839 -0.0609  0.0804
34869POPC   C4B64419  13.495  21.159   9.013 -0.1333  0.2210  0.1079
34870POPC   NC364420  14.126  30.176   4.187  0.0273  0.2121  0.4072
34870POPC   PO464421  14.047  30.503   4.418 -0.3516 -0.1211 -0.2062
34870POPC   GL164422  14.028  30.864   4.761 -0.1026  0.1881  0.0774
34870POPC   GL264423  14.251  31.063   4.604 -0.1145 -0.1062  0.0802
34870POPC   C1A64424  13.641  31.053   4.880 -0.0602  0.1345  0.0057
34870POPC   D2A64425  13.478  31.374   5.126 -0.1463 -0.1509 -0.6583
34870POPC   C3A64426  13.575  31.288   5.560 -0.0069 -0.1819 -0.0392
34870POPC   C4A64427  13.405  31.329   5.991  0.1840  0.2904  0.0184
34870POPC   C1B64428  14.558  30.906   4.742  0.1494 -0.3550 -0.0340
34870POPC   C2B64429  14.835  30.791   5.145  0.0244  0.1723 -0.0707
34870POPC   C3B64430  14.833  30.638   5.549  0.0136  0.2424  0.1884
34870POPC   C4B64431  15.090  30.305   5.730 -0.0804  0.2679 -0.0504
34871POPC   NC364432  14.740  29.765   4.840 -0.1316 -0.0946  0.0475
34871POPC   PO464433  14.505  29.523   4.587  0.0075  0.0990 -0.2099
34871POPC   GL164434  14.369  29.408   4.923  0.0668 -0.2620 -0.2071
34871POPC   GL264435  14.132  29.260   4.853  0.1609 -0.2696  0.2149
34871POPC   C1A64436  14.480  29.400   5.345 -0.1665 -0.1438  0.0907
34871POPC   D2A64437  14.756  29.184   5.666 -0.0755  0.1129 -0.0256
34871POPC   C3A64438  14.708  29.225   6.121  0.0573  0.2340  0.0645
34871POPC   C4A64439  14.858  29.321   6.519 -0.0625 -0.3759  0.1644
34871POPC   C1B64440  13.920  29.367   5.264  0.0496  0.0342 -0.0468
34871POPC   C2B64441  13.826  29.456   5.735 -0.2032  0.2067 -0.1830
34871POPC   C3B64442  13.807  29.563   6.167  0.2249 -0.0066  0.2855
34871POPC   C4B64443  13.965  29.847   6.534  0.1761  0.2049 -0.2405
34872POPC   NC364444   7.067  22.026   7.425 -0.0952 -0.1397 -0.0273
34872POPC   PO464445   7.143  22.371   7.577 -0.1583  0.4609  0.3636
34872POPC   GL164446   6.836  22.431   7.791 -0.0272 -0.1736  0.2030
34872POPC   GL264447   6.625  22.444   7.624 -0.0869 -0.1349 -0.3264
34872POPC   C1A64448   6.582  22.755   8.030  0.1164  0.1061  0.2862
34872POPC   D2A64449   6.226  22.954   8.265  0.0101 -0.1821  0.1391
34872POPC   C3A64450   6.318  23.143   8.708 -0.0002 -0.1461  0.3074
34872POPC   C4A64451   6.542  23.348   9.100  0.4667 -0.4937  0.3567
34872POPC   C1B64452   6.211  22.518   7.797 -0.2461 -0.0044  0.1292
34872POPC   C2B64453   5.816  22.277   7.871 -0.0645  0.0122 -0.0862
34872POPC   C3B64454   5.336  22.271   7.960  0.0954  0.1447  0.2288
34872POPC   C4B64455   4.963  22.480   8.002 -0.2692 -0.0770 -0.1317
34873POPC   NC364456   0.403  15.741   3.947 -0.3397  0.3345 -0.0862
34873POPC   PO464457   0.144  15.906   4.188  0.0068 -0.0086  0.0365
34873POPC   GL164458   0.188  15.772   4.562  0.0684  0.3306 -0.1738
34873POPC   GL264459   0.030  15.953   4.679 -0.1592  0.1302  0.0695
34873POPC   C1A64460   0.324  15.413   4.818  0.0596 -0.2465  0.2919
34873POPC   D2A64461   0.597  15.348   5.185  0.0596 -0.3258  0.4740
34873POPC   C3A64462   0.633  15.324   5.658 -0.3331 -0.1089 -0.2606
34873POPC   C4A64463   0.505  15.369   6.109 -0.2003  0.1353 -0.2248
34873POPC   C1B64464  -0.131  15.828   5.113 -0.0940 -0.2091  0.0760
34873POPC   C2B64465  -0.276  15.642   5.492 -0.1201 -0.1313  0.0754
34873POPC   C3B64466  -0.691  15.472   5.606  0.2950  0.0652  0.2280
34873POPC   C4B64467  -1.104  15.314   5.710  0.0472 -0.1252  0.0087
34874POPC   NC364468  11.514  28.961   4.831 -0.0381  0.1558  0.2018
34874POPC   PO464469  11.108  28.900   4.731 -0.3316 -0.0783 -0.1247
34874POPC   GL164470  11.026  28.962   5.115 -0.2735 -0.0973  0.1554
34874POPC   GL264471  11.198  28.837   5.252 -0.1380  0.1628 -0.3620
34874POPC   C1A64472  10.708  29.009   5.382  0.0959  0.0255  0.1724
34874POPC   D2A64473  10.513  29.043   5.761 -0.0884  0.1230 -0.3381
34874POPC   C3A64474  10.231  29.125   6.144 -0.1900  0.2193 -0.0252
34874POPC   C4A64475  10.020  29.358   6.460  0.0184 -0.0464  0.1547
34874POPC   C1B64476  11.163  28.784   5.699  0.2752 -0.0493  0.0651
34874POPC   C2B64477  11.218  28.706   6.182 -0.2202  0.0041 -0.1458
34874POPC   C3B64478  11.304  28.437   6.549 -0.2721  0.1706 -0.0890
34874POPC   C4B64479  11.502  28.126   6.826 -0.0198 -0.1851  0.0291
34875POPC   NC364480  14.604  19.219   4.454  0.0330 -0.0679  0.1166
34875POPC   PO464481  14.414  19.496   4.601  0.0661  0.4104  0.0326
34875POPC   GL164482  14.590  19.370   4.871  0.3670  0.1063 -0.1263
34875POPC   GL264483  14.449  19.132   4.962 -0.2829 -0.2092 -0.0164
34875POPC   C1A64484  14.928  19.146   5.108 -0.0177  0.1384 -0.1762
34875POPC   D2A64485  15.156  18.864   5.388  0.3116 -0.1176 -0.2456
34875POPC   C3A64486  14.916  18.489   5.472 -0.0066  0.0519  0.0599
34875POPC   C4A64487  14.804  18.186   5.857  0.3016 -0.1010  0.0665
34875POPC   C1B64488  14.562  18.851   5.322  0.3355  0.0188  0.1515
34875POPC   C2B64489  14.544  18.781   5.730 -0.2214  0.1254  0.3462
34875POPC   C3B64490  14.588  18.526   6.166  0.0366  0.0088  0.0452
34875POPC   C4B64491  14.597  18.623   6.597  0.2396  0.2129 -0.1098
34876POPC   NC364492   9.148  28.682   5.065  0.0402 -0.1362 -0.0344
34876POPC   PO464493   9.487  28.598   5.288  0.0055  0.1751  0.0588
34876POPC   GL164494   9.354  28.660   5.697 -0.2917 -0.1298 -0.2889
34876POPC   GL264495   9.644  28.522   5.798  0.1485 -0.0078  0.3603
34876POPC   C1A64496   9.474  29.022   5.989 -0.0833  0.1026 -0.2322
34876POPC   D2A64497   9.764  29.383   6.022  0.0042 -0.1447 -0.2464
34876POPC   C3A64498   9.520  29.570   6.386  0.1983 -0.0516 -0.0115
34876POPC   C4A64499   9.390  30.024   6.484 -0.1466  0.2771 -0.3888
34876POPC   C1B64500   9.425  28.568   6.208  0.3835 -0.2511 -0.2135
34876POPC   C2B64501   9.224  28.560   6.634 -0.3044 -0.4571  0.0056
34876POPC   C3B64502   9.171  28.296   7.017  0.2017 -0.0475 -0.0700
34876POPC   C4B64503   9.257  28.153   7.458  0.1593 -0.0032 -0.3329
34877POPC   NC364504  15.586  24.757   5.556  0.2898  0.0060  0.1801
34877POPC   PO464505  15.528  24.919   5.188 -0.2940 -0.0332  0.0467
34877POPC   GL164506  15.573  25.218   5.444  0.0117 -0.0757  0.0663
34877POPC   GL264507  15.834  25.290   5.392  0.4580 -0.1020  0.1625
34877POPC   C1A64508  15.694  25.263   5.884 -0.2180  0.0366 -0.0499
34877POPC   D2A64509  15.514  25.124   6.313  0.0037  0.0614  0.2001
34877POPC   C3A64510  15.869  24.849   6.546  0.3368 -0.4351  0.2845
34877POPC   C4A64511  16.029  24.580   6.761 -0.0371  0.0819  0.0202
34877POPC   C1B64512  16.083  25.556   5.742 -0.2350 -0.1923  0.1584
34877POPC   C2B64513  16.370  25.625   6.129 -0.1256  0.0483  0.2973
34877POPC   C3B64514  16.255  25.557   6.589 -0.0424  0.0601  0.0284
34877POPC   C4B64515  16.289  25.206   6.832 -0.1251 -0.0303  0.2283
34878POPC   NC364516   3.625  21.545   5.764 -0.2158  0.0030 -0.0125
34878POPC   PO464517   3.255  21.502   5.581 -0.2336  0.3215 -0.1084
34878POPC   GL164518   3.108  21.281   5.881  0.2675 -0.1843  0.3157
34878POPC   GL264519   3.028  20.994   5.896 -0.0715 -0.1756 -0.1486
34878POPC   C1A64520   2.934  21.440   6.279 -0.0719  0.1917 -0.1798
34878POPC   D2A64521   3.116  21.428   6.645 -0.2114 -0.0603  0.0158
34878POPC   C3A64522   3.465  21.711   6.764 -0.1366 -0.0719  0.1062
34878POPC   C4A64523   3.718  22.103   6.751 -0.0468 -0.1211  0.0649
34878POPC   C1B64524   2.689  21.016   6.209  0.1253  0.2022  0.1950
34878POPC   C2B64525   2.641  21.234   6.617  0.0363 -0.1438  0.1476
34878POPC   C3B64526   2.554  21.465   7.050  0.0635 -0.0173  0.0264
34878POPC   C4B64527   2.550  21.640   7.477  0.5712  0.1398  0.0184
34879POPC   NC364528   1.898  17.725   4.556 -0.2717  0.1692  0.0544
34879POPC   PO464529   1.946  18.102   4.581 -0.1256 -0.1173  0.3900
34879POPC   GL164530   1.781  18.037   4.975  0.0923 -0.1314 -0.0480
34879POPC   GL264531   1.764  17.749   5.050 -0.2455  0.1256  0.5595
34879POPC   C1A64532   1.466  18.111   5.323 -0.1751 -0.3479 -0.2238
34879POPC   D2A64533   1.089  18.098   5.513  0.2137 -0.1481 -0.2738
34879POPC   C3A64534   0.872  17.940   5.963  0.0445 -0.2077 -0.0776
34879POPC   C4A64535   0.748  18.194   6.375 -0.0370 -0.0415 -0.0055
34879POPC   C1B64536   1.804  17.849   5.497 -0.3163 -0.0612  0.1790
34879POPC   C2B64537   1.523  18.055   5.802 -0.2447 -0.1750  0.0765
34879POPC   C3B64538   1.153  18.347   6.011  0.0531 -0.0621 -0.0921
34879POPC   C4B64539   0.715  18.566   6.093  0.0591  0.3196  0.2759
34880POPC   NC364540  10.514  17.341   5.234 -0.5901  0.0496 -0.2870
34880POPC   PO464541  10.266  17.126   4.965  0.0385 -0.0842 -0.2032
34880POPC   GL164542  10.367  16.830   5.243  0.1208 -0.3541 -0.3947
34880POPC   GL264543  10.316  17.017   5.495 -0.0601  0.3223 -0.1456
34880POPC   C1A64544  10.783  16.837   5.451  0.1316 -0.1408 -0.0997
34880POPC   D2A64545  11.042  16.498   5.722  0.0813 -0.2440  0.0308
34880POPC   C3A64546  10.825  16.103   5.859  0.0584 -0.1805  0.0272
34880POPC   C4A64547  10.995  15.768   6.116  0.0545 -0.3143 -0.1674
34880POPC   C1B64548  10.110  17.211   5.853 -0.2429 -0.2137  0.0079
34880POPC   C2B64549  10.197  17.041   6.248  0.1774  0.0753  0.0286
34880POPC   C3B64550  10.377  16.745   6.533  0.1781  0.0566 -0.0517
34880POPC   C4B64551  10.534  16.419   6.759 -0.0846  0.1412 -0.1605
34881POPC   NC364552  11.431  23.348   7.842 -0.3036  0.1375 -0.0907
34881POPC   PO464553  11.493  23.186   8.205  0.1274  0.0052  0.0895
34881POPC   GL164554  11.803  23.459   8.113 -0.1987 -0.0336  0.3560
34881POPC   GL264555  11.767  23.676   8.343 -0.2256  0.0503  0.1647
34881POPC   C1A64556  12.264  23.464   8.253  0.1266 -0.1107 -0.2091
34881POPC   D2A64557  12.548  23.603   8.645 -0.1854  0.0581  0.0897
34881POPC   C3A64558  13.034  23.536   8.799 -0.1462 -0.0513  0.1754
34881POPC   C4A64559  13.139  23.580   9.275 -0.1354  0.0715 -0.0524
34881POPC   C1B64560  12.042  23.779   8.686 -0.0327  0.0677  0.0011
34881POPC   C2B64561  12.301  24.042   8.960 -0.1206  0.2584 -0.2184
34881POPC   C3B64562  12.269  24.065   9.435 -0.0312 -0.2534 -0.0813
34881POPC   C4B64563  12.181  23.797   9.890 -0.0229 -0.1691 -0.1528
34882POPC   NC364564   2.570  26.468   4.871 -0.1073  0.1748  0.0004
34882POPC   PO464565   2.846  26.222   4.980 -0.0340 -0.0052  0.0415
34882POPC   GL164566   2.555  26.137   5.248 -0.4184  0.5610  0.0095
34882POPC   GL264567   2.456  25.925   5.087  0.0863  0.1065  0.2668
34882POPC   C1A64568   2.232  26.215   5.584 -0.1536  0.0830 -0.1785
34882POPC   D2A64569   1.974  26.417   5.867  0.0459  0.2272  0.1315
34882POPC   C3A64570   2.175  26.442   6.288  0.1002  0.0301  0.0540
34882POPC   C4A64571   2.065  26.333   6.712  0.0026 -0.0199  0.1941
34882POPC   C1B64572   2.249  25.709   5.439  0.0716 -0.1128  0.0791
34882POPC   C2B64573   2.135  25.444   5.792 -0.0003 -0.0575 -0.2156
34882POPC   C3B64574   2.379  25.307   6.122 -0.1878  0.2950 -0.0327
34882POPC   C4B64575   2.506  25.308   6.542 -0.2063  0.0258 -0.0382
34883POPC   NC364576  11.220  22.356  11.360  0.0582  0.5337  0.0427
34883POPC   PO464577  11.541  22.488  11.526 -0.1860 -0.1654 -0.3495
34883POPC   GL164578  11.775  22.699  11.566  0.1457 -0.1820 -0.3867
34883POPC   GL264579  11.722  22.873  11.808  0.4141  0.4072 -0.1067
34883POPC   C1A64580  12.224  22.734  11.593 -0.1404  0.1160  0.2272
34883POPC   D2A64581  12.591  22.573  11.745 -0.2137  0.0812  0.1142
34883POPC   C3A64582  12.874  22.938  11.939  0.2656  0.2467 -0.1036
34883POPC   C4A64583  12.905  23.391  12.145  0.0893  0.4021 -0.0348
34883POPC   C1B64584  12.007  23.244  11.668 -0.4930  0.0407 -0.1892
34883POPC   C2B64585  11.857  23.688  11.738  0.1258  0.0785  0.0309
34883POPC   C3B64586  11.797  24.124  11.859 -0.1252 -0.0600  0.0834
34883POPC   C4B64587  11.801  24.529  12.145  0.2378  0.1197  0.1029
34884POPC   NC364588   1.666  20.895   5.024 -0.2186  0.2800  0.0294
34884POPC   PO464589   1.921  21.223   5.100 -0.2301  0.4601  0.0859
34884POPC   GL164590   1.797  21.201   5.479  0.1444 -0.1259 -0.0104
34884POPC   GL264591   1.979  21.368   5.712 -0.0764 -0.0668  0.1580
34884POPC   C1A64592   1.739  20.974   5.876 -0.2572  0.1138 -0.0964
34884POPC   D2A64593   1.730  20.734   6.235  0.1168  0.0626 -0.0498
34884POPC   C3A64594   1.435  20.813   6.663 -0.1541  0.1584 -0.0444
34884POPC   C4A64595   1.260  20.755   7.096 -0.1771 -0.0989  0.1890
34884POPC   C1B64596   1.927  21.395   6.124  0.5242 -0.0714  0.0520
34884POPC   C2B64597   1.518  21.254   6.273  0.2268  0.1207  0.1952
34884POPC   C3B64598   1.216  21.291   6.630  0.1300 -0.1690 -0.1931
34884POPC   C4B64599   1.056  21.206   7.089  0.0785 -0.0932 -0.2314
34885POPC   NC364600   4.914  32.066   4.419 -0.1300 -0.0886  0.0724
34885POPC   PO464601   4.724  31.996   4.776 -0.1821 -0.1634 -0.0167
34885POPC   GL164602   4.698  31.652   5.002  0.1002 -0.3297 -0.0997
34885POPC   GL264603   4.515  31.670   5.190 -0.1955 -0.1417 -0.1223
34885POPC   C1A64604   4.925  31.646   5.400 -0.1710 -0.0964 -0.0600
34885POPC   D2A64605   4.767  31.616   5.780 -0.0619 -0.3312 -0.0645
34885POPC   C3A64606   4.534  31.463   6.183 -0.0527  0.2355 -0.0186
34885POPC   C4A64607   4.514  31.090   6.483  0.0522  0.2737  0.1940
34885POPC   C1B64608   4.343  31.348   5.517 -0.0158 -0.3071 -0.4337
34885POPC   C2B64609   3.974  31.250   5.731 -0.0345  0.1213  0.2534
34885POPC   C3B64610   3.533  31.235   5.855  0.0122 -0.0764 -0.1462
34885POPC   C4B64611   3.458  31.411   6.253  0.0319  0.1276 -0.0089
34886POPC   NC364612   5.040  17.356   4.760  0.0566  0.1425 -0.2389
34886POPC   PO464613   4.748  17.539   4.961 -0.2371 -0.0526 -0.0338
34886POPC   GL164614   4.732  17.194   5.248  0.0901  0.3522  0.0710
34886POPC   GL264615   4.975  17.073   5.209 -0.2229  0.3786  0.3266
34886POPC   C1A64616   4.498  17.229   5.662 -0.1278 -0.0505  0.0083
34886POPC   D2A64617   4.433  16.915   6.001 -0.1956  0.0935 -0.2794
34886POPC   C3A64618   4.330  16.728   6.410 -0.1555 -0.1593  0.2806
34886POPC   C4A64619   4.493  16.399   6.756 -0.0507 -0.4393 -0.0103
34886POPC   C1B64620   4.971  16.883   5.613  0.0348  0.1278 -0.1235
34886POPC   C2B64621   4.852  16.708   6.018 -0.1436  0.0171 -0.3928
34886POPC   C3B64622   4.990  16.554   6.433 -0.0873 -0.0198  0.0505
34886POPC   C4B64623   5.134  16.419   6.854 -0.1133  0.3835 -0.2862
34887POPC   NC364624  14.480  28.891   4.013 -0.2532  0.0195 -0.3499
34887POPC   PO464625  14.710  29.113   4.264  0.0266 -0.0187 -0.1485
34887POPC   GL164626  14.558  29.041   4.618  0.1108 -0.7217  0.0871
34887POPC   GL264627  14.639  28.797   4.620  0.0584  0.3952 -0.0213
34887POPC   C1A64628  14.688  29.025   5.084 -0.0343 -0.1057 -0.0128
34887POPC   D2A64629  14.983  28.830   5.365 -0.1248  0.0674  0.4400
34887POPC   C3A64630  15.120  28.800   5.774  0.0203  0.2560  0.0485
34887POPC   C4A64631  15.467  28.687   6.093 -0.2275 -0.2934 -0.0019
34887POPC   C1B64632  14.292  28.716   4.871 -0.0914  0.0848  0.0797
34887POPC   C2B64633  14.203  28.892   5.299 -0.2821 -0.0227 -0.0533
34887POPC   C3B64634  14.213  29.012   5.738 -0.2914 -0.0728  0.0622
34887POPC   C4B64635  14.321  29.409   5.897 -0.1943 -0.0026  0.0936
34888POPC   NC364636   1.248  23.529   4.932  0.0817  0.0427  0.0809
34888POPC   PO464637   1.626  23.541   5.038  0.1634 -0.0486  0.3511
34888POPC   GL164638   1.455  23.497   5.460 -0.0096 -0.1107  0.2085
34888POPC   GL264639   1.415  23.766   5.495  0.1993 -0.0404  0.0213
34888POPC   C1A64640   1.378  23.534   5.965 -0.1533  0.2430  0.0916
34888POPC   D2A64641   1.559  23.686   6.340 -0.3703 -0.0648  0.0467
34888POPC   C3A64642   1.321  23.836   6.793  0.0849 -0.0866  0.1368
34888POPC   C4A64643   1.197  23.834   7.252  0.1506  0.4170  0.2897
34888POPC   C1B64644   1.488  23.991   5.824 -0.1184 -0.2411 -0.0789
34888POPC   C2B64645   1.733  24.322   6.062  0.0587 -0.2676  0.1990
34888POPC   C3B64646   1.920  24.559   6.376  0.0642  0.0904  0.0281
34888POPC   C4B64647   1.750  24.765   6.711  0.0033  0.0269  0.1392
34889POPC   NC364648   9.721  30.821   4.801 -0.0947  0.0190  0.2330
34889POPC   PO464649   9.356  30.952   4.748  0.0070  0.1641 -0.1741
34889POPC   GL164650   9.423  30.937   5.167  0.0844  0.3996 -0.1496
34889POPC   GL264651   9.239  31.051   5.308 -0.0394 -0.1704  0.0605
34889POPC   C1A64652   9.815  31.067   5.419 -0.0657 -0.1182 -0.3442
34889POPC   D2A64653  10.283  31.194   5.465  0.0620  0.0928  0.1838
34889POPC   C3A64654  10.392  31.296   5.898  0.3292  0.0571 -0.0255
34889POPC   C4A64655  10.346  31.075   6.288  0.1526 -0.1336  0.2478
34889POPC   C1B64656   9.373  31.431   5.506  0.3787 -0.3779 -0.1266
34889POPC   C2B64657   9.392  31.608   5.960  0.0345  0.2316 -0.4104
34889POPC   C3B64658   9.204  31.903   6.284  0.1925 -0.3534 -0.0808
34889POPC   C4B64659   9.221  31.751   6.705  0.1910 -0.1077 -0.0436
34890POPC   NC364660   5.477  22.582   6.298  0.1103 -0.0757  0.1041
34890POPC   PO464661   5.772  22.806   6.422 -0.4234  0.2587 -0.2521
34890POPC   GL164662   5.475  23.009   6.644  0.0000  0.0886  0.0704
34890POPC   GL264663   5.585  23.048   6.911  0.1860 -0.0954 -0.0080
34890POPC   C1A64664   5.132  23.228   6.862 -0.1321 -0.0885 -0.2460
34890POPC   D2A64665   4.936  23.219   7.262 -0.5030  0.0167  0.1561
34890POPC   C3A64666   4.645  23.472   7.392  0.1187  0.1058 -0.0817
34890POPC   C4A64667   4.286  23.767   7.558  0.3114 -0.0467  0.0999
34890POPC   C1B64668   5.685  22.938   7.334 -0.1636  0.2041 -0.0265
34890POPC   C2B64669   5.946  22.960   7.751  0.1312  0.0383 -0.0472
34890POPC   C3B64670   5.838  22.720   8.121 -0.0940 -0.3732  0.0214
34890POPC   C4B64671   5.459  22.643   8.379 -0.0697 -0.1581  0.2389
34891POPC   NC364672  10.951  21.370   9.626 -0.1249  0.2528  0.1487
34891POPC   PO464673  11.251  21.630   9.636 -0.0440 -0.0101 -0.3473
34891POPC   GL164674  11.461  21.372   9.736 -0.0224  0.0854  0.3023
34891POPC   GL264675  11.322  21.123   9.861  0.1869 -0.0131  0.1617
34891POPC   C1A64676  11.647  21.338  10.176 -0.1555  0.0004 -0.3268
34891POPC   D2A64677  11.899  21.651  10.377 -0.1814 -0.1169  0.4309
34891POPC   C3A64678  12.332  21.630  10.513 -0.2954 -0.2176  0.0439
34891POPC   C4A64679  12.559  21.267  10.433 -0.0029 -0.0017  0.0353
34891POPC   C1B64680  11.383  20.826  10.216  0.0827 -0.0878 -0.4404
34891POPC   C2B64681  11.510  20.347  10.339  0.1541  0.0777 -0.0897
34891POPC   C3B64682  11.265  20.161  10.758 -0.0900  0.0088 -0.0767
34891POPC   C4B64683  11.450  20.160  11.154 -0.1242 -0.2527 -0.0918
34892POPC   NC364684   7.742  17.847   5.785 -0.1346  0.2484 -0.1010
34892POPC   PO464685   8.119  17.900   5.605  0.1440 -0.1430  0.1554
34892POPC   GL164686   8.125  17.649   5.859 -0.1898 -0.2109  0.2734
34892POPC   GL264687   8.225  17.416   5.662  0.2769 -0.0677  0.0750
34892POPC   C1A64688   8.127  17.635   6.295  0.2617  0.1639  0.0334
34892POPC   D2A64689   8.085  17.543   6.827  0.2423  0.2147  0.2804
34892POPC   C3A64690   8.199  17.228   7.115 -0.1303 -0.0489 -0.1114
34892POPC   C4A64691   8.220  16.896   7.415 -0.2242 -0.0540  0.0118
34892POPC   C1B64692   8.027  17.198   6.039  0.0622  0.2109 -0.0428
34892POPC   C2B64693   7.905  17.174   6.493 -0.0726 -0.0754 -0.1416
34892POPC   C3B64694   7.744  17.176   6.937 -0.2368 -0.2040 -0.2320
34892POPC   C4B64695   7.767  17.235   7.411 -0.0337  0.0249  0.2885
34893POPC   NC364696   2.736  29.483   3.780  0.3960  0.2550  0.0241
34893POPC   PO464697   2.661  29.172   4.028  0.0254  0.0507  0.3067
34893POPC   GL164698   2.715  29.015   4.506  0.2078  0.0719 -0.0875
34893POPC   GL264699   2.450  29.066   4.519 -0.2126  0.1385  0.1325
34893POPC   C1A64700   2.685  29.110   4.956 -0.0429  0.0215 -0.0993
34893POPC   D2A64701   2.491  29.092   5.390  0.0662  0.2486  0.0452
34893POPC   C3A64702   2.505  29.455   5.664  0.0496 -0.0085  0.1666
34893POPC   C4A64703   2.833  29.743   5.759 -0.0277 -0.2236  0.1065
34893POPC   C1B64704   2.237  29.078   4.939  0.1048  0.0987 -0.1546
34893POPC   C2B64705   1.996  29.019   5.361 -0.1691  0.0747 -0.1059
34893POPC   C3B64706   1.877  29.021   5.831 -0.1162 -0.0481  0.2181
34893POPC   C4B64707   1.574  28.907   6.167 -0.0204 -0.1953 -0.1768
34894POPC   NC364708  16.212  28.894   4.057  0.0392 -0.0589  0.0513
34894POPC   PO464709  16.503  28.866   4.301  0.1249 -0.5596  0.0313
34894POPC   GL164710  16.874  28.988   4.476 -0.1582 -0.4740 -0.4497
34894POPC   GL264711  16.926  29.147   4.224  0.1162 -0.1893  0.0170
34894POPC   C1A64712  16.839  29.207   4.886  0.3238  0.0593 -0.0251
34894POPC   D2A64713  16.807  29.327   5.303 -0.0750 -0.1813  0.0572
34894POPC   C3A64714  16.808  29.234   5.733 -0.0275  0.1279  0.1121
34894POPC   C4A64715  16.745  29.358   6.181  0.1540 -0.0313 -0.0035
34894POPC   C1B64716  16.988  29.452   4.486 -0.0261 -0.5895  0.2034
34894POPC   C2B64717  16.890  29.719   4.884 -0.3127  0.4475  0.0077
34894POPC   C3B64718  16.757  30.089   5.149 -0.1897  0.2283  0.3086
34894POPC   C4B64719  16.954  30.266   5.532  0.0633 -0.1033 -0.1352
34895POPC   NC364720   3.957  19.153   5.095 -0.1596 -0.2699  0.1828
34895POPC   PO464721   3.821  19.072   5.449  0.0498 -0.2033 -0.3940
34895POPC   GL164722   3.977  19.151   5.801 -0.0644 -0.1198  0.1617
34895POPC   GL264723   3.949  18.820   5.886 -0.1718  0.0736 -0.2137
34895POPC   C1A64724   4.196  19.177   6.238  0.3159  0.1103 -0.1617
34895POPC   D2A64725   4.233  19.246   6.648 -0.0902  0.2757  0.2895
34895POPC   C3A64726   4.002  19.115   7.043  0.1828 -0.0484 -0.1667
34895POPC   C4A64727   3.702  19.156   7.459 -0.1283 -0.0620 -0.2075
34895POPC   C1B64728   3.607  18.699   6.203 -0.0508  0.0863 -0.0360
34895POPC   C2B64729   3.303  18.604   6.598 -0.3754  0.0769  0.1243
34895POPC   C3B64730   3.238  18.496   7.070 -0.1201 -0.3514  0.2665
34895POPC   C4B64731   3.184  18.308   7.512  0.3076 -0.1854 -0.1538
34896POPC   NC364732   5.338  19.022   5.860 -0.0557  0.0618  0.1705
34896POPC   PO464733   5.246  19.396   5.995 -0.0673 -0.2286  0.4813
34896POPC   GL164734   5.405  19.265   6.326 -0.1903  0.3181  0.1601
34896POPC   GL264735   5.396  18.986   6.392  0.0467 -0.0565  0.1570
34896POPC   C1A64736   5.187  19.314   6.711  0.2314  0.1090 -0.0317
34896POPC   D2A64737   4.748  19.400   6.975  0.1417 -0.0458  0.1277
34896POPC   C3A64738   4.480  19.134   7.209 -0.2733 -0.0287  0.0705
34896POPC   C4A64739   4.173  18.966   7.486  0.2293  0.0428  0.1430
34896POPC   C1B64740   5.094  18.675   6.665  0.1071  0.1618  0.0465
34896POPC   C2B64741   4.897  18.867   7.042 -0.0306  0.4310  0.0523
34896POPC   C3B64742   4.615  18.645   7.334 -0.1015  0.2863 -0.3398
34896POPC   C4B64743   4.482  18.448   7.721 -0.0696 -0.0147  0.1593
34897POPC   NC364744  12.269  21.080   6.373  0.0418 -0.0947 -0.2750
34897POPC   PO464745  12.395  20.717   6.456 -0.2719  0.0369  0.1343
34897POPC   GL164746  12.450  20.411   6.673  0.0100 -0.2305 -0.1846
34897POPC   GL264747  12.310  20.208   6.566 -0.2492 -0.3460 -0.3377
34897POPC   C1A64748  12.588  20.145   7.045 -0.0322  0.0841 -0.1411
34897POPC   D2A64749  12.684  20.010   7.467 -0.2191 -0.1911  0.0397
34897POPC   C3A64750  13.018  20.345   7.615 -0.1213 -0.2263  0.2906
34897POPC   C4A64751  13.072  20.477   8.078 -0.0616 -0.0721  0.1517
34897POPC   C1B64752  12.088  20.077   6.986 -0.1689  0.1358  0.3769
34897POPC   C2B64753  12.240  19.819   7.322 -0.2140 -0.0713 -0.0391
34897POPC   C3B64754  12.123  19.531   7.683 -0.2369 -0.0297  0.2276
34897POPC   C4B64755  12.066  19.363   8.086  0.6123 -0.2051  0.1238
34898POPC   NC364756  13.799  25.164   5.278  0.0209  0.1283 -0.2888
34898POPC   PO464757  13.608  25.467   5.366 -0.2235 -0.2332  0.1362
34898POPC   GL164758  13.402  25.831   5.572  0.2712  0.0223  0.2438
34898POPC   GL264759  13.743  25.840   5.799  0.0211 -0.0620  0.0178
34898POPC   C1A64760  13.402  26.128   5.962 -0.2760  0.1943  0.0977
34898POPC   D2A64761  13.384  26.223   6.373 -0.1227  0.0187 -0.1332
34898POPC   C3A64762  13.386  26.395   6.775  0.0195  0.0978 -0.0825
34898POPC   C4A64763  13.045  26.537   7.088  0.0696  0.2611  0.0787
34898POPC   C1B64764  13.793  25.987   6.297  0.3334  0.1684  0.3830
34898POPC   C2B64765  13.980  26.242   6.634  0.0174 -0.2392 -0.3207
34898POPC   C3B64766  13.840  26.545   6.978  0.3764 -0.0745  0.1850
34898POPC   C4B64767  13.523  26.859   7.077 -0.3631 -0.1119  0.0422
34899POPC   NC364768  10.181  25.553   6.525  0.1727  0.0680 -0.0875
34899POPC   PO464769   9.857  25.727   6.418 -0.1107 -0.1017  0.1906
34899POPC   GL164770  10.121  25.997   6.576  0.0986  0.1845  0.0795
34899POPC   GL264771   9.924  26.207   6.717  0.0083 -0.0416 -0.0265
34899POPC   C1A64772  10.384  26.248   6.929 -0.0751  0.1724  0.3550
34899POPC   D2A64773  10.409  26.482   7.337 -0.2992 -0.1280  0.0143
34899POPC   C3A64774  10.367  26.807   7.676 -0.2394  0.1386 -0.1662
34899POPC   C4A64775  10.491  27.024   8.048  0.2934  0.1924  0.3055
34899POPC   C1B64776  10.011  26.669   6.869 -0.2366  0.1057 -0.0929
34899POPC   C2B64777   9.995  27.100   6.930 -0.2475 -0.2357 -0.0539
34899POPC   C3B64778  10.281  27.263   7.260 -0.1302 -0.0445  0.0799
34899POPC   C4B64779  10.409  27.453   7.709 -0.0700 -0.0735  0.0007
34900POPC   NC364780   7.424  32.563   4.955  0.3825  0.1382  0.0069
34900POPC   PO464781   7.582  32.910   4.934 -0.2331 -0.0084 -0.0669
34900POPC   GL164782   7.476  32.952   5.349 -0.0593  0.0916 -0.0090
34900POPC   GL264783   7.769  32.889   5.478  0.1127  0.0662 -0.2863
34900POPC   C1A64784   7.583  32.438   5.508  0.1426 -0.3249 -0.0046
34900POPC   D2A64785   7.513  31.978   5.457  0.1360  0.0205  0.0611
34900POPC   C3A64786   7.541  31.786   5.876 -0.2012 -0.3854 -0.0461
34900POPC   C4A64787   7.492  31.500   6.197  0.2973 -0.2160 -0.0077
34900POPC   C1B64788   7.676  32.759   5.904 -0.1294 -0.2103 -0.1178
34900POPC   C2B64789   7.456  32.530   6.298  0.3550  0.2526 -0.2659
34900POPC   C3B64790   7.263  32.273   6.632  0.2054  0.0381  0.0317
34900POPC   C4B64791   7.184  31.794   6.640 -0.0896 -0.1685 -0.1356
34901POPC   NC364792  10.120  23.381  10.908  0.3569  0.1851  0.0195
34901POPC   PO464793  10.087  23.222  11.262  0.0376 -0.1879 -0.0337
34901POPC   GL164794  10.037  23.560  11.454  0.1324  0.2266 -0.0194
34901POPC   GL264795   9.850  23.685  11.288  0.0314  0.0384  0.0654
34901POPC   C1A64796  10.088  23.608  11.907  0.1227 -0.0440  0.0572
34901POPC   D2A64797  10.159  23.686  12.318  0.0999 -0.0639 -0.3162
34901POPC   C3A64798  10.261  24.121  12.324  0.2314  0.1095 -0.0549
34901POPC   C4A64799   9.901  24.446  12.258 -0.0085 -0.1811  0.0699
34901POPC   C1B64800   9.714  24.063  11.518  0.2056 -0.3052  0.0620
34901POPC   C2B64801   9.515  24.227  11.869 -0.0541  0.1964 -0.1835
34901POPC   C3B64802   9.400  24.382  12.291 -0.3447  0.1488 -0.4212
34901POPC   C4B64803   9.205  24.673  12.581  0.2075  0.0041 -0.2450
34902POPC   NC364804   9.436  30.047   5.008  0.4445 -0.4559 -0.1589
34902POPC   PO464805   9.081  30.110   4.969 -0.1570  0.1673  0.1458
34902POPC   GL164806   8.965  30.213   5.391 -0.1951  0.0357 -0.1818
34902POPC   GL264807   9.071  29.921   5.555  0.0314  0.3347 -0.1796
34902POPC   C1A64808   8.956  30.655   5.604  0.0949 -0.3020  0.2614
34902POPC   D2A64809   9.145  31.009   5.867  0.0652  0.3213 -0.2587
34902POPC   C3A64810   9.312  30.905   6.289 -0.0508  0.1746 -0.1264
34902POPC   C4A64811   9.401  30.848   6.733  0.1706  0.2287  0.2721
34902POPC   C1B64812   9.360  30.288   5.601 -0.1919 -0.0588  0.0402
34902POPC   C2B64813   9.512  30.727   5.746 -0.2829 -0.1683  0.3478
34902POPC   C3B64814   9.850  30.955   5.957  0.0772  0.4931  0.2668
34902POPC   C4B64815   9.879  31.010   6.388  0.1287  0.0478 -0.2165
34903POPC   NC364816   8.907  27.293   6.004 -0.2431  0.1664 -0.0277
34903POPC   PO464817   9.005  27.650   5.905 -0.2222  0.0653 -0.0405
34903POPC   GL164818   8.902  27.814   6.311 -0.0971  0.0357 -0.2164
34903POPC   GL264819   9.100  27.694   6.445  0.0559  0.1268 -0.1836
34903POPC   C1A64820   8.813  28.118   6.648  0.1346  0.0879 -0.1074
34903POPC   D2A64821   8.689  28.552   6.691  0.1187 -0.0514 -0.1579
34903POPC   C3A64822   8.489  28.492   7.107 -0.3332 -0.0484 -0.0659
34903POPC   C4A64823   8.145  28.751   7.306 -0.2009 -0.0362  0.1709
34903POPC   C1B64824   9.151  27.699   6.836 -0.0741 -0.2280  0.5825
34903POPC   C2B64825   8.988  27.741   7.269 -0.2065  0.2620  0.0692
34903POPC   C3B64826   8.589  27.694   7.476  0.3331 -0.1045 -0.2652
34903POPC   C4B64827   8.125  27.704   7.438  0.0824  0.3864  0.1995
34904POPC   NC364828  13.929  24.527   5.755  0.3527  0.3022  0.1342
34904POPC   PO464829  13.636  24.331   5.915  0.0408  0.1490 -0.0689
34904POPC   GL164830  13.810  24.294   6.202  0.1284 -0.5260 -0.0612
34904POPC   GL264831  13.841  24.581   6.351 -0.1165  0.3934 -0.0034
34904POPC   C1A64832  13.710  24.046   6.610 -0.1724  0.0850 -0.2726
34904POPC   D2A64833  13.996  23.851   6.831 -0.1895 -0.1139  0.1987
34904POPC   C3A64834  14.004  23.829   7.280 -0.1240 -0.0284 -0.0891
34904POPC   C4A64835  14.200  23.654   7.697 -0.2139  0.1320  0.1217
34904POPC   C1B64836  13.808  24.564   6.782 -0.0792  0.1208 -0.3396
34904POPC   C2B64837  13.733  24.825   7.166  0.0049 -0.1278 -0.4630
34904POPC   C3B64838  13.848  25.008   7.553  0.1840  0.0398 -0.1249
34904POPC   C4B64839  14.057  24.984   7.919 -0.1949  0.0716  0.0516
34905POPC   NC364840   2.484  18.075   4.726 -0.1918  0.3635 -0.5021
34905POPC   PO464841   2.245  17.769   4.909 -0.1290 -0.1535  0.0474
34905POPC   GL164842   2.254  17.592   5.207 -0.1574 -0.1966 -0.1917
34905POPC   GL264843   2.412  17.358   5.146  0.3372  0.0031  0.3854
34905POPC   C1A64844   1.886  17.360   5.394 -0.0400 -0.0217  0.1737
34905POPC   D2A64845   1.484  17.144   5.406  0.0935  0.1271  0.2133
34905POPC   C3A64846   1.042  17.254   5.528  0.2763  0.2735 -0.1284
34905POPC   C4A64847   0.798  17.453   5.831  0.1642 -0.1352  0.1285
34905POPC   C1B64848   2.359  17.324   5.618 -0.1338 -0.0216 -0.2266
34905POPC   C2B64849   2.342  17.242   6.100 -0.0505  0.0425 -0.1657
34905POPC   C3B64850   2.042  17.535   6.307  0.0776 -0.3080  0.1270
34905POPC   C4B64851   1.695  17.800   6.306  0.0287 -0.1652  0.1163
34906POPC   NC364852  15.879  31.235   4.281  0.2060  0.5727 -0.0008
34906POPC   PO464853  15.551  31.361   4.107 -0.0596  0.0009  0.2190
34906POPC   GL164854  15.575  31.528   4.489 -0.1052 -0.2128 -0.1621
34906POPC   GL264855  15.412  31.338   4.611  0.1268  0.1821  0.0075
34906POPC   C1A64856  15.779  31.653   4.870 -0.0197 -0.1410  0.1689
34906POPC   D2A64857  15.949  31.579   5.259  0.0138 -0.1630  0.3895
34906POPC   C3A64858  16.203  31.884   5.478 -0.0233  0.3280  0.2136
34906POPC   C4A64859  16.424  32.191   5.748  0.1521  0.0917  0.1667
34906POPC   C1B64860  15.147  31.719   4.697 -0.0099  0.0980 -0.3640
34906POPC   C2B64861  14.907  31.915   5.064  0.0133 -0.2197  0.3739
34906POPC   C3B64862  15.038  31.924   5.504 -0.1551  0.1526  0.1875
34906POPC   C4B64863  14.944  31.671   5.894  0.1914 -0.1111  0.0157
34907POPC   NC364864   5.714  32.012   4.907 -0.0414  0.0775  0.0572
34907POPC   PO464865   5.511  32.219   4.602 -0.2004  0.1587  0.1971
34907POPC   GL164866   5.220  31.929   4.868  0.2232 -0.1746 -0.2477
34907POPC   GL264867   5.116  31.974   5.074 -0.1687 -0.2824 -0.0446
34907POPC   C1A64868   5.114  31.475   4.932 -0.1487 -0.1935 -0.1525
34907POPC   D2A64869   4.909  31.187   5.228  0.0136 -0.2077  0.2685
34907POPC   C3A64870   4.524  30.992   5.146  0.2196 -0.0072 -0.2316
34907POPC   C4A64871   4.069  30.911   5.330  0.1029 -0.0345 -0.0947
34907POPC   C1B64872   5.250  32.004   5.536  0.0880  0.2285 -0.0310
34907POPC   C2B64873   5.009  32.005   5.990  0.2410 -0.0994  0.1224
34907POPC   C3B64874   4.967  32.078   6.421 -0.0049 -0.0723 -0.1869
34907POPC   C4B64875   5.163  32.325   6.731  0.1421  0.0535 -0.0982
34908POPC   NC364876   9.248  24.231   8.573  0.0665  0.2903  0.1570
34908POPC   PO464877   9.027  23.925   8.611  0.4024  0.1120 -0.0971
34908POPC   GL164878   8.763  24.227   8.650 -0.0845  0.0998 -0.1356
34908POPC   GL264879   8.845  24.475   8.581  0.0719  0.1019 -0.0050
34908POPC   C1A64880   8.483  24.412   9.008 -0.1638 -0.1335  0.1666
34908POPC   D2A64881   8.324  24.410   9.453  0.0299 -0.2334  0.4060
34908POPC   C3A64882   7.990  24.727   9.566 -0.3498  0.0285 -0.0565
34908POPC   C4A64883   7.653  24.960   9.796 -0.3635  0.0816  0.3320
34908POPC   C1B64884   8.991  24.615   8.971 -0.0744  0.0893 -0.0575
34908POPC   C2B64885   9.302  24.838   9.160  0.0909 -0.0359 -0.0243
34908POPC   C3B64886   9.332  25.275   9.267 -0.3435 -0.1702  0.1068
34908POPC   C4B64887   9.184  25.608   9.024  0.2024  0.1909  0.0348
34909POPC   NC364888   8.368  21.844   9.784 -0.3065 -0.0062  0.0708
34909POPC   PO464889   8.684  21.780   9.595 -0.1314 -0.1102  0.0446
34909POPC   GL164890   8.418  21.431   9.660 -0.0614 -0.0931  0.4309
34909POPC   GL264891   8.387  21.327   9.870  0.0744 -0.0630 -0.2106
34909POPC   C1A64892   7.968  21.537   9.815 -0.2985  0.0588  0.2749
34909POPC   D2A64893   7.634  21.273  10.026 -0.1417  0.3392  0.2043
34909POPC   C3A64894   7.544  20.839  10.036 -0.1594 -0.0549 -0.4499
34909POPC   C4A64895   7.553  20.545  10.398  0.0470  0.1503 -0.0549
34909POPC   C1B64896   8.077  20.979   9.943  0.0948 -0.0819 -0.1683
34909POPC   C2B64897   8.081  20.564  10.189  0.0892 -0.1462  0.5028
34909POPC   C3B64898   8.089  20.076  10.297 -0.3783  0.0473 -0.0901
34909POPC   C4B64899   8.067  19.730  10.643 -0.2567  0.2362 -0.0998
34910POPC   NC364900   4.448  18.271   5.592  0.0116  0.0700  0.2486
34910POPC   PO464901   4.638  18.601   5.628  0.1541 -0.3804 -0.2198
34910POPC   GL164902   4.595  18.534   5.971  0.0933  0.1739 -0.1296
34910POPC   GL264903   4.360  18.613   6.118  0.1248  0.1772 -0.0943
34910POPC   C1A64904   4.433  18.094   6.074 -0.1454  0.2512 -0.1427
34910POPC   D2A64905   4.038  17.883   6.307  0.2031 -0.1308  0.0371
34910POPC   C3A64906   3.921  17.738   6.778 -0.1160 -0.1966 -0.1414
34910POPC   C4A64907   4.076  17.521   7.164  0.1133 -0.0073  0.0397
34910POPC   C1B64908   4.156  18.503   6.480 -0.1546  0.1309 -0.0013
34910POPC   C2B64909   4.248  18.096   6.731 -0.1555 -0.1658 -0.1916
34910POPC   C3B64910   4.050  18.054   7.217  0.0170 -0.2433 -0.2786
34910POPC   C4B64911   4.163  17.973   7.628  0.0858 -0.0630 -0.4393
34911POPC   NC364912   8.924  24.169   8.171  0.3270 -0.3889 -0.0015
34911POPC   PO464913   8.557  24.346   8.184 -0.0017 -0.2076  0.2174
34911POPC   GL164914   8.480  24.693   8.327 -0.1286 -0.5545  0.1369
34911POPC   GL264915   8.252  24.740   8.244  0.0670 -0.1379  0.1737
34911POPC   C1A64916   8.563  24.893   8.757 -0.1795  0.3279 -0.3640
34911POPC   D2A64917   8.551  24.902   9.252  0.0290 -0.0309  0.1728
34911POPC   C3A64918   8.915  25.061   9.484 -0.0542 -0.2136  0.1524
34911POPC   C4A64919   9.279  24.893   9.695  0.0028 -0.2036  0.3164
34911POPC   C1B64920   8.148  24.585   8.644  0.1998 -0.2801  0.0661
34911POPC   C2B64921   8.112  24.788   9.081 -0.1754 -0.0071  0.0620
34911POPC   C3B64922   7.686  24.901   9.182 -0.1966  0.0716 -0.2171
34911POPC   C4B64923   7.260  25.054   9.384 -0.4710  0.1952  0.1518
34912POPC   NC364924   7.865  22.798   8.559 -0.1439 -0.0557 -0.0837
34912POPC   PO464925   7.940  23.154   8.428  0.0025 -0.2503  0.3826
34912POPC   GL164926   7.658  23.197   8.739  0.1687 -0.0920  0.0590
34912POPC   GL264927   7.516  22.927   8.841 -0.1517 -0.1327 -0.1281
34912POPC   C1A64928   7.210  23.354   8.731  0.0396  0.1662 -0.0744
34912POPC   D2A64929   6.791  23.295   8.703 -0.0363 -0.0775  0.0011
34912POPC   C3A64930   6.775  22.936   9.027 -0.1511  0.1418  0.0011
34912POPC   C4A64931   6.555  22.564   9.160 -0.0118  0.2378 -0.2564
34912POPC   C1B64932   7.304  23.142   9.188  0.0895 -0.2234 -0.1337
34912POPC   C2B64933   7.438  23.539   9.461 -0.2098 -0.1104  0.2445
34912POPC   C3B64934   7.502  23.859   9.815 -0.3255  0.1397  0.3129
34912POPC   C4B64935   7.533  24.126  10.214 -0.0947 -0.2164 -0.4402
34913POPC   NC364936  12.001  17.830   4.950 -0.1768 -0.2173  0.1882
34913POPC   PO464937  11.944  17.841   5.346  0.2355 -0.1712  0.2341
34913POPC   GL164938  12.018  17.743   5.672 -0.3281 -0.0995  0.1559
34913POPC   GL264939  12.112  17.480   5.669  0.0935  0.0187  0.0765
34913POPC   C1A64940  11.764  17.755   6.053 -0.1235  0.3061 -0.1857
34913POPC   D2A64941  11.402  17.512   6.221  0.1498  0.0687  0.1015
34913POPC   C3A64942  11.310  17.145   6.502  0.1119  0.0485  0.0200
34913POPC   C4A64943  10.972  16.851   6.571  0.2211  0.0454  0.0956
34913POPC   C1B64944  12.258  17.601   6.110 -0.2411 -0.0346  0.2479
34913POPC   C2B64945  12.340  17.246   6.369 -0.0748 -0.2473  0.0778
34913POPC   C3B64946  12.635  17.063   6.668  0.1958  0.0172  0.0005
34913POPC   C4B64947  12.747  16.727   6.932 -0.2113  0.0920 -0.0536
34914POPC   NC364948   5.963  31.227   4.491  0.3172  0.0003 -0.0141
34914POPC   PO464949   6.224  30.986   4.630  0.0720 -0.0471 -0.0357
34914POPC   GL164950   5.964  30.888   4.832  0.1306 -0.4039  0.0854
34914POPC   GL264951   5.774  30.791   4.622  0.1684  0.2960 -0.0908
34914POPC   C1A64952   5.594  30.951   5.130  0.0444 -0.2741  0.3627
34914POPC   D2A64953   5.235  30.835   5.331  0.2453  0.2782 -0.0193
34914POPC   C3A64954   5.084  30.560   5.721 -0.3616  0.0907  0.0389
34914POPC   C4A64955   5.046  30.454   6.154  0.0981 -0.0727  0.0698
34914POPC   C1B64956   5.947  30.486   4.965  0.0215  0.1764 -0.4047
34914POPC   C2B64957   5.996  30.644   5.387  0.2324  0.1358 -0.0042
34914POPC   C3B64958   6.157  30.574   5.829 -0.3852 -0.1077 -0.0225
34914POPC   C4B64959   6.167  30.630   6.259 -0.2165  0.1131 -0.0436
34915POPC   NC364960  10.775  17.997   5.537 -0.1675 -0.2085 -0.0578
34915POPC   PO464961  10.637  17.835   5.207  0.0461  0.0976  0.0568
34915POPC   GL164962  10.626  17.589   5.578 -0.2939  0.1795 -0.5112
34915POPC   GL264963  10.348  17.691   5.608 -0.1038  0.1661 -0.3281
34915POPC   C1A64964  10.942  17.696   5.939 -0.1115  0.0894  0.0881
34915POPC   D2A64965  11.020  17.735   6.407  0.1227 -0.1708  0.3594
34915POPC   C3A64966  10.853  17.437   6.717 -0.2606 -0.2746 -0.3506
34915POPC   C4A64967  10.803  17.277   7.179 -0.2123  0.1325 -0.1005
34915POPC   C1B64968  10.503  17.468   5.980 -0.0642 -0.2034 -0.1114
34915POPC   C2B64969  10.493  17.401   6.405  0.1025 -0.2339 -0.1436
34915POPC   C3B64970  10.497  17.141   6.776  0.2324  0.4091 -0.0757
34915POPC   C4B64971  10.721  16.824   7.026 -0.0324 -0.0738  0.0021
34916POPC   NC364972   1.835  24.621   5.216  0.4388  0.0510  0.0983
34916POPC   PO464973   1.555  24.959   5.146 -0.2213 -0.1478 -0.1799
34916POPC   GL164974   1.610  25.002   5.524 -0.1876 -0.1823 -0.2664
34916POPC   GL264975   1.900  25.028   5.550  0.0814  0.1699  0.0725
34916POPC   C1A64976   1.257  25.159   5.793  0.0125 -0.0698  0.1865
34916POPC   D2A64977   1.103  25.268   6.220  0.1470 -0.1526  0.0333
34916POPC   C3A64978   1.380  25.548   6.489  0.1733 -0.0047  0.2662
34916POPC   C4A64979   1.445  25.929   6.812  0.1143  0.1719  0.4968
34916POPC   C1B64980   2.051  24.939   5.991  0.0288  0.4473 -0.0832
34916POPC   C2B64981   2.058  25.099   6.414  0.0340  0.1047  0.0303
34916POPC   C3B64982   1.796  25.290   6.713  0.0138 -0.1499 -0.2715
34916POPC   C4B64983   1.442  25.284   6.977 -0.2890  0.0002  0.0776
34917POPC   NC364984   8.610  17.775   5.531  0.2775  0.1707 -0.2244
34917POPC   PO464985   8.773  18.117   5.483  0.1063  0.3234  0.2975
34917POPC   GL164986   8.875  18.068   5.894 -0.0980  0.2970  0.3171
34917POPC   GL264987   9.110  18.178   5.895 -0.2414  0.1944  0.2434
34917POPC   C1A64988   8.530  18.009   6.164  0.3616 -0.1802  0.1544
34917POPC   D2A64989   8.499  17.677   6.551 -0.2217 -0.3950 -0.1789
34917POPC   C3A64990   8.507  17.747   6.973 -0.1429  0.4352 -0.0462
34917POPC   C4A64991   8.629  17.356   7.273  0.2518 -0.2687 -0.0067
34917POPC   C1B64992   9.095  18.001   6.334  0.0675  0.1825 -0.1568
34917POPC   C2B64993   9.010  17.621   6.548 -0.0096 -0.1160 -0.0241
34917POPC   C3B64994   9.037  17.458   6.955 -0.0669 -0.1491  0.1161
34917POPC   C4B64995   9.141  17.138   7.320 -0.0347 -0.2439 -0.1716
34918POPC   NC364996   1.764  21.630   5.314 -0.0784 -0.4177  0.2632
34918POPC   PO464997   1.650  21.944   5.077  0.0382 -0.0138  0.2196
34918POPC   GL164998   1.510  22.143   5.421 -0.3355 -0.1294  0.1056
34918POPC   GL264999   1.742  22.241   5.547  0.1414 -0.2411  0.3120
34918POPC   C1A65000   1.413  21.914   5.819 -0.0283 -0.0111 -0.0807
34918POPC   D2A65001   1.192  21.725   6.171 -0.1499  0.0432  0.0392
34918POPC   C3A65002   1.210  21.868   6.589 -0.3680 -0.1070 -0.0948
34918POPC   C4A65003   1.061  21.988   7.004  0.1187 -0.2114  0.1207
34918POPC   C1B65004   1.755  22.467   5.982 -0.1312 -0.0336  0.0097
34918POPC   C2B65005   1.770  22.384   6.396 -0.1360  0.2505  0.2335
34918POPC   C3B65006   1.975  22.464   6.789 -0.0566  0.1125  0.0541
34918POPC   C4B65007   2.377  22.508   7.063 -0.0295 -0.0502 -0.1453
34919POPC   NC365008   2.483  22.068   5.698 -0.0759  0.2885 -0.3418
34919POPC   PO465009   2.226  22.271   5.540 -0.1490 -0.0017 -0.0101
34919POPC   GL165010   2.177  22.327   5.899  0.2353  0.0772 -0.3086
34919POPC   GL265011   2.317  22.606   5.889  0.2215 -0.5677 -0.0156
34919POPC   C1A65012   2.090  22.062   6.225 -0.2178 -0.0239 -0.3468
34919POPC   D2A65013   1.675  21.812   6.292 -0.2209  0.2002  0.1892
34919POPC   C3A65014   1.707  21.480   6.638  0.2668 -0.1908 -0.1404
34919POPC   C4A65015   1.696  21.167   6.996  0.3667 -0.0066  0.1851
34919POPC   C1B65016   2.377  22.734   6.332 -0.2663  0.0007 -0.0458
34919POPC   C2B65017   2.548  22.852   6.734 -0.0951  0.1325 -0.1506
34919POPC   C3B65018   2.696  22.947   7.150 -0.4174  0.2244 -0.2248
34919POPC   C4B65019   3.044  22.681   7.344  0.3299 -0.1907  0.0648
34920POPC   NC365020   9.668  25.130   7.625  0.1927 -0.1353  0.0891
34920POPC   PO465021   9.600  25.275   7.221  0.4242  0.1924 -0.1097
34920POPC   GL165022   9.488  25.571   7.424  0.4138 -0.2772 -0.1734
34920POPC   GL265023   9.282  25.734   7.334 -0.1924 -0.0571  0.0931
34920POPC   C1A65024   9.685  25.986   7.477  0.1893 -0.6748 -0.1525
34920POPC   D2A65025   9.895  26.344   7.240  0.1190  0.0388  0.1293
34920POPC   C3A65026   9.930  26.802   7.369 -0.0765 -0.1907 -0.3481
34920POPC   C4A65027   9.995  27.120   7.664  0.0017  0.4617 -0.2634
34920POPC   C1B65028   9.188  26.120   7.560 -0.0953  0.1866 -0.1830
34920POPC   C2B65029   8.932  26.369   7.827  0.0664  0.0714  0.1937
34920POPC   C3B65030   8.718  26.674   8.166 -0.1913  0.0161 -0.0516
34920POPC   C4B65031   8.640  26.841   8.553  0.0208 -0.1162  0.0050
34921POPC   NC365032  11.849  26.606   4.773 -0.0888  0.1466  0.2498
34921POPC   PO465033  11.971  26.882   5.028 -0.2603  0.0002 -0.3159
34921POPC   GL165034  11.751  27.024   5.334 -0.4359 -0.1144  0.1106
34921POPC   GL265035  12.018  27.040   5.491 -0.3507 -0.2565  0.1847
34921POPC   C1A65036  11.713  27.458   5.541 -0.0197  0.1532 -0.0456
34921POPC   D2A65037  11.894  27.935   5.566  0.2496  0.0754 -0.0184
34921POPC   C3A65038  12.084  28.192   5.967 -0.0756  0.2190  0.3462
34921POPC   C4A65039  12.447  28.314   6.257 -0.0341  0.2671 -0.2793
34921POPC   C1B65040  12.097  26.933   5.960  0.1589 -0.1510  0.2325
34921POPC   C2B65041  11.894  26.982   6.351 -0.1746  0.1694 -0.2402
34921POPC   C3B65042  12.107  27.087   6.763  0.0655  0.1405 -0.1788
34921POPC   C4B65043  12.145  27.254   7.157 -0.2353  0.3281  0.1028
34922POPC   NC365044  13.326  30.011   3.927 -0.2148  0.0949  0.2253
34922POPC   PO465045  12.951  29.917   3.904  0.2350  0.1926 -0.0866
34922POPC   GL165046  13.002  29.757   4.301 -0.2643 -0.1125  0.3704
34922POPC   GL265047  13.059  29.729   4.540 -0.0166  0.2631  0.1564
34922POPC   C1A65048  12.594  29.589   4.439  0.2577 -0.3866 -0.1066
34922POPC   D2A65049  12.262  29.502   4.811  0.0229  0.4424 -0.2225
34922POPC   C3A65050  12.371  29.937   4.961  0.0405  0.2083  0.1192
34922POPC   C4A65051  12.451  30.375   4.952  0.1031 -0.0222 -0.1305
34922POPC   C1B65052  13.059  29.544   4.965  0.0607  0.2150  0.1180
34922POPC   C2B65053  13.005  29.518   5.444  0.2813 -0.1243  0.1931
34922POPC   C3B65054  12.779  29.605   5.793  0.2281  0.1759 -0.0392
34922POPC   C4B65055  12.512  29.775   6.153 -0.1075 -0.1127  0.1717
34923POPC   NC365056   7.508  23.882   8.157 -0.0869 -0.0166  0.3120
34923POPC   PO465057   7.427  23.974   7.774  0.2731 -0.2279  0.0147
34923POPC   GL165058   7.131  24.113   7.893  0.0516  0.2698 -0.3713
34923POPC   GL265059   7.046  24.385   7.819  0.0042 -0.1724 -0.1111
34923POPC   C1A65060   6.843  24.112   8.305  0.1347  0.3423 -0.4357
34923POPC   D2A65061   6.697  24.576   8.366 -0.2620 -0.2240 -0.1113
34923POPC   C3A65062   6.663  24.772   8.735  0.0650  0.1063  0.0515
34923POPC   C4A65063   6.353  25.083   8.958  0.3164  0.0693  0.0186
34923POPC   C1B65064   6.745  24.774   7.841 -0.2259  0.0202 -0.3607
34923POPC   C2B65065   6.721  25.120   8.087 -0.1720 -0.2254  0.3830
34923POPC   C3B65066   6.625  25.264   8.499 -0.0056  0.1737 -0.2120
34923POPC   C4B65067   6.638  25.523   8.940  0.2822  0.2372  0.1725
34924POPC   NC365068   7.289  31.234   4.820 -0.0067 -0.0473  0.1488
34924POPC   PO465069   7.457  30.879   4.800  0.1857  0.0292  0.0857
34924POPC   GL165070   7.373  31.055   5.182  0.0628  0.1569 -0.6211
34924POPC   GL265071   7.515  30.745   5.305  0.0219  0.1806 -0.0481
34924POPC   C1A65072   7.786  31.166   5.367  0.4461  0.0781 -0.0873
34924POPC   D2A65073   8.204  31.045   5.535  0.3986 -0.0739 -0.2220
34924POPC   C3A65074   8.370  31.178   5.972  0.0824  0.1011  0.0558
34924POPC   C4A65075   8.435  31.639   6.057 -0.1568  0.0896 -0.0083
34924POPC   C1B65076   7.531  30.737   5.761  0.4000  0.0424 -0.0710
34924POPC   C2B65077   7.486  30.911   6.214 -0.0891 -0.0220  0.2455
34924POPC   C3B65078   7.145  31.180   6.425  0.1002 -0.1098  0.4570
34924POPC   C4B65079   7.013  31.349   6.855  0.3672  0.1679 -0.1316
34925POPC   NC365080   0.973  27.359   4.016 -0.1184 -0.1723  0.1373
34925POPC   PO465081   1.313  27.516   4.202  0.2575  0.0765  0.0299
34925POPC   GL165082   1.109  27.652   4.487 -0.0963  0.2929  0.0626
34925POPC   GL265083   1.280  27.503   4.693 -0.0491  0.1078  0.1904
34925POPC   C1A65084   0.964  27.903   4.829 -0.0162  0.0825 -0.0995
34925POPC   D2A65085   0.564  28.004   4.970 -0.1939 -0.1357  0.0576
34925POPC   C3A65086   0.726  28.311   5.241  0.1044 -0.4527  0.0080
34925POPC   C4A65087   1.058  28.699   5.235 -0.0393  0.0092  0.1173
34925POPC   C1B65088   1.385  27.354   5.147 -0.1806 -0.3341 -0.1600
34925POPC   C2B65089   1.612  27.344   5.523  0.0292 -0.3159 -0.0979
34925POPC   C3B65090   2.011  27.447   5.695  0.0957  0.1795  0.0448
34925POPC   C4B65091   2.202  27.454   6.102 -0.2769  0.2011 -0.1842
34926POPC   NC365092   5.265  29.836   4.690 -0.0780  0.0148  0.2663
34926POPC   PO465093   5.084  29.524   4.836  0.0242  0.1208  0.0214
34926POPC   GL165094   5.320  29.549   5.182 -0.1541 -0.0633  0.0758
34926POPC   GL265095   5.170  29.363   5.312  0.1270  0.1752  0.1203
34926POPC   C1A65096   5.767  29.529   5.163  0.1321 -0.0565  0.3394
34926POPC   D2A65097   6.201  29.707   5.204 -0.1124  0.3301 -0.1202
34926POPC   C3A65098   6.239  29.699   5.714 -0.0155 -0.2635 -0.0617
34926POPC   C4A65099   6.453  29.671   6.152 -0.1648 -0.2129  0.1283
34926POPC   C1B65100   5.289  29.193   5.768  0.2793  0.0506  0.0840
34926POPC   C2B65101   5.631  29.057   6.073  0.0319 -0.0987  0.1173
34926POPC   C3B65102   5.912  29.215   6.415 -0.1828  0.4606  0.2555
34926POPC   C4B65103   6.102  29.605   6.555 -0.2378  0.0597  0.0071
34927POPC   NC365104  11.736  25.965   6.100 -0.0145 -0.0471 -0.0279
34927POPC   PO465105  12.091  25.975   6.346 -0.1105  0.0427  0.2792
34927POPC   GL165106  12.232  26.343   6.592 -0.1308 -0.2310 -0.0084
34927POPC   GL265107  12.515  26.270   6.530 -0.1075  0.1363 -0.2122
34927POPC   C1A65108  12.122  26.251   7.026 -0.1042  0.2140  0.0039
34927POPC   D2A65109  11.875  26.382   7.364 -0.0293 -0.0802 -0.2781
34927POPC   C3A65110  11.837  26.853   7.431 -0.1171 -0.0487 -0.0574
34927POPC   C4A65111  11.653  27.255   7.294 -0.1845  0.0603 -0.1859
34927POPC   C1B65112  12.617  26.313   7.011  0.0114  0.2289 -0.1842
34927POPC   C2B65113  12.715  26.559   7.465  0.0608 -0.1285 -0.1105
34927POPC   C3B65114  13.068  26.549   7.774 -0.0416 -0.1532 -0.0720
34927POPC   C4B65115  13.379  26.253   7.911 -0.2380 -0.1386  0.0615
34928POPC   NC365116  11.221  21.669   8.771 -0.0113 -0.1598 -0.1284
34928POPC   PO465117  11.093  22.028   8.746 -0.2076  0.1060 -0.2941
34928POPC   GL165118  11.521  22.003   8.762 -0.0312  0.0991 -0.2880
34928POPC   GL265119  11.705  21.772   8.602 -0.0846 -0.2209  0.0127
34928POPC   C1A65120  11.916  21.979   9.036  0.2616  0.0996 -0.0862
34928POPC   D2A65121  12.201  21.906   9.440  0.2176  0.0072  0.1681
34928POPC   C3A65122  12.476  21.547   9.354  0.2107 -0.1347 -0.0550
34928POPC   C4A65123  12.733  21.538   9.006 -0.0223  0.2671 -0.4040
34928POPC   C1B65124  11.625  21.408   8.922  0.0492 -0.1233  0.1365
34928POPC   C2B65125  11.841  21.006   9.096 -0.3263  0.2250  0.0398
34928POPC   C3B65126  12.188  20.633   9.197 -0.1535 -0.1388  0.0781
34928POPC   C4B65127  12.446  20.249   9.340  0.0050  0.1261  0.0894
34929POPC   NC365128   7.316  20.092   6.974  0.0648  0.0897 -0.0283
34929POPC   PO465129   7.518  20.416   7.129 -0.1207  0.1491 -0.1014
34929POPC   GL165130   7.445  20.160   7.395  0.2340  0.1984  0.4561
34929POPC   GL265131   7.176  20.269   7.440 -0.0407  0.1159  0.0524
34929POPC   C1A65132   7.241  19.804   7.648 -0.3502 -0.1044  0.1868
34929POPC   D2A65133   7.114  19.517   8.015  0.1817  0.0677 -0.0276
34929POPC   C3A65134   7.446  19.347   8.286 -0.0766  0.0655  0.0532
34929POPC   C4A65135   7.787  19.156   8.475 -0.2455  0.0513 -0.3517
34929POPC   C1B65136   6.911  20.184   7.796  0.1579 -0.2985  0.1504
34929POPC   C2B65137   6.600  20.054   8.133 -0.1695 -0.2849 -0.0227
34929POPC   C3B65138   6.527  20.070   8.593  0.1554  0.1212 -0.0204
34929POPC   C4B65139   6.640  19.937   9.083 -0.0127 -0.1264  0.2149
34930POPC   NC365140  10.264  20.909   9.975  0.1861  0.0251  0.1220
34930POPC   PO465141  10.177  21.239  10.205 -0.2646 -0.0208 -0.1800
34930POPC   GL165142   9.840  21.028  10.290 -0.0157 -0.0230  0.2020
34930POPC   GL265143   9.749  21.081  10.582 -0.2436  0.1469  0.0794
34930POPC   C1A65144   9.707  20.726   9.919 -0.0182 -0.0116  0.0285
34930POPC   D2A65145   9.708  20.286   9.800 -0.1240 -0.0571  0.1216
34930POPC   C3A65146   9.629  19.950  10.030  0.0486  0.1936  0.1302
34930POPC   C4A65147   9.529  19.557  10.139 -0.0704  0.2073  0.3769
34930POPC   C1B65148   9.877  20.624  10.453 -0.2349 -0.0679  0.1616
34930POPC   C2B65149  10.168  20.346  10.254 -0.1923 -0.0182 -0.1483
34930POPC   C3B65150  10.524  20.358   9.966  0.2220  0.0099 -0.1384
34930POPC   C4B65151  10.788  20.110   9.677  0.0212  0.1878 -0.1612
34931POPC   NC365152   9.852  19.522   6.570 -0.0910 -0.0803 -0.0923
34931POPC   PO465153   9.569  19.285   6.613 -0.2961 -0.1566  0.2558
34931POPC   GL165154   9.833  19.143   6.828 -0.0884  0.0557 -0.1499
34931POPC   GL265155   9.644  19.071   7.084 -0.1143 -0.1700 -0.3540
34931POPC   C1A65156  10.111  19.036   7.159  0.0438  0.2556 -0.1163
34931POPC   D2A65157  10.202  18.779   7.548 -0.3074  0.0360 -0.0633
34931POPC   C3A65158  10.482  18.493   7.806  0.2668  0.0218 -0.0885
34931POPC   C4A65159  10.588  18.263   8.191 -0.0060  0.0839 -0.2942
34931POPC   C1B65160   9.424  18.643   7.256 -0.1721  0.0523 -0.0035
34931POPC   C2B65161   9.479  18.195   7.385 -0.5177 -0.2145  0.1833
34931POPC   C3B65162   9.795  17.953   7.591  0.1917  0.4561  0.0519
34931POPC   C4B65163   9.887  17.715   8.027  0.0767  0.1459  0.1188
34932POPC   NC365164   6.080  20.317   6.596 -0.1391 -0.1128 -0.0182
34932POPC   PO465165   6.409  20.108   6.523  0.0822  0.0518  0.1566
34932POPC   GL165166   6.476  20.198   6.933  0.2159 -0.0575 -0.0922
34932POPC   GL265167   6.196  19.993   6.993 -0.1882 -0.1145 -0.1061
34932POPC   C1A65168   6.586  20.040   7.389  0.0344 -0.3092 -0.1111
34932POPC   D2A65169   6.635  19.702   7.677 -0.1017 -0.1494  0.0757
34932POPC   C3A65170   6.205  19.692   7.858  0.2922  0.0148 -0.2472
34932POPC   C4A65171   5.831  19.427   7.944 -0.4304  0.1637  0.0120
34932POPC   C1B65172   6.097  19.831   7.378  0.2811 -0.1601 -0.1174
34932POPC   C2B65173   5.790  19.518   7.432  0.1524 -0.2651  0.0467
34932POPC   C3B65174   5.468  19.220   7.624 -0.0623 -0.1293 -0.0543
34932POPC   C4B65175   5.341  18.956   7.963 -0.1852 -0.1400 -0.0945
34933POPC   NC365176  14.818  18.844   4.706 -0.1178 -0.1344 -0.1821
34933POPC   PO465177  14.665  18.649   4.436 -0.0156  0.0015  0.0656
34933POPC   GL165178  14.759  18.393   4.680  0.2579 -0.4046 -0.1698
34933POPC   GL265179  14.824  18.443   4.985 -0.0984 -0.1777 -0.1170
34933POPC   C1A65180  14.524  18.069   4.848  0.1268  0.1294 -0.2070
34933POPC   D2A65181  14.246  17.799   5.068  0.0857 -0.1745 -0.1635
34933POPC   C3A65182  14.453  17.365   5.171 -0.2443 -0.2046  0.2709
34933POPC   C4A65183  14.434  17.115   5.554 -0.0907  0.2931 -0.0352
34933POPC   C1B65184  14.460  18.322   5.269  0.0009 -0.0016  0.0358
34933POPC   C2B65185  14.364  18.174   5.720 -0.0290  0.1326  0.1833
34933POPC   C3B65186  14.435  17.881   6.075 -0.0503 -0.0955  0.1328
34933POPC   C4B65187  14.421  17.529   6.380  0.0358 -0.4597 -0.3571
34934POPC   NC365188  15.109  26.938   4.542 -0.0020 -0.1024 -0.2010
34934POPC   PO465189  15.406  26.924   4.309  0.0796 -0.1215 -0.0382
34934POPC   GL165190  15.604  27.033   4.695  0.0360  0.3459 -0.4032
34934POPC   GL265191  15.587  26.822   4.890  0.0903 -0.0205 -0.4377
34934POPC   C1A65192  16.061  27.159   4.792 -0.0014 -0.0204 -0.2874
34934POPC   D2A65193  16.398  27.217   5.128 -0.1506  0.1530 -0.3069
34934POPC   C3A65194  16.273  27.264   5.571  0.3716 -0.1796  0.2802
34934POPC   C4A65195  16.325  27.534   5.972  0.3232  0.0904  0.3293
34934POPC   C1B65196  15.719  27.191   5.202  0.1018 -0.0971 -0.0444
34934POPC   C2B65197  15.754  27.474   5.508 -0.0711 -0.0335 -0.0249
34934POPC   C3B65198  15.670  27.678   5.901  0.2469 -0.0683  0.0974
34934POPC   C4B65199  15.569  27.867   6.329 -0.0258  0.0994  0.0552
34935POPC   NC365200   5.846  15.620   4.512 -0.0676 -0.1543  0.0677
34935POPC   PO465201   6.035  15.700   4.849  0.1171 -0.0710  0.2319
34935POPC   GL165202   6.326  15.570   5.165  0.0482 -0.3112 -0.1795
34935POPC   GL265203   6.212  15.310   5.119 -0.0050 -0.5673  0.2845
34935POPC   C1A65204   6.112  15.647   5.548  0.0576 -0.1312  0.1950
34935POPC   D2A65205   5.992  15.519   5.990 -0.4030 -0.0785  0.5426
34935POPC   C3A65206   6.136  15.688   6.379  0.2328 -0.2836 -0.0285
34935POPC   C4A65207   6.248  16.002   6.661 -0.3010 -0.3645 -0.2325
34935POPC   C1B65208   5.863  15.275   5.387  0.2935 -0.1361 -0.1141
34935POPC   C2B65209   5.508  15.226   5.696  0.0741  0.1933 -0.4389
34935POPC   C3B65210   5.469  15.292   6.161  0.2999  0.0682  0.0684
34935POPC   C4B65211   5.256  15.427   6.597 -0.1611 -0.1482  0.1656
34936POPC   NC365212   0.926  27.194   4.552 -0.0636 -0.1342 -0.0949
34936POPC   PO465213   0.646  27.420   4.363  0.1198 -0.2523  0.0943
34936POPC   GL165214   0.676  27.538   4.693  0.2837 -0.3306  0.1282
34936POPC   GL265215   0.468  27.469   4.864  0.0747 -0.1421  0.1617
34936POPC   C1A65216   0.908  27.411   5.074 -0.2034 -0.0400  0.1477
34936POPC   D2A65217   1.118  27.516   5.505  0.1656 -0.0296 -0.1404
34936POPC   C3A65218   1.056  27.994   5.460  0.0682 -0.1453 -0.1124
34936POPC   C4A65219   0.989  28.460   5.631  0.0165 -0.0030 -0.1580
34936POPC   C1B65220   0.436  27.596   5.239  0.0454  0.1897 -0.3231
34936POPC   C2B65221   0.291  27.569   5.652  0.4231  0.1128  0.0287
34936POPC   C3B65222   0.339  27.860   6.017 -0.1261 -0.0015  0.1240
34936POPC   C4B65223   0.639  27.802   6.375 -0.0312  0.2508 -0.1112
34937POPC   NC365224   9.506  23.365   9.914 -0.0284 -0.2240 -0.1610
34937POPC   PO465225   9.860  23.495   9.981  0.3241 -0.0914 -0.0017
34937POPC   GL165226   9.544  23.808  10.041 -0.2735 -0.0905  0.2027
34937POPC   GL265227   9.794  23.971   9.960  0.1593  0.0152 -0.1109
34937POPC   C1A65228   9.463  24.122  10.354  0.1088  0.3393 -0.0621
34937POPC   D2A65229   9.444  24.444  10.701  0.1067 -0.4169 -0.2428
34937POPC   C3A65230   9.277  24.879  10.702 -0.5524  0.1292  0.3369
34937POPC   C4A65231   8.936  25.130  10.809 -0.2302  0.0630 -0.0530
34937POPC   C1B65232  10.046  24.390   9.896  0.3997 -0.0613  0.0846
34937POPC   C2B65233   9.789  24.825   9.960  0.0820  0.2029  0.0045
34937POPC   C3B65234   9.525  25.117  10.234 -0.0919 -0.1650  0.3043
34937POPC   C4B65235   9.371  25.376  10.580 -0.1554 -0.1434 -0.0524
34938POPC   NC365236   3.113  19.636   4.756  0.3000  0.1369  0.0770
34938POPC   PO465237   3.195  19.492   5.119 -0.2336  0.2035 -0.4332
34938POPC   GL165238   2.953  19.355   5.453  0.0454 -0.4751  0.0676
34938POPC   GL265239   2.862  19.649   5.561  0.0819  0.4996 -0.2386
34938POPC   C1A65240   2.633  19.220   5.778 -0.0554 -0.0691  0.2965
34938POPC   D2A65241   2.456  19.091   6.158  0.0774  0.0301  0.2501
34938POPC   C3A65242   2.781  19.291   6.361  0.3224 -0.3009  0.1928
34938POPC   C4A65243   2.794  19.654   6.654 -0.1186  0.1079 -0.0837
34938POPC   C1B65244   3.028  19.457   6.012 -0.0846  0.0754 -0.0857
34938POPC   C2B65245   3.137  19.005   6.153  0.2883 -0.3818 -0.3096
34938POPC   C3B65246   3.183  18.547   6.030 -0.0239  0.2506 -0.0040
34938POPC   C4B65247   3.235  18.147   6.304 -0.1738 -0.0131 -0.2578
34939POPC   NC365248  13.224  25.762   5.109  0.1245  0.1552 -0.0186
34939POPC   PO465249  13.013  26.040   5.293  0.0577  0.3620  0.0586
34939POPC   GL165250  13.271  26.219   5.554  0.1792 -0.1058 -0.0391
34939POPC   GL265251  13.246  26.514   5.526  0.3833  0.2734  0.4413
34939POPC   C1A65252  13.696  26.331   5.586 -0.3015 -0.3151 -0.1384
34939POPC   D2A65253  14.002  26.403   5.937  0.2473 -0.0479  0.0126
34939POPC   C3A65254  13.763  26.619   6.256  0.0001 -0.0156 -0.0725
34939POPC   C4A65255  13.734  26.876   6.670  0.0036 -0.1172 -0.0761
34939POPC   C1B65256  13.392  26.664   5.899 -0.1612 -0.0727 -0.2792
34939POPC   C2B65257  13.371  26.876   6.320 -0.0377 -0.1780 -0.0029
34939POPC   C3B65258  13.337  27.195   6.646  0.1150 -0.3570 -0.0924
34939POPC   C4B65259  13.519  27.644   6.747 -0.0362  0.2283  0.0074
34940POPC   NC365260   3.389  28.489   4.158 -0.1269  0.1626  0.2849
34940POPC   PO465261   3.381  28.747   3.873 -0.1699 -0.2158  0.2963
34940POPC   GL165262   3.500  28.967   4.185 -0.0124  0.0157  0.1220
34940POPC   GL265263   3.639  28.819   4.413 -0.2033  0.0355  0.0075
34940POPC   C1A65264   3.225  29.091   4.550 -0.1378  0.0919  0.1219
34940POPC   D2A65265   3.152  28.910   4.995 -0.1765 -0.0379  0.2491
34940POPC   C3A65266   3.276  28.458   5.103  0.0328 -0.3304 -0.1282
34940POPC   C4A65267   3.195  28.002   5.067 -0.2054  0.0799 -0.0858
34940POPC   C1B65268   3.589  28.624   4.765 -0.1313 -0.2883 -0.2337
34940POPC   C2B65269   3.685  28.684   5.217  0.1085 -0.0020  0.1532
34940POPC   C3B65270   3.451  28.717   5.604  0.0572  0.0138  0.2174
34940POPC   C4B65271   3.306  29.041   5.940  0.1422 -0.1702 -0.1119
34941POPC   NC365272   0.111  24.285   4.940 -0.3866  0.0498 -0.1996
34941POPC   PO465273   0.078  23.977   5.125  0.1391 -0.1581  0.0626
34941POPC   GL165274  -0.207  24.054   5.495 -0.3817  0.2967 -0.2764
34941POPC   GL265275  -0.115  23.761   5.642  0.0192  0.1185 -0.3556
34941POPC   C1A65276  -0.117  24.274   5.894  0.0234 -0.0019 -0.0231
34941POPC   D2A65277  -0.218  24.429   6.296 -0.3422 -0.0681 -0.1732
34941POPC   C3A65278   0.017  24.804   6.491  0.1238  0.1078  0.0287
34941POPC   C4A65279   0.141  25.212   6.359 -0.1891  0.0064  0.2025
34941POPC   C1B65280   0.035  23.761   6.091  0.3244  0.0644 -0.2867
34941POPC   C2B65281  -0.090  23.751   6.557  0.1421  0.2385 -0.2077
34941POPC   C3B65282  -0.098  23.842   6.991  0.1335  0.1998 -0.1184
34941POPC   C4B65283  -0.228  23.895   7.410  0.0075  0.0000  0.0031
34942POPC   NC365284  15.443  18.304   4.254 -0.2069  0.1060  0.0801
34942POPC   PO465285  15.155  18.399   4.459  0.1159  0.0322 -0.1451
34942POPC   GL165286  15.336  18.243   4.759 -0.0593  0.1134 -0.0969
34942POPC   GL265287  15.612  18.156   4.709  0.1306  0.1970 -0.2410
34942POPC   C1A65288  15.089  18.026   5.131 -0.0093  0.0082 -0.0508
34942POPC   D2A65289  15.209  17.625   5.448 -0.2353 -0.3206 -0.1106
34942POPC   C3A65290  15.101  17.746   5.897 -0.1609  0.0022  0.1400
34942POPC   C4A65291  14.842  17.396   6.060  0.1233 -0.2046 -0.1147
34942POPC   C1B65292  15.581  17.935   5.111  0.1872 -0.3733  0.3132
34942POPC   C2B65293  15.669  17.929   5.561  0.0063 -0.1370 -0.0288
34942POPC   C3B65294  15.838  17.846   5.940 -0.1199  0.0125 -0.1187
34942POPC   C4B65295  15.670  17.927   6.356  0.4290  0.0402  0.0257
34943POPC   NC365296   0.363  22.477   4.961  0.2432 -0.0430 -0.1957
34943POPC   PO465297   0.724  22.293   4.994 -0.1519  0.0882  0.0190
34943POPC   GL165298   0.697  22.475   5.306 -0.2231  0.3964 -0.0909
34943POPC   GL265299   0.592  22.291   5.494 -0.2277  0.2837 -0.0113
34943POPC   C1A65300   0.817  22.762   5.649 -0.0785 -0.1339  0.0957
34943POPC   D2A65301   0.654  22.918   6.054  0.0269 -0.2780 -0.1079
34943POPC   C3A65302   0.871  22.916   6.456 -0.0679  0.0587  0.0622
34943POPC   C4A65303   1.084  22.932   6.875  0.3033 -0.0001  0.1116
34943POPC   C1B65304   0.308  22.030   5.781  0.0293 -0.0688  0.1420
34943POPC   C2B65305   0.294  21.890   6.221  0.0130  0.1778 -0.0536
34943POPC   C3B65306   0.466  21.911   6.647  0.0656 -0.1749  0.2965
34943POPC   C4B65307   0.441  21.506   6.881 -0.0466  0.2281  0.0838
34944POPC   NC365308  14.310  19.527   5.302 -0.0411  0.3072 -0.1944
34944POPC   PO465309  14.190  19.920   5.334 -0.2575  0.0691  0.0602
34944POPC   GL165310  13.943  19.851   5.612 -0.0473 -0.0989 -0.2035
34944POPC   GL265311  13.921  19.544   5.684  0.1524 -0.0751  0.3605
34944POPC   C1A65312  14.202  19.945   6.012 -0.1741  0.1191  0.2187
34944POPC   D2A65313  14.274  20.232   6.317 -0.1230 -0.0717  0.0684
34944POPC   C3A65314  14.447  20.366   6.683  0.1036  0.1048  0.1159
34944POPC   C4A65315  14.650  20.229   7.089 -0.2492 -0.0931  0.2424
34944POPC   C1B65316  14.020  19.453   6.114  0.3143 -0.0558  0.0524
34944POPC   C2B65317  13.991  19.462   6.559 -0.1534 -0.2150  0.1214
34944POPC   C3B65318  14.084  19.496   7.009  0.0703 -0.2206  0.1341
34944POPC   C4B65319  14.421  19.727   7.279 -0.0637  0.1145 -0.0368
34945POPC   NC365320  13.434  32.667   4.391  0.3664 -0.0490  0.0806
34945POPC   PO465321  13.632  33.008   4.522  0.0392 -0.0063  0.2948
34945POPC   GL165322  13.697  33.081   4.895  0.1789  0.3211  0.2802
34945POPC   GL265323  13.503  33.308   4.913  0.0080 -0.1301 -0.1795
34945POPC   C1A65324  13.822  32.740   5.145  0.1210 -0.2239  0.0304
34945POPC   D2A65325  13.745  32.677   5.602  0.3576  0.0551 -0.0653
34945POPC   C3A65326  13.600  32.729   6.068 -0.0794  0.1255  0.0623
34945POPC   C4A65327  13.833  32.651   6.446 -0.0334  0.0943  0.4959
34945POPC   C1B65328  13.461  33.113   5.302 -0.1570  0.2031 -0.0760
34945POPC   C2B65329  13.529  33.175   5.743 -0.1886  0.2107  0.2666
34945POPC   C3B65330  13.245  33.092   6.097  0.0349  0.0647  0.0841
34945POPC   C4B65331  12.942  33.067   6.427  0.0025  0.1610 -0.0591
34946POPC   NC365332  12.877  31.132   4.438 -0.1370 -0.2343 -0.2669
34946POPC   PO465333  12.835  30.744   4.264  0.0676 -0.1886 -0.0753
34946POPC   GL165334  12.832  30.551   4.624 -0.2000 -0.1771 -0.0975
34946POPC   GL265335  13.132  30.582   4.649 -0.3625  0.1581  0.3602
34946POPC   C1A65336  12.947  30.452   5.090  0.1170  0.0670 -0.2147
34946POPC   D2A65337  12.956  30.560   5.507 -0.2402  0.0026 -0.0147
34946POPC   C3A65338  12.657  30.346   5.832  0.1468  0.2343  0.0696
34946POPC   C4A65339  12.566  30.475   6.197 -0.1999 -0.2964  0.0641
34946POPC   C1B65340  13.160  30.910   4.939  0.0757  0.0296  0.1702
34946POPC   C2B65341  13.155  31.016   5.368  0.1071  0.2512  0.0343
34946POPC   C3B65342  13.230  30.857   5.790  0.1242 -0.1812 -0.3745
34946POPC   C4B65343  13.390  30.847   6.238  0.0710  0.0155  0.2000
34947POPC   NC365344   8.957  24.696   8.091  0.3330 -0.2572  0.0531
34947POPC   PO465345   9.261  24.613   8.247  0.1865  0.1262  0.2569
34947POPC   GL165346   9.112  24.791   8.566  0.2740 -0.1041 -0.2192
34947POPC   GL265347   9.454  24.874   8.637  0.0763  0.1790 -0.0024
34947POPC   C1A65348   9.065  25.136   8.874 -0.2074  0.2621 -0.1571
34947POPC   D2A65349   8.737  25.418   9.079  0.0980  0.1330 -0.0136
34947POPC   C3A65350   8.541  25.398   9.501 -0.1985 -0.0082  0.3072
34947POPC   C4A65351   8.706  25.414   9.940 -0.0929  0.1110 -0.0039
34947POPC   C1B65352   9.652  25.194   8.806 -0.0413  0.0367  0.2282
34947POPC   C2B65353   9.659  25.594   9.094 -0.2245 -0.0823 -0.1644
34947POPC   C3B65354   9.474  25.823   9.438  0.0848 -0.1145 -0.1450
34947POPC   C4B65355   9.387  25.963   9.820 -0.1123 -0.3031  0.3671
34948POPC   NC365356  12.333  16.199   4.968  0.1353 -0.0169  0.3075
34948POPC   PO465357  11.974  16.160   4.790 -0.1626 -0.1631  0.2707
34948POPC   GL165358  11.839  16.386   5.026  0.1322  0.1874  0.0959
34948POPC   GL265359  11.769  16.121   5.233 -0.0261 -0.1903  0.0879
34948POPC   C1A65360  12.142  16.432   5.393 -0.0363  0.0537 -0.1681
34948POPC   D2A65361  12.235  16.617   5.806  0.0026  0.0590  0.0535
34948POPC   C3A65362  12.588  16.798   5.960  0.0803 -0.2121  0.2148
34948POPC   C4A65363  12.722  17.256   5.825  0.1252 -0.1705 -0.1805
34948POPC   C1B65364  11.776  16.240   5.680 -0.1787  0.2317  0.1314
34948POPC   C2B65365  11.843  16.339   6.137  0.0502  0.0403 -0.0216
34948POPC   C3B65366  12.065  16.304   6.542 -0.0899  0.0160 -0.0117
34948POPC   C4B65367  12.141  16.329   6.942  0.0749 -0.1566 -0.1665
34949POPC   NC365368   6.310  24.441   6.373  0.2478 -0.1468 -0.1022
34949POPC   PO465369   6.348  24.336   6.779  0.1610 -0.1067  0.1479
34949POPC   GL165370   6.109  24.452   7.064 -0.0789 -0.0299  0.1074
34949POPC   GL265371   6.009  24.674   7.066  0.0804  0.0603  0.0774
34949POPC   C1A65372   6.151  24.598   7.510  0.0246 -0.0896 -0.1134
34949POPC   D2A65373   5.903  24.772   7.839 -0.1032 -0.3615  0.0550
34949POPC   C3A65374   5.811  24.522   8.231  0.2093 -0.0704 -0.0959
34949POPC   C4A65375   5.591  24.343   8.615  0.1647  0.1381 -0.0996
34949POPC   C1B65376   5.929  25.011   7.371 -0.1007 -0.3989  0.0959
34949POPC   C2B65377   5.670  25.223   7.654 -0.1113 -0.2646  0.0511
34949POPC   C3B65378   5.276  25.426   7.790  0.0814 -0.1701  0.1480
34949POPC   C4B65379   4.838  25.606   7.868  0.1162 -0.2901  0.1309
34950POPC   NC365380   8.071  27.751   4.947 -0.2455 -0.0815  0.4594
34950POPC   PO465381   8.192  28.069   5.164 -0.1336 -0.3548 -0.0316
34950POPC   GL165382   8.287  28.132   5.605  0.0812 -0.0320  0.3880
34950POPC   GL265383   8.026  28.287   5.667 -0.2980  0.1698  0.3941
34950POPC   C1A65384   8.077  27.957   6.028 -0.4141  0.4844  0.0538
34950POPC   D2A65385   8.038  27.488   6.039 -0.1209  0.2508 -0.5004
34950POPC   C3A65386   7.995  27.452   6.457  0.0984 -0.2223 -0.0350
34950POPC   C4A65387   7.690  27.370   6.816 -0.3564 -0.0155 -0.0407
34950POPC   C1B65388   7.980  28.396   6.130  0.0294 -0.1437  0.0398
34950POPC   C2B65389   7.768  28.625   6.450  0.1151 -0.0343 -0.1556
34950POPC   C3B65390   7.515  28.964   6.677 -0.2808  0.2929 -0.2688
34950POPC   C4B65391   7.208  29.236   6.796 -0.2698  0.1216  0.0254
34951POPC   NC365392  11.054  21.523  11.184  0.3574 -0.0181 -0.0985
34951POPC   PO465393  11.202  21.895  11.123  0.2532  0.2037  0.4081
34951POPC   GL165394  11.588  21.663  11.322  0.2354 -0.2293  0.1759
34951POPC   GL265395  11.657  21.944  11.401 -0.0233  0.0764  0.1527
34951POPC   C1A65396  11.958  21.420  11.351 -0.1349  0.4459  0.1209
34951POPC   D2A65397  12.251  21.074  11.347 -0.2169  0.0714 -0.2945
34951POPC   C3A65398  12.271  20.627  11.226 -0.1444  0.1317 -0.0373
34951POPC   C4A65399  12.210  20.361  10.824  0.2303 -0.0461 -0.0344
34951POPC   C1B65400  12.021  21.907  11.207 -0.3293 -0.0031  0.1684
34951POPC   C2B65401  12.400  22.077  11.172 -0.2181  0.0541  0.1212
34951POPC   C3B65402  12.682  22.131  11.524 -0.1022  0.0485 -0.0964
34951POPC   C4B65403  13.083  22.316  11.627 -0.3227  0.2291  0.2864
34952POPC   NC365404   2.965  25.087   5.189 -0.0857 -0.1233  0.2157
34952POPC   PO465405   3.149  25.271   4.886  0.0173 -0.1237 -0.0808
34952POPC   GL165406   3.135  25.545   5.156 -0.0159  0.3154 -0.3114
34952POPC   GL265407   3.070  25.759   4.926  0.0102  0.1262 -0.3489
34952POPC   C1A65408   2.760  25.701   5.404  0.1075  0.1432 -0.0993
34952POPC   D2A65409   2.648  25.685   5.836 -0.1463 -0.0372  0.1242
34952POPC   C3A65410   2.768  25.667   6.272  0.1090  0.1041 -0.0936
34952POPC   C4A65411   3.184  25.642   6.413  0.0413  0.1457 -0.1305
34952POPC   C1B65412   3.376  25.897   5.312 -0.5284  0.1262  0.2362
34952POPC   C2B65413   3.514  26.104   5.768  0.2022 -0.1773  0.0059
34952POPC   C3B65414   3.542  26.503   6.006 -0.1067  0.2563  0.0815
34952POPC   C4B65415   3.657  26.479   6.460 -0.0911 -0.1677 -0.2616
34953POPC   NC365416   3.589  25.830   4.837 -0.0187 -0.1530 -0.2261
34953POPC   PO465417   3.928  25.743   4.803 -0.1457  0.1034  0.2062
34953POPC   GL165418   3.955  25.936   5.161  0.1158  0.4376 -0.2606
34953POPC   GL265419   4.199  26.129   5.137  0.1315  0.0574  0.3636
34953POPC   C1A65420   3.680  26.284   5.270 -0.1561 -0.0960  0.0265
34953POPC   D2A65421   3.249  26.410   5.342 -0.1769 -0.0969  0.0954
34953POPC   C3A65422   2.988  26.179   5.592 -0.1452 -0.2742  0.2798
34953POPC   C4A65423   2.672  26.274   5.899 -0.1260  0.0762  0.0199
34953POPC   C1B65424   4.043  26.131   5.553  0.0780  0.0083 -0.1233
34953POPC   C2B65425   3.936  26.169   5.972  0.2050  0.2538 -0.0258
34953POPC   C3B65426   4.092  26.260   6.393  0.2527 -0.5909  0.0742
34953POPC   C4B65427   4.354  26.371   6.773 -0.1116  0.1013  0.0171
34954POPC   NC365428   6.995  19.267   5.891 -0.0392  0.1182  0.0202
34954POPC   PO465429   7.140  19.079   6.221  0.2729 -0.1155  0.4197
34954POPC   GL165430   7.138  18.796   6.442 -0.0745 -0.2804  0.0092
34954POPC   GL265431   7.127  18.569   6.286 -0.1230 -0.1553  0.0170
34954POPC   C1A65432   6.833  18.570   6.730  0.0986 -0.2251  0.0091
34954POPC   D2A65433   6.706  18.293   7.053 -0.0593 -0.0559 -0.2211
34954POPC   C3A65434   6.752  18.283   7.546  0.2183 -0.1125 -0.0677
34954POPC   C4A65435   6.854  18.572   7.851 -0.4079 -0.2425  0.1341
34954POPC   C1B65436   7.265  18.270   6.638  0.3371 -0.1715  0.2794
34954POPC   C2B65437   7.332  17.983   6.965 -0.1437  0.0412  0.0124
34954POPC   C3B65438   7.466  17.577   7.110  0.0323  0.0456  0.6276
34954POPC   C4B65439   7.157  17.260   7.092  0.2249 -0.0725  0.5099
34955POPC   NC365440   8.571  22.826   9.929  0.0461  0.2333 -0.1730
34955POPC   PO465441   8.850  23.004   9.725  0.3039 -0.1816  0.0322
34955POPC   GL165442   8.704  23.296  10.011 -0.0262 -0.2040  0.0498
34955POPC   GL265443   8.787  23.306  10.317 -0.1434  0.3269 -0.3053
34955POPC   C1A65444   8.591  23.742  10.079 -0.0151  0.0967  0.0963
34955POPC   D2A65445   8.311  24.092  10.142  0.2822 -0.2574  0.1635
34955POPC   C3A65446   8.426  24.504   9.938 -0.0282  0.2035 -0.0640
34955POPC   C4A65447   8.418  24.929   9.729  0.0024  0.0745  0.1492
34955POPC   C1B65448   8.514  23.644  10.532 -0.0383 -0.0552 -0.3008
34955POPC   C2B65449   8.122  23.977  10.555  0.3108 -0.0075  0.0284
34955POPC   C3B65450   7.777  24.256  10.686  0.1705 -0.1867  0.1580
34955POPC   C4B65451   7.395  24.494  10.721  0.0023  0.2643  0.4540
34956POPC   NC365452  12.942  26.907   5.407 -0.2411 -0.0065 -0.3479
34956POPC   PO465453  12.967  27.002   4.988  0.1808  0.1082 -0.0316
34956POPC   GL165454  13.120  27.268   5.228  0.1113 -0.2488 -0.0820
34956POPC   GL265455  13.489  27.192   5.282 -0.1085 -0.0212  0.1226
34956POPC   C1A65456  13.380  27.629   5.363 -0.1799 -0.3689  0.0482
34956POPC   D2A65457  13.494  28.050   5.590  0.4480 -0.1654  0.0638
34956POPC   C3A65458  13.781  28.142   5.951  0.1419 -0.1256  0.2970
34956POPC   C4A65459  14.293  28.067   5.922 -0.0735  0.1904  0.0076
34956POPC   C1B65460  13.260  27.146   5.683  0.5070  0.2021 -0.1148
34956POPC   C2B65461  13.183  27.316   6.114 -0.1331 -0.0083  0.1436
34956POPC   C3B65462  13.195  27.680   6.369 -0.1453 -0.3709  0.0168
34956POPC   C4B65463  13.329  28.089   6.268 -0.0495 -0.1326  0.1865
34957POPC   NC365464   9.967  28.526   5.440 -0.0594  0.0478 -0.2332
34957POPC   PO465465  10.327  28.329   5.473  0.0221  0.0774  0.1114
34957POPC   GL165466  10.068  28.272   5.796  0.0188  0.0440  0.0959
34957POPC   GL265467   9.915  28.058   5.794 -0.1027  0.2984  0.1056
34957POPC   C1A65468  10.223  28.507   6.183  0.0703  0.2960 -0.1121
34957POPC   D2A65469  10.290  28.552   6.648  0.0211  0.2934 -0.1029
34957POPC   C3A65470  10.663  28.470   6.893 -0.0955 -0.2625  0.1619
34957POPC   C4A65471  10.845  28.820   7.190 -0.3363  0.0907  0.0744
34957POPC   C1B65472   9.823  28.201   6.223  0.1749  0.2273  0.2101
34957POPC   C2B65473   9.762  28.414   6.608  0.1719  0.0281  0.0490
34957POPC   C3B65474   9.579  28.524   7.067  0.0468 -0.0315  0.3765
34957POPC   C4B65475   9.506  28.591   7.504  0.0050  0.0299 -0.1465
34958POPC   NC365476  10.926  23.149  11.492 -0.2335  0.0195 -0.2879
34958POPC   PO465477  11.220  22.890  11.560 -0.0893  0.1837  0.0797
34958POPC   GL165478  11.308  23.153  11.833 -0.1081 -0.4725  0.1773
34958POPC   GL265479  11.343  23.392  11.670 -0.1568 -0.1549 -0.1042
34958POPC   C1A65480  11.636  23.318  12.082 -0.3599 -0.2119 -0.3896
34958POPC   D2A65481  12.096  23.260  12.176 -0.4587 -0.2137 -0.2819
34958POPC   C3A65482  12.442  23.322  11.916  0.0362 -0.2295  0.1426
34958POPC   C4A65483  12.393  23.549  11.480  0.1208  0.0848  0.1722
34958POPC   C1B65484  11.461  23.843  11.564  0.2100  0.3019 -0.0258
34958POPC   C2B65485  11.609  24.295  11.378 -0.1724  0.0713 -0.1261
34958POPC   C3B65486  11.485  24.718  11.254  0.0716 -0.2321 -0.0987
34958POPC   C4B65487  11.241  25.056  11.097  0.2548  0.0321 -0.1453
34959POPC   NC365488  13.109  17.951   3.979 -0.0682  0.1645 -0.0181
34959POPC   PO465489  12.970  18.019   4.351  0.3290  0.1752  0.0505
34959POPC   GL165490  13.108  17.890   4.729 -0.1107  0.2866  0.1808
34959POPC   GL265491  12.903  17.685   4.838 -0.0136  0.1510 -0.1249
34959POPC   C1A65492  13.112  18.072   5.181  0.3360  0.2202  0.0329
34959POPC   D2A65493  13.015  18.154   5.627 -0.1255 -0.1860 -0.0304
34959POPC   C3A65494  13.378  18.254   5.891  0.1725 -0.1010  0.0316
34959POPC   C4A65495  13.798  18.028   5.997  0.0187 -0.1206 -0.0339
34959POPC   C1B65496  13.156  17.556   5.179  0.3221  0.1324 -0.2291
34959POPC   C2B65497  13.192  17.191   5.537  0.3154  0.1521 -0.2651
34959POPC   C3B65498  13.258  17.259   6.004 -0.0693 -0.2958  0.0311
34959POPC   C4B65499  13.349  17.240   6.476 -0.1234  0.0485 -0.4060
34960POPC   NC365500  14.197  24.803   5.148  0.0696 -0.0029 -0.0348
34960POPC   PO465501  14.385  24.577   5.431  0.1687 -0.1623  0.0917
34960POPC   GL165502  14.404  24.639   5.848  0.2125  0.3280 -0.0629
34960POPC   GL265503  14.712  24.618   5.922 -0.0823 -0.2994  0.4798
34960POPC   C1A65504  14.287  24.419   6.269 -0.0059  0.2095  0.2784
34960POPC   D2A65505  14.323  24.175   6.645 -0.3627  0.3727  0.0203
34960POPC   C3A65506  14.400  24.097   7.109 -0.3252 -0.0158  0.2062
34960POPC   C4A65507  14.386  24.114   7.561  0.1358  0.2080 -0.1704
34960POPC   C1B65508  14.752  24.879   6.326 -0.1936 -0.1049 -0.1713
34960POPC   C2B65509  15.056  25.170   6.621 -0.0779  0.1349  0.2299
34960POPC   C3B65510  15.288  25.494   6.802 -0.2210  0.1577 -0.1939
34960POPC   C4B65511  15.558  25.919   6.767 -0.0079  0.0962 -0.2706
34961POPC   NC365512   1.059  29.045   3.848  0.0002  0.2674 -0.0736
34961POPC   PO465513   1.043  29.407   3.672  0.1222  0.3619 -0.0175
34961POPC   GL165514   0.897  29.449   4.026  0.2274  0.1749 -0.1627
34961POPC   GL265515   0.998  29.708   4.206  0.1052  0.0739 -0.0908
34961POPC   C1A65516   1.100  29.220   4.401  0.2312 -0.0031  0.0989
34961POPC   D2A65517   1.140  28.933   4.757  0.1735 -0.0207  0.0149
34961POPC   C3A65518   1.310  29.195   5.129 -0.0003 -0.3291  0.0479
34961POPC   C4A65519   1.113  29.544   5.353 -0.1723 -0.0189  0.1436
34961POPC   C1B65520   1.249  30.081   4.409  0.0787  0.0135 -0.1183
34961POPC   C2B65521   1.124  30.317   4.742 -0.1434 -0.4142  0.0036
34961POPC   C3B65522   1.005  30.450   5.160  0.0963 -0.2082 -0.3126
34961POPC   C4B65523   1.196  30.568   5.578 -0.2058 -0.2720  0.0357
34962POPC   NC365524   2.198  29.108   3.926  0.1032  0.0342 -0.1191
34962POPC   PO465525   2.279  29.483   3.848  0.2307  0.0177  0.1759
34962POPC   GL165526   2.380  29.460   4.260  0.1086 -0.0829  0.1232
34962POPC   GL265527   2.245  29.766   4.341  0.0925  0.0027  0.0362
34962POPC   C1A65528   2.474  29.524   4.764  0.0212 -0.1033 -0.0448
34962POPC   D2A65529   2.672  29.663   5.139 -0.0397 -0.0195  0.1012
34962POPC   C3A65530   2.996  29.465   5.397 -0.0188  0.1590  0.3017
34962POPC   C4A65531   3.337  29.545   5.740  0.0074 -0.1091 -0.2568
34962POPC   C1B65532   1.988  29.423   4.626 -0.0296 -0.4346  0.0537
34962POPC   C2B65533   1.749  29.431   4.970 -0.2326  0.1759  0.1138
34962POPC   C3B65534   1.685  29.541   5.340  0.0773  0.0869 -0.1052
34962POPC   C4B65535   1.491  29.704   5.739  0.1919  0.1754 -0.0515
34963POPC   NC365536  10.545   1.395   5.031  0.1341 -0.1505  0.3516
34963POPC   PO465537  10.509   1.576   5.381 -0.0486  0.1436  0.2076
34963POPC   GL165538  10.377   1.275   5.563 -0.0500 -0.0808  0.0032
34963POPC   GL265539  10.167   1.352   5.768  0.2923  0.0940 -0.1082
34963POPC   C1A65540  10.567   0.966   5.864  0.4534 -0.1716  0.0817
34963POPC   D2A65541  10.386   0.596   6.090  0.1860  0.4496 -0.0512
34963POPC   C3A65542  10.345   0.229   6.438  0.0830 -0.1440  0.1187
34963POPC   C4A65543  10.456  -0.076   6.719  0.0655  0.1169  0.0553
34963POPC   C1B65544  10.169   1.109   6.182 -0.0304  0.1155  0.0713
34963POPC   C2B65545  10.160   0.729   6.503  0.1125  0.1777  0.4869
34963POPC   C3B65546  10.124   0.423   6.852 -0.0714 -0.0940  0.0900
34963POPC   C4B65547   9.913   0.083   7.037  0.0454  0.1400  0.2594
34964POPC   NC365548   6.322  25.536   5.557 -0.3858  0.0508 -0.2026
34964POPC   PO465549   5.964  25.362   5.576 -0.1195 -0.1268 -0.1363
34964POPC   GL165550   5.995  25.661   5.837  0.0480 -0.3095 -0.2415
34964POPC   GL265551   5.870  25.461   6.098 -0.1516 -0.0812  0.1075
34964POPC   C1A65552   5.707  25.992   5.996  0.0170  0.2150  0.0768
34964POPC   D2A65553   5.298  26.166   6.221  0.0430 -0.1542 -0.1565
34964POPC   C3A65554   5.219  26.313   6.650 -0.1189 -0.3217  0.3060
34964POPC   C4A65555   5.521  26.613   6.868 -0.0144 -0.2193 -0.2199
34964POPC   C1B65556   5.593  25.596   6.448  0.1996  0.0620  0.2581
34964POPC   C2B65557   5.501  25.778   6.854  0.0557  0.0916 -0.2222
34964POPC   C3B65558   5.302  26.116   7.150  0.0629  0.0376 -0.2869
34964POPC   C4B65559   5.204  26.517   7.332 -0.2218 -0.1837  0.1373
34965POPC   NC365560  10.996  22.537   8.870 -0.0824 -0.1804 -0.0149
34965POPC   PO465561  11.430  22.540   8.759  0.0094 -0.0102  0.0008
34965POPC   GL165562  11.734  22.712   8.686 -0.0788 -0.1403 -0.1903
34965POPC   GL265563  11.865  22.495   8.540 -0.0956  0.0504  0.2104
34965POPC   C1A65564  12.046  22.899   8.993 -0.0672  0.0419 -0.3099
34965POPC   D2A65565  12.414  23.034   9.276 -0.0639  0.1269  0.0307
34965POPC   C3A65566  12.709  23.340   9.143  0.1736 -0.4700  0.0143
34965POPC   C4A65567  12.715  23.782   9.111 -0.1198 -0.0709 -0.1293
34965POPC   C1B65568  12.149  22.378   8.866 -0.1211  0.1866  0.1806
34965POPC   C2B65569  12.480  22.067   9.087  0.1358 -0.1078  0.0261
34965POPC   C3B65570  12.819  21.934   9.361  0.0267 -0.3863 -0.4205
34965POPC   C4B65571  12.645  21.787   9.752 -0.2927  0.0649 -0.0129
34966POPC   NC365572   2.134  27.797   4.128 -0.0205  0.0087 -0.0249
34966POPC   PO465573   2.071  28.179   3.984 -0.1698  0.0182 -0.0390
34966POPC   GL165574   2.301  28.337   4.339 -0.0185  0.3028 -0.1711
34966POPC   GL265575   2.494  28.150   4.319  0.0031 -0.1297 -0.2709
34966POPC   C1A65576   2.390  28.168   4.831  0.3966 -0.0630  0.0765
34966POPC   D2A65577   2.660  28.225   5.154  0.0650 -0.3030  0.1565
34966POPC   C3A65578   2.836  28.619   5.289 -0.1630 -0.1890 -0.0277
34966POPC   C4A65579   3.032  28.962   5.482  0.1182  0.0153 -0.0484
34966POPC   C1B65580   2.752  28.437   4.625 -0.0339 -0.3506 -0.1386
34966POPC   C2B65581   2.540  28.674   4.906 -0.0916  0.2250  0.0041
34966POPC   C3B65582   2.236  28.500   5.189  0.1224 -0.1381  0.2746
34966POPC   C4B65583   1.914  28.592   5.518 -0.0394 -0.0962  0.0794
34967POPC   NC365584  10.015  22.788  13.332  0.0799  0.0718  0.3901
34967POPC   PO465585   9.944  22.731  12.971 -0.1355  0.2461  0.2171
34967POPC   GL165586   9.634  22.891  13.051 -0.1941  0.2776 -0.1156
34967POPC   GL265587   9.520  22.863  13.370 -0.0164  0.0365 -0.0308
34967POPC   C1A65588   9.307  23.220  13.065 -0.1572 -0.1497  0.0560
34967POPC   D2A65589   8.903  23.338  13.213 -0.1182  0.2108 -0.1790
34967POPC   C3A65590   8.784  23.775  13.111  0.0776  0.2651  0.0123
34967POPC   C4A65591   8.572  24.087  13.347 -0.0115 -0.1142  0.1782
34967POPC   C1B65592   9.345  23.271  13.557  0.3743  0.0339  0.0242
34967POPC   C2B65593   9.275  23.698  13.417  0.0210  0.3060 -0.1284
34967POPC   C3B65594   9.134  24.101  13.233  0.1299 -0.3945  0.1040
34967POPC   C4B65595   8.872  24.481  13.346 -0.0550  0.3761 -0.1180
34968POPC   NC365596   9.341  19.191   6.214  0.3596  0.1995  0.0297
34968POPC   PO465597   9.549  19.021   5.904 -0.3427 -0.0642 -0.1964
34968POPC   GL165598   9.670  18.856   6.284  0.0590 -0.2356 -0.3093
34968POPC   GL265599   9.904  18.957   6.380  0.2237  0.0117  0.0330
34968POPC   C1A65600   9.486  18.486   6.478 -0.2022  0.0439 -0.3286
34968POPC   D2A65601   9.464  18.308   6.880  0.0361 -0.1148  0.0004
34968POPC   C3A65602   9.186  17.988   6.932 -0.0380  0.2538  0.3968
34968POPC   C4A65603   8.910  17.829   7.214 -0.3395  0.0096  0.0843
34968POPC   C1B65604   9.850  18.668   6.747 -0.1746  0.1941  0.0627
34968POPC   C2B65605   9.969  18.493   7.162  0.2218 -0.0006 -0.1966
34968POPC   C3B65606   9.813  18.475   7.590  0.1272  0.0876  0.1192
34968POPC   C4B65607   9.995  18.540   8.012  0.1516  0.0488 -0.0950
34969POPC   NC365608   6.355  26.561   5.515  0.0525  0.1040 -0.0700
34969POPC   PO465609   6.612  26.866   5.606  0.1105 -0.2694  0.0027
34969POPC   GL165610   6.507  26.685   6.042  0.3481 -0.3276 -0.3629
34969POPC   GL265611   6.272  26.806   5.968 -0.1574  0.1199  0.1767
34969POPC   C1A65612   6.484  26.974   6.379 -0.0319 -0.0119  0.0097
34969POPC   D2A65613   6.235  27.206   6.685  0.1682  0.1851  0.1098
34969POPC   C3A65614   5.915  27.525   6.608 -0.1819  0.0570  0.2569
34969POPC   C4A65615   5.599  27.899   6.529 -0.1003  0.3896  0.0071
34969POPC   C1B65616   5.817  26.902   5.903 -0.1802  0.1101 -0.1195
34969POPC   C2B65617   5.408  27.101   5.904 -0.0374 -0.0159  0.1226
34969POPC   C3B65618   4.988  27.146   6.014  0.1717  0.3152  0.3937
34969POPC   C4B65619   4.574  26.936   6.026 -0.4217 -0.0059  0.0403
34970POPC   NC365620   8.753  22.725  10.979 -0.1046  0.1358  0.0231
34970POPC   PO465621   9.142  22.866  11.106  0.0024 -0.1530 -0.0476
34970POPC   GL165622   8.914  23.055  11.303  0.2573 -0.1643 -0.3323
34970POPC   GL265623   9.070  23.330  11.364  0.1411  0.0713  0.1986
34970POPC   C1A65624   8.505  23.264  11.509 -0.0726  0.0082  0.3968
34970POPC   D2A65625   8.434  23.384  11.954  0.1945 -0.1495  0.0363
34970POPC   C3A65626   8.402  23.841  11.987 -0.1092 -0.2351 -0.0256
34970POPC   C4A65627   8.576  24.224  12.054  0.6294 -0.2297  0.1376
34970POPC   C1B65628   8.878  23.546  11.715 -0.0417  0.0367  0.0693
34970POPC   C2B65629   8.963  23.453  12.156 -0.1117  0.0413  0.0835
34970POPC   C3B65630   8.976  23.290  12.576  0.0013 -0.0156 -0.1386
34970POPC   C4B65631   8.611  23.383  12.712 -0.0218  0.2397 -0.3383
34971POPC   NC365632  10.290  19.905   7.102 -0.0542 -0.1914  0.0389
34971POPC   PO465633   9.956  19.774   6.968 -0.0439  0.1755 -0.2191
34971POPC   GL165634   9.960  19.661   7.330 -0.0012 -0.0138  0.2192
34971POPC   GL265635   9.706  19.664   7.457 -0.0614  0.1380  0.1106
34971POPC   C1A65636   9.942  19.249   7.583  0.1433  0.2246 -0.2743
34971POPC   D2A65637   9.749  19.000   7.903  0.3344  0.0565  0.2610
34971POPC   C3A65638   9.428  18.674   7.835  0.0778 -0.2844 -0.2888
34971POPC   C4A65639   9.011  18.720   7.862  0.0920  0.1892 -0.1710
34971POPC   C1B65640   9.609  19.473   7.884  0.1461 -0.1187 -0.1382
34971POPC   C2B65641   9.564  19.361   8.303  0.0201 -0.1058 -0.0501
34971POPC   C3B65642   9.533  19.147   8.681  0.0550  0.0143  0.0659
34971POPC   C4B65643   9.228  18.967   8.916 -0.0490 -0.0700 -0.1111
34972POPC   NC365644  16.228  26.072   4.807  0.1604  0.0609  0.0018
34972POPC   PO465645  16.398  26.268   5.112 -0.2654  0.0406 -0.0149
34972POPC   GL165646  16.551  26.290   5.482  0.0596 -0.0489  0.1189
34972POPC   GL265647  16.796  26.095   5.472 -0.0521 -0.0083 -0.0771
34972POPC   C1A65648  16.791  26.418   5.856 -0.0109 -0.0559 -0.0624
34972POPC   D2A65649  16.844  26.658   6.192 -0.3516  0.0922 -0.0489
34972POPC   C3A65650  16.951  27.091   6.341 -0.1002 -0.0352  0.1181
34972POPC   C4A65651  16.609  27.411   6.387  0.1307 -0.0183  0.1974
34972POPC   C1B65652  17.207  26.244   5.407  0.1270 -0.1169 -0.0374
34972POPC   C2B65653  17.519  26.568   5.545 -0.0588  0.1418 -0.1079
34972POPC   C3B65654  17.685  26.770   5.925  0.1813  0.2147 -0.2675
34972POPC   C4B65655  18.029  26.740   6.278  0.0986  0.2469 -0.0610
34973POPC   NC365656   2.654  20.689   5.311 -0.3400 -0.0122 -0.0902
34973POPC   PO465657   2.877  20.952   5.423 -0.0533 -0.2668 -0.0881
34973POPC   GL165658   2.758  20.666   5.751 -0.0316 -0.1064 -0.3634
34973POPC   GL265659   2.450  20.564   5.739  0.5252 -0.2074 -0.2045
34973POPC   C1A65660   2.764  20.438   6.159  0.4747  0.0111  0.0560
34973POPC   D2A65661   2.527  20.193   6.472 -0.2775  0.1764  0.0463
34973POPC   C3A65662   2.088  20.304   6.610  0.0714  0.4316  0.0405
34973POPC   C4A65663   1.748  20.456   6.856 -0.2065  0.0174 -0.0767
34973POPC   C1B65664   2.234  20.538   6.170  0.0701  0.0158  0.1108
34973POPC   C2B65665   2.438  20.668   6.562  0.2329 -0.2251 -0.0133
34973POPC   C3B65666   2.590  20.789   6.977 -0.0466 -0.0592  0.0589
34973POPC   C4B65667   2.735  20.546   7.408 -0.0578  0.1993 -0.2973
34974POPC   NC365668  11.526  22.893  11.185  0.0770 -0.2296  0.0529
34974POPC   PO465669  11.324  23.251  11.171  0.1993 -0.2943 -0.0531
34974POPC   GL165670  11.509  23.545  11.148 -0.0609  0.1489  0.0333
34974POPC   GL265671  11.809  23.541  11.277  0.1007 -0.3164 -0.1762
34974POPC   C1A65672  11.317  23.974  10.971  0.2161 -0.0807 -0.2121
34974POPC   D2A65673  11.166  24.412  11.013 -0.2643  0.3927  0.0920
34974POPC   C3A65674  11.336  24.682  10.737 -0.1175 -0.2807 -0.1293
34974POPC   C4A65675  11.157  24.765  10.350  0.0134  0.0583 -0.0453
34974POPC   C1B65676  12.087  23.885  11.329 -0.0311 -0.0013  0.0720
34974POPC   C2B65677  12.148  24.296  11.464 -0.2032 -0.1854 -0.3289
34974POPC   C3B65678  12.244  24.465  11.928  0.2416  0.0232 -0.1922
34974POPC   C4B65679  12.327  24.852  12.146 -0.2840 -0.0436  0.0792
34975POPC   NC365680   7.052  30.759   5.035  0.1744  0.4009  0.0775
34975POPC   PO465681   6.864  31.046   4.788 -0.1990 -0.0707 -0.3787
34975POPC   GL165682   6.747  31.209   5.080  0.0771 -0.1379 -0.0643
34975POPC   GL265683   6.970  31.290   5.240 -0.0229  0.1144  0.0084
34975POPC   C1A65684   6.661  30.940   5.448 -0.2259  0.2183  0.0743
34975POPC   D2A65685   6.666  30.553   5.746 -0.0288 -0.2756  0.1043
34975POPC   C3A65686   6.574  30.481   6.132 -0.2525 -0.2925  0.0124
34975POPC   C4A65687   6.516  30.572   6.607  0.3844 -0.0250 -0.1883
34975POPC   C1B65688   7.114  30.998   5.579  0.2851 -0.0220  0.0300
34975POPC   C2B65689   7.038  30.795   6.016  0.5904  0.1671 -0.2049
34975POPC   C3B65690   6.990  30.750   6.474 -0.3107  0.1289  0.1987
34975POPC   C4B65691   6.904  30.742   6.950  0.0156 -0.1188  0.1306
34976POPC   NC365692   5.962   0.548   4.733  0.1311  0.0453  0.1614
34976POPC   PO465693   5.664   0.319   4.676  0.1096 -0.0945 -0.1219
34976POPC   GL165694   5.447   0.157   4.977 -0.3199  0.1138 -0.1290
34976POPC   GL265695   5.655  -0.038   5.071 -0.0610  0.1912  0.5375
34976POPC   C1A65696   5.379   0.359   5.405 -0.2602 -0.2171  0.5748
34976POPC   D2A65697   5.116   0.354   5.801 -0.4444  0.1723  0.1383
34976POPC   C3A65698   5.190  -0.139   5.910  0.2383 -0.3321 -0.1818
34976POPC   C4A65699   5.274  -0.416   6.217  0.3676 -0.1712  0.2794
34976POPC   C1B65700   5.599  -0.129   5.507 -0.2126 -0.1059  0.0094
34976POPC   C2B65701   5.683  -0.250   5.986  0.1074  0.1790 -0.0006
34976POPC   C3B65702   5.778  -0.533   6.355  0.0190 -0.0873  0.1278
34976POPC   C4B65703   5.618  -0.697   6.759  0.2113  0.4637  0.2213
34977POPC   NC365704  16.057  23.742   5.181  0.2742 -0.2611 -0.0211
34977POPC   PO465705  15.661  23.797   5.117 -0.1529 -0.0584 -0.4386
34977POPC   GL165706  15.725  24.005   5.491 -0.0162  0.4126  0.2340
34977POPC   GL265707  15.490  23.973   5.614 -0.1890 -0.2787 -0.1014
34977POPC   C1A65708  15.860  23.938   5.910 -0.0922  0.1809  0.1240
34977POPC   D2A65709  15.993  23.993   6.295  0.3317 -0.0256  0.0901
34977POPC   C3A65710  15.780  23.986   6.687  0.1150 -0.1485  0.1111
34977POPC   C4A65711  15.844  24.061   7.101 -0.3143  0.0164 -0.1250
34977POPC   C1B65712  15.415  23.631   5.907 -0.5305  0.2627  0.0634
34977POPC   C2B65713  15.314  23.527   6.317  0.2398  0.0026  0.1179
34977POPC   C3B65714  15.477  23.609   6.747  0.0630  0.2154 -0.3398
34977POPC   C4B65715  15.485  23.627   7.197  0.0400 -0.0017 -0.1268
34978POPC   NC365716   7.012  29.708   4.631  0.1428 -0.3479  0.2089
34978POPC   PO465717   7.375  29.853   4.713  0.2299  0.1387 -0.1413
34978POPC   GL165718   7.609  29.653   5.073  0.2558 -0.1767  0.1394
34978POPC   GL265719   7.658  29.815   5.285  0.0285 -0.0017 -0.0544
34978POPC   C1A65720   7.430  29.379   5.440  0.2388 -0.4321 -0.0238
34978POPC   D2A65721   7.319  29.185   5.837  0.0204 -0.0171  0.2613
34978POPC   C3A65722   7.396  29.314   6.265  0.4910 -0.0267  0.2037
34978POPC   C4A65723   7.500  29.600   6.597 -0.2437 -0.2774  0.1456
34978POPC   C1B65724   7.636  30.108   5.642  0.0222 -0.4247  0.0231
34978POPC   C2B65725   7.762  30.337   6.024  0.0241 -0.2256  0.1602
34978POPC   C3B65726   7.815  30.554   6.463 -0.1741  0.1775 -0.3988
34978POPC   C4B65727   7.981  30.617   6.859 -0.0239 -0.1999 -0.0824
34979POPC   NC365728  10.440  21.418   8.903  0.1103 -0.0134 -0.0444
34979POPC   PO465729  10.633  21.202   9.178  0.3939  0.0634  0.2814
34979POPC   GL165730  11.035  21.034   9.306  0.2050 -0.1945  0.2019
34979POPC   GL265731  11.199  21.313   9.185 -0.0963 -0.1894  0.2248
34979POPC   C1A65732  11.210  20.660   9.546 -0.0847  0.4557 -0.0529
34979POPC   D2A65733  11.471  20.372   9.766  0.1600  0.1204  0.2642
34979POPC   C3A65734  11.259  19.985   9.836 -0.0110  0.0208  0.1135
34979POPC   C4A65735  11.071  19.651   9.604 -0.1509  0.4611 -0.6763
34979POPC   C1B65736  11.501  21.054   9.409  0.1923  0.2340 -0.1069
34979POPC   C2B65737  11.858  20.991   9.765 -0.0221  0.0827 -0.0912
34979POPC   C3B65738  12.245  20.851   9.951 -0.1213  0.2334  0.0820
34979POPC   C4B65739  12.562  20.682   9.679  0.0527 -0.1716 -0.1356
34980POPC   NC365740   2.093  27.283   4.324 -0.0113  0.0242  0.0580
34980POPC   PO465741   1.734  27.104   4.334 -0.0951  0.2400  0.3050
34980POPC   GL165742   1.729  27.349   4.661 -0.0547  0.1392 -0.2081
34980POPC   GL265743   1.704  27.606   4.452 -0.0286  0.1022 -0.3373
34980POPC   C1A65744   1.868  27.610   5.026 -0.1796  0.0965  0.0553
34980POPC   D2A65745   2.193  27.829   5.268 -0.1632  0.1677 -0.1135
34980POPC   C3A65746   2.224  28.220   5.570  0.1165 -0.0388 -0.0134
34980POPC   C4A65747   2.366  28.646   5.690  0.0274 -0.1955  0.1222
34980POPC   C1B65748   1.480  27.973   4.681  0.4465 -0.1657  0.2326
34980POPC   C2B65749   1.393  27.901   5.113  0.0228  0.3039 -0.1274
34980POPC   C3B65750   1.734  27.971   5.478  0.1131 -0.0155 -0.0844
34980POPC   C4B65751   1.876  27.921   5.934  0.1347 -0.1652  0.1596
34981POPC   NC365752  16.255  18.163   4.108  0.1413 -0.2151  0.2369
34981POPC   PO465753  15.999  18.157   4.375  0.0499 -0.2239  0.3489
34981POPC   GL165754  16.045  18.341   4.671  0.1779  0.0411  0.1325
34981POPC   GL265755  16.223  18.253   4.846 -0.3537 -0.0477  0.2862
34981POPC   C1A65756  15.825  18.461   5.098 -0.3456 -0.0215  0.0188
34981POPC   D2A65757  15.684  18.748   5.390  0.2798  0.1582 -0.2606
34981POPC   C3A65758  15.481  18.564   5.786 -0.1971 -0.1010  0.5000
34981POPC   C4A65759  15.106  18.678   5.999  0.0989  0.1853  0.0036
34981POPC   C1B65760  16.172  17.857   5.115  0.0418 -0.0341 -0.1681
34981POPC   C2B65761  16.248  17.833   5.588  0.0362 -0.0698  0.0928
34981POPC   C3B65762  16.299  18.004   5.961  0.0127 -0.2008  0.1905
34981POPC   C4B65763  16.156  17.786   6.318 -0.0534 -0.0665  0.0323
34982POPC   NC365764   2.450  18.636   5.361  0.1606 -0.1570 -0.0910
34982POPC   PO465765   2.646  18.420   5.100 -0.1489 -0.0961  0.0806
34982POPC   GL165766   2.802  18.187   5.297  0.3433  0.3369  0.1434
34982POPC   GL265767   2.495  17.976   5.300  0.0963  0.2201 -0.1671
34982POPC   C1A65768   2.893  18.288   5.711 -0.3023 -0.1871  0.0471
34982POPC   D2A65769   2.762  18.209   6.114 -0.1369  0.0086  0.4324
34982POPC   C3A65770   2.786  18.596   6.320 -0.2782 -0.0857 -0.2091
34982POPC   C4A65771   2.865  18.915   6.637 -0.0418 -0.2277 -0.3729
34982POPC   C1B65772   2.666  17.790   5.755  0.1349  0.2265 -0.1364
34982POPC   C2B65773   2.624  17.626   6.217  0.0109  0.2285 -0.0707
34982POPC   C3B65774   2.917  17.701   6.503  0.1979 -0.2259  0.2471
34982POPC   C4B65775   3.033  18.121   6.718  0.3970  0.0807  0.0725
34983POPC   NC365776   0.869  18.775   4.932 -0.1950  0.1590 -0.1538
34983POPC   PO465777   0.560  18.959   4.752  0.2375 -0.1067 -0.0718
34983POPC   GL165778   0.412  18.916   5.138 -0.1952  0.1867 -0.0900
34983POPC   GL265779   0.512  18.672   5.246  0.3047 -0.0150  0.0526
34983POPC   C1A65780   0.248  19.218   5.514 -0.0548  0.0005  0.2491
34983POPC   D2A65781   0.070  19.112   5.919 -0.1778  0.0198  0.0444
34983POPC   C3A65782   0.102  18.637   6.087 -0.0658  0.3095  0.3772
34983POPC   C4A65783   0.097  18.302   6.438 -0.1256  0.1001  0.1222
34983POPC   C1B65784   0.517  18.798   5.680 -0.2244  0.0972  0.0297
34983POPC   C2B65785   0.535  19.011   6.104  0.0869 -0.0464  0.4251
34983POPC   C3B65786   0.226  18.987   6.448  0.1251 -0.0888  0.3439
34983POPC   C4B65787  -0.113  18.717   6.658  0.1328 -0.2477 -0.0711
34984POPC   NC365788  14.055  29.667   4.474  0.0691  0.0974  0.0830
34984POPC   PO465789  13.787  29.951   4.509 -0.2003 -0.4002 -0.2136
34984POPC   GL165790  13.963  30.224   4.785  0.3701 -0.2885  0.2329
34984POPC   GL265791  14.267  30.039   4.773 -0.0644  0.1494  0.0428
34984POPC   C1A65792  13.963  30.259   5.247 -0.1156 -0.3048 -0.0196
34984POPC   D2A65793  13.918  30.243   5.694  0.1574 -0.2300  0.0218
34984POPC   C3A65794  14.127  29.887   5.991  0.0522 -0.0011  0.1795
34984POPC   C4A65795  14.447  29.725   6.224 -0.2221  0.0701  0.0504
34984POPC   C1B65796  14.454  30.063   5.175  0.0320  0.0318 -0.3619
34984POPC   C2B65797  14.488  30.216   5.628  0.1767  0.3004 -0.1677
34984POPC   C3B65798  14.659  30.226   6.035  0.2914  0.0354  0.1089
34984POPC   C4B65799  14.595  30.511   6.414 -0.0397 -0.1028  0.0832
34985POPC   NC365800   6.183  17.611   5.683  0.0072 -0.0488 -0.1828
34985POPC   PO465801   6.026  17.891   5.421 -0.1013 -0.1138 -0.0688
34985POPC   GL165802   5.765  17.962   5.694 -0.0673 -0.2689  0.2127
34985POPC   GL265803   5.917  18.111   5.894 -0.1431 -0.3190 -0.1120
34985POPC   C1A65804   5.710  17.654   6.007  0.1166 -0.0013 -0.1014
34985POPC   D2A65805   5.216  17.621   6.133  0.0139 -0.0358 -0.3050
34985POPC   C3A65806   5.033  17.528   6.492 -0.0207 -0.2148  0.1562
34985POPC   C4A65807   4.904  17.268   6.860 -0.2356 -0.0556  0.0045
34985POPC   C1B65808   5.580  18.090   6.164 -0.0141 -0.2291 -0.0974
34985POPC   C2B65809   5.511  17.834   6.559 -0.1973  0.1012  0.2581
34985POPC   C3B65810   5.383  17.563   6.877  0.1776  0.4182  0.0812
34985POPC   C4B65811   5.617  17.301   7.176 -0.0439 -0.1519  0.3050
34986POPC   NC365812  10.297  28.790   5.196  0.1803 -0.2723 -0.0231
34986POPC   PO465813   9.979  28.871   4.961 -0.0683  0.0114  0.2823
34986POPC   GL165814   9.943  29.207   5.206  0.1052  0.0063 -0.0250
34986POPC   GL265815   9.806  28.981   5.400  0.1006 -0.1311  0.2271
34986POPC   C1A65816   9.646  29.397   5.544 -0.2095  0.1276  0.1185
34986POPC   D2A65817   9.277  29.448   5.775 -0.1153  0.5573  0.5396
34986POPC   C3A65818   9.168  29.297   6.184 -0.1153  0.1675  0.1014
34986POPC   C4A65819   9.434  29.010   6.509 -0.1489  0.1393  0.0174
34986POPC   C1B65820   9.936  28.912   5.812  0.1072  0.3808  0.0839
34986POPC   C2B65821   9.851  28.771   6.242  0.3764  0.0645 -0.2042
34986POPC   C3B65822   9.921  28.893   6.697  0.0380 -0.1192 -0.2952
34986POPC   C4B65823  10.335  28.984   6.882  0.2813 -0.1219 -0.1944
34987POPC   NC365824   1.617  25.146   4.735 -0.0642  0.2601 -0.2650
34987POPC   PO465825   1.845  25.460   4.706 -0.0897  0.1407 -0.0027
34987POPC   GL165826   2.089  25.440   5.009  0.3556  0.2925  0.2757
34987POPC   GL265827   1.862  25.382   5.230 -0.1676  0.1455 -0.0170
34987POPC   C1A65828   2.405  25.255   5.311 -0.2531 -0.1045 -0.0931
34987POPC   D2A65829   2.658  25.203   5.660  0.2707  0.0428 -0.1745
34987POPC   C3A65830   2.958  24.921   5.700  0.0308  0.0271 -0.0149
34987POPC   C4A65831   3.457  24.727   5.759  0.0274  0.3241 -0.0776
34987POPC   C1B65832   1.637  25.426   5.652  0.0147 -0.2257 -0.2623
34987POPC   C2B65833   1.744  25.403   6.144  0.1229 -0.0103 -0.1855
34987POPC   C3B65834   2.085  25.577   6.471  0.1035  0.0708 -0.1317
34987POPC   C4B65835   2.364  25.887   6.592  0.0250 -0.0495  0.0380
34988POPC   NC365836   8.861  22.981  11.772 -0.0169  0.0409 -0.0002
34988POPC   PO465837   8.975  22.677  11.549  0.0990  0.3747 -0.1786
34988POPC   GL165838   8.540  22.625  11.458  0.2583  0.2054 -0.1195
34988POPC   GL265839   8.491  22.350  11.516 -0.1511  0.1715 -0.0176
34988POPC   C1A65840   8.101  22.579  11.260 -0.1847  0.1171 -0.2938
34988POPC   D2A65841   7.678  22.478  11.046 -0.0627  0.2254 -0.4274
34988POPC   C3A65842   7.504  22.160  11.282  0.3968  0.4555  0.4439
34988POPC   C4A65843   7.297  22.095  11.717 -0.1874  0.1167 -0.0630
34988POPC   C1B65844   8.127  22.411  11.814  0.0745 -0.0704 -0.3258
34988POPC   C2B65845   7.706  22.482  11.671  0.0199 -0.1468 -0.4341
34988POPC   C3B65846   7.427  22.828  11.595  0.2311  0.0834  0.0766
34988POPC   C4B65847   7.448  23.289  11.539  0.0554 -0.0107  0.2485
34989POPC   NC365848  13.431  23.953   6.162  0.1849 -0.2776  0.1353
34989POPC   PO465849  13.248  24.272   6.265 -0.1246  0.1672 -0.1521
34989POPC   GL165850  13.417  24.566   6.436  0.1454  0.3101  0.2580
34989POPC   GL265851  13.406  24.802   6.282  0.3064  0.0343 -0.0576
34989POPC   C1A65852  13.332  24.735   6.839  0.0850 -0.1469  0.1123
34989POPC   D2A65853  13.182  24.656   7.243  0.0419 -0.1207  0.0838
34989POPC   C3A65854  13.482  24.534   7.538  0.1996  0.0648 -0.4911
34989POPC   C4A65855  13.809  24.487   7.806 -0.2815 -0.1165 -0.0788
34989POPC   C1B65856  13.691  24.989   6.574 -0.0081 -0.3321 -0.1069
34989POPC   C2B65857  13.742  25.282   6.909 -0.0250 -0.1103 -0.0748
34989POPC   C3B65858  13.909  25.490   7.250  0.2805  0.1156 -0.0584
34989POPC   C4B65859  14.160  25.806   7.449 -0.0009  0.0556  0.0553
34990POPC   NC365860   6.148  29.746   4.356  0.1500 -0.1345 -0.1793
34990POPC   PO465861   6.537  29.661   4.429 -0.0971 -0.0811 -0.0097
34990POPC   GL165862   6.503  29.731   4.836 -0.1614 -0.1173  0.0749
34990POPC   GL265863   6.500  30.047   4.740  0.0789 -0.0038  0.2430
34990POPC   C1A65864   6.663  29.763   5.260 -0.0948  0.0627  0.2430
34990POPC   D2A65865   6.743  29.549   5.706 -0.0112 -0.1998 -0.0084
34990POPC   C3A65866   6.907  29.344   6.123 -0.2858  0.1740  0.3529
34990POPC   C4A65867   6.932  29.064   6.446  0.0940 -0.0526  0.1300
34990POPC   C1B65868   6.356  30.234   5.152  0.0047 -0.0851  0.2816
34990POPC   C2B65869   6.281  30.153   5.596 -0.0753 -0.2752  0.0616
34990POPC   C3B65870   6.150  30.089   6.014 -0.1198  0.0180  0.2632
34990POPC   C4B65871   6.190  30.074   6.424 -0.0642 -0.0340 -0.3050
34991POPC   NC365872   6.156  21.473   6.472 -0.0930 -0.0007  0.1199
34991POPC   PO465873   6.261  21.797   6.667  0.1848 -0.0028  0.2837
34991POPC   GL165874   6.099  21.473   6.957  0.0178  0.3662 -0.4334
34991POPC   GL265875   6.056  21.702   7.132 -0.3234  0.2654 -0.1429
34991POPC   C1A65876   5.714  21.398   7.224  0.0841 -0.0046  0.0817
34991POPC   D2A65877   5.572  21.169   7.538  0.0270  0.2878 -0.2273
34991POPC   C3A65878   5.210  20.916   7.495 -0.0074 -0.0009 -0.3763
34991POPC   C4A65879   4.779  20.772   7.514 -0.0371 -0.3064  0.1649
34991POPC   C1B65880   5.637  21.875   7.321 -0.1986 -0.1479  0.1971
34991POPC   C2B65881   5.331  21.792   7.669 -0.0179 -0.0197 -0.1400
34991POPC   C3B65882   5.167  21.737   8.119 -0.1805  0.2452  0.0675
34991POPC   C4B65883   5.184  21.598   8.562 -0.6202 -0.3287 -0.0222
34992POPC   NC365884  10.062  19.037   5.900 -0.0417  0.0222 -0.0799
34992POPC   PO465885  10.384  18.885   5.799 -0.0570  0.1040  0.0243
34992POPC   GL165886  10.471  18.617   6.027 -0.1308  0.1603  0.2008
34992POPC   GL265887  10.402  18.722   6.319  0.3632 -0.1664  0.0894
34992POPC   C1A65888  10.768  18.234   6.132 -0.0223 -0.1220  0.2804
34992POPC   D2A65889  11.217  18.081   6.185 -0.0161 -0.1430  0.0830
34992POPC   C3A65890  11.521  17.975   6.483 -0.2241 -0.1206 -0.2129
34992POPC   C4A65891  11.742  17.613   6.575 -0.0941  0.1406  0.1073
34992POPC   C1B65892  10.524  18.349   6.564  0.2660  0.0423 -0.2946
34992POPC   C2B65893  10.836  18.076   6.798 -0.0033 -0.0130  0.2489
34992POPC   C3B65894  11.185  17.785   6.872  0.1143  0.1235 -0.2500
34992POPC   C4B65895  11.496  17.421   6.989 -0.1163 -0.2656  0.1072
34993POPC   NC365896   3.837  27.862   4.191  0.3112 -0.0341  0.1536
34993POPC   PO465897   4.014  27.471   4.281  0.0874 -0.0953 -0.2546
34993POPC   GL165898   4.011  27.646   4.673  0.4578 -0.2316 -0.1482
34993POPC   GL265899   3.780  27.691   4.817  0.0335  0.1664 -0.4068
34993POPC   C1A65900   4.230  27.992   4.986 -0.0662  0.2402  0.1139
34993POPC   D2A65901   4.383  28.235   5.393  0.1615 -0.1286  0.0680
34993POPC   C3A65902   4.008  28.371   5.704 -0.1335 -0.0724 -0.2138
34993POPC   C4A65903   3.672  28.348   5.969  0.0301 -0.2731 -0.0505
34993POPC   C1B65904   3.588  27.646   5.235 -0.0444  0.1842  0.1463
34993POPC   C2B65905   3.225  27.684   5.568  0.4110  0.0326  0.0163
34993POPC   C3B65906   2.919  27.662   5.925 -0.2699 -0.0705  0.3467
34993POPC   C4B65907   2.891  28.065   6.287 -0.2672  0.0683 -0.3171
34994POPC   NC365908   6.537  19.627   6.610 -0.1616 -0.1165  0.1087
34994POPC   PO465909   6.141  19.638   6.623 -0.0956 -0.0370  0.0871
34994POPC   GL165910   5.907  19.661   6.887  0.1929 -0.1619 -0.0463
34994POPC   GL265911   6.042  19.373   7.017  0.0581 -0.2419 -0.1420
34994POPC   C1A65912   5.668  19.977   7.173 -0.2345  0.1562  0.0250
34994POPC   D2A65913   5.304  20.159   7.416  0.1383 -0.1579 -0.0003
34994POPC   C3A65914   5.450  20.336   7.831 -0.0600 -0.0501 -0.1205
34994POPC   C4A65915   5.622  20.146   8.218 -0.0869 -0.1547  0.2673
34994POPC   C1B65916   5.603  19.219   7.074  0.2186 -0.1882  0.2805
34994POPC   C2B65917   5.232  19.169   7.228  0.0248  0.2638 -0.0642
34994POPC   C3B65918   4.867  19.238   7.488  0.0417 -0.3219  0.0793
34994POPC   C4B65919   4.714  18.886   7.789  0.0911  0.2903  0.0321
34995POPC   NC365920  15.077  28.782   4.375  0.3370  0.0698  0.2163
34995POPC   PO465921  15.219  29.127   4.243 -0.0829 -0.2297 -0.0937
34995POPC   GL165922  15.441  29.143   4.555  0.2156  0.1111  0.4381
34995POPC   GL265923  15.591  29.332   4.689 -0.0988  0.0394 -0.2854
34995POPC   C1A65924  15.848  28.906   4.677  0.0176 -0.1406  0.0436
34995POPC   D2A65925  16.056  28.625   4.958  0.1181 -0.0641 -0.3408
34995POPC   C3A65926  15.731  28.409   5.216  0.1140  0.2643 -0.1556
34995POPC   C4A65927  15.683  28.027   5.439 -0.3183  0.0343 -0.0464
34995POPC   C1B65928  15.633  29.323   5.148  0.0222 -0.0188 -0.2234
34995POPC   C2B65929  15.453  29.416   5.593 -0.0452  0.0821  0.1414
34995POPC   C3B65930  15.355  29.229   5.991  0.2235 -0.0091 -0.1225
34995POPC   C4B65931  15.151  29.000   6.315 -0.0667  0.3531  0.1428
34996POPC   NC365932   7.639  22.036   8.230  0.1760 -0.1762 -0.2189
34996POPC   PO465933   7.765  22.385   8.332  0.0819 -0.2279 -0.0943
34996POPC   GL165934   7.408  22.585   8.415  0.4826  0.2540 -0.0047
34996POPC   GL265935   7.327  22.497   8.672  0.0910 -0.2474 -0.1180
34996POPC   C1A65936   7.015  22.373   8.274  0.3045 -0.4883  0.1621
34996POPC   D2A65937   6.539  22.209   8.166 -0.4585 -0.1378 -0.0689
34996POPC   C3A65938   6.094  22.181   8.276  0.0856  0.0518  0.0323
34996POPC   C4A65939   5.674  22.027   8.308  0.0309  0.3419  0.0116
34996POPC   C1B65940   7.162  22.605   9.076  0.4569 -0.1189  0.0953
34996POPC   C2B65941   6.941  22.765   9.506  0.0123  0.1651 -0.0176
34996POPC   C3B65942   6.624  23.097   9.494 -0.1952  0.2450  0.0611
34996POPC   C4B65943   6.168  23.243   9.376 -0.0773 -0.1344  0.1707
34997POPC   NC365944  13.042  22.966   6.308  0.2674 -0.2293 -0.3430
34997POPC   PO465945  13.421  22.999   6.343  0.0026  0.1846  0.1810
34997POPC   GL165946  13.505  23.042   6.720  0.0801  0.1336  0.1441
34997POPC   GL265947  13.465  22.974   7.016 -0.2517  0.0138  0.1772
34997POPC   C1A65948  13.768  23.356   6.990 -0.3424 -0.1247 -0.1572
34997POPC   D2A65949  14.110  23.351   7.298  0.0110 -0.1788  0.3879
34997POPC   C3A65950  14.442  23.122   7.579  0.1448 -0.3837  0.3536
34997POPC   C4A65951  14.786  23.052   7.829 -0.1622 -0.0450  0.0250
34997POPC   C1B65952  13.737  22.991   7.401  0.0288  0.3049 -0.1379
34997POPC   C2B65953  14.012  23.144   7.760 -0.1035  0.1790 -0.3978
34997POPC   C3B65954  14.341  23.285   8.074  0.0286  0.0445 -0.0305
34997POPC   C4B65955  14.289  23.328   8.520 -0.0843 -0.0007 -0.2285
34998POPC   NC365956   4.633  22.888   5.954 -0.1394 -0.2621 -0.2077
34998POPC   PO465957   4.223  22.878   5.929  0.0919 -0.1629  0.0226
34998POPC   GL165958   3.974  23.124   6.100 -0.2243  0.3294  0.0416
34998POPC   GL265959   3.681  22.985   6.032  0.2238 -0.0344 -0.2678
34998POPC   C1A65960   3.646  23.185   6.458  0.0234 -0.1175 -0.1609
34998POPC   D2A65961   3.254  23.399   6.658  0.0155  0.2538 -0.1802
34998POPC   C3A65962   2.768  23.422   6.661 -0.2166  0.0348 -0.1214
34998POPC   C4A65963   2.434  23.368   6.963 -0.2373  0.2596  0.2323
34998POPC   C1B65964   3.434  22.779   6.352  0.0950 -0.0876 -0.2107
34998POPC   C2B65965   3.383  22.432   6.732 -0.1458 -0.2698 -0.4834
34998POPC   C3B65966   3.279  22.230   7.165  0.3132 -0.0451 -0.2106
34998POPC   C4B65967   3.237  22.177   7.624  0.0395  0.4215 -0.2029
34999POPC   NC365968   0.921  20.368   5.006  0.1537  0.2656 -0.2640
34999POPC   PO465969   1.258  20.571   4.894 -0.1664  0.2838  0.1324
34999POPC   GL165970   1.273  20.739   5.294  0.2693  0.3520  0.0290
34999POPC   GL265971   1.499  20.667   5.455 -0.0725 -0.0101  0.0377
34999POPC   C1A65972   1.113  21.014   5.629  0.0063  0.3203  0.2983
34999POPC   D2A65973   1.037  21.266   6.021  0.1102 -0.2529 -0.1382
34999POPC   C3A65974   1.092  20.885   6.273  0.2907 -0.0097 -0.0685
34999POPC   C4A65975   0.970  20.652   6.640 -0.0652 -0.3284 -0.0097
34999POPC   C1B65976   1.388  20.617   5.903  0.0429 -0.1523 -0.0809
34999POPC   C2B65977   1.249  20.407   6.241  0.1162 -0.0385  0.0582
34999POPC   C3B65978   0.843  20.253   6.319 -0.2139 -0.0765 -0.0949
34999POPC   C4B65979   0.677  19.804   6.467  0.0599  0.2113 -0.0256
35000POPC   NC365980  12.673  21.482   6.909 -0.0539  0.1541  0.0859
35000POPC   PO465981  12.507  21.837   6.895 -0.1244  0.4397  0.0056
35000POPC   GL165982  12.931  21.950   6.981  0.3233  0.0465 -0.0112
35000POPC   GL265983  13.025  21.737   7.176 -0.2550  0.3107 -0.3448
35000POPC   C1A65984  13.087  22.274   7.281  0.3734 -0.2014 -0.4205
35000POPC   D2A65985  13.167  22.710   7.308  0.0956  0.0124  0.2554
35000POPC   C3A65986  13.301  22.936   7.709  0.1972 -0.0072  0.0179
35000POPC   C4A65987  13.506  23.162   8.047  0.3026 -0.0758 -0.2129
35000POPC   C1B65988  13.390  21.578   7.380 -0.2541 -0.0088 -0.0150
35000POPC   C2B65989  13.832  21.544   7.353  0.1412  0.0063  0.2125
35000POPC   C3B65990  14.031  21.449   7.745  0.1068 -0.0013  0.2047
35000POPC   C4B65991  14.235  21.108   8.055 -0.0097 -0.0961 -0.2927
35001POPC   NC365992   8.235  26.624   5.948 -0.0438 -0.0216 -0.3673
35001POPC   PO465993   7.965  26.923   5.925  0.1711  0.1240  0.0336
35001POPC   GL165994   7.886  26.997   6.331  0.1393  0.1370 -0.0595
35001POPC   GL265995   7.637  27.177   6.361 -0.0040  0.1140  0.2207
35001POPC   C1A65996   7.956  26.975   6.801 -0.0959 -0.0130 -0.0101
35001POPC   D2A65997   7.902  27.063   7.207 -0.0551 -0.2416  0.2432
35001POPC   C3A65998   7.544  27.064   7.527  0.0124  0.0698 -0.1563
35001POPC   C4A65999   7.137  27.221   7.756  0.2228  0.1822  0.0837
35001POPC   C1B66000   7.327  27.486   6.459  0.2398  0.1807 -0.3449
35001POPC   C2B66001   7.194  27.580   6.906  0.1149  0.0921 -0.0064
35001POPC   C3B66002   6.890  27.844   7.086  0.2740 -0.4705  0.0714
35001POPC   C4B66003   6.451  27.987   7.113  0.0369 -0.1803 -0.1252
35002POPC   NC366004  14.007  22.326   5.043 -0.0347 -0.1563  0.3480
35002POPC   PO466005  14.105  22.041   5.331 -0.0646 -0.1044  0.2894
35002POPC   GL166006  14.549  21.991   5.483  0.3468 -0.2579 -0.1238
35002POPC   GL266007  14.643  22.260   5.513  0.3563  0.0060 -0.2014
35002POPC   C1A66008  14.776  21.879   5.904 -0.0826 -0.1047  0.0321
35002POPC   D2A66009  15.107  21.696   6.143  0.1766 -0.2037 -0.0457
35002POPC   C3A66010  15.001  21.406   6.481 -0.2039  0.2004 -0.1498
35002POPC   C4A66011  14.820  21.124   6.789 -0.1168  0.2394  0.1434
35002POPC   C1B66012  14.867  22.397   5.922  0.2045  0.2914  0.0447
35002POPC   C2B66013  14.906  22.633   6.301  0.3607  0.1025  0.0028
35002POPC   C3B66014  14.853  22.795   6.715 -0.0085  0.1000  0.2632
35002POPC   C4B66015  14.667  22.685   7.145  0.1599  0.0733 -0.2781
35003POPC   NC366016   5.369  28.999   4.477 -0.2165  0.3158  0.1735
35003POPC   PO466017   5.085  28.987   4.712 -0.3155 -0.0388 -0.4361
35003POPC   GL166018   5.057  28.675   5.081  0.3102 -0.0229  0.2492
35003POPC   GL266019   4.783  28.760   5.176 -0.0557 -0.0458 -0.0712
35003POPC   C1A66020   4.980  28.546   5.556  0.0975 -0.0105 -0.1058
35003POPC   D2A66021   4.948  28.794   5.947  0.0357 -0.3239  0.0349
35003POPC   C3A66022   5.170  29.093   6.228 -0.0214 -0.2683 -0.2313
35003POPC   C4A66023   5.464  28.996   6.553 -0.0237  0.0104 -0.2317
35003POPC   C1B66024   4.748  29.074   5.471  0.0103 -0.1769 -0.2207
35003POPC   C2B66025   4.654  29.324   5.856 -0.0123  0.1782 -0.0490
35003POPC   C3B66026   4.630  29.119   6.255 -0.0712 -0.0475 -0.2066
35003POPC   C4B66027   4.520  28.832   6.606 -0.0041 -0.3436  0.1116
35004POPC   NC366028   4.270  17.572   4.963 -0.1325 -0.0754 -0.1015
35004POPC   PO466029   4.040  17.896   4.894 -0.1070 -0.2861 -0.4643
35004POPC   GL166030   3.991  17.754   5.310 -0.3408 -0.3157  0.4832
35004POPC   GL266031   4.080  17.502   5.461 -0.0726  0.3461  0.2583
35004POPC   C1A66032   4.039  17.941   5.730  0.3216  0.0455 -0.1590
35004POPC   D2A66033   3.913  18.282   5.999  0.2722 -0.0300  0.1449
35004POPC   C3A66034   3.701  18.283   6.448  0.0377 -0.0881 -0.2658
35004POPC   C4A66035   3.823  18.321   6.866 -0.3773  0.0127  0.1526
35004POPC   C1B66036   3.960  17.089   5.700 -0.1308 -0.1179 -0.3653
35004POPC   C2B66037   3.920  16.981   6.141  0.1723 -0.1156 -0.2118
35004POPC   C3B66038   3.848  16.660   6.449  0.3544 -0.1583  0.0516
35004POPC   C4B66039   4.056  16.654   6.850  0.2416  0.1229 -0.0823
35005POPC   NC366040   2.501  29.973   3.914  0.0597 -0.0738 -0.0378
35005POPC   PO466041   2.895  29.893   3.963 -0.0405 -0.2309  0.1292
35005POPC   GL166042   2.701  29.815   4.266 -0.0553  0.4165 -0.0576
35005POPC   GL266043   2.874  29.560   4.451 -0.0722 -0.0726  0.1272
35005POPC   C1A66044   2.598  30.000   4.674  0.0840 -0.1048  0.0914
35005POPC   D2A66045   2.488  30.141   5.110 -0.0145 -0.4144 -0.0754
35005POPC   C3A66046   2.439  29.937   5.519  0.0001 -0.3296 -0.1972
35005POPC   C4A66047   2.050  29.728   5.645 -0.3723 -0.0279 -0.2293
35005POPC   C1B66048   3.032  29.508   4.872 -0.0060  0.2886 -0.0645
35005POPC   C2B66049   3.389  29.331   5.143  0.1101  0.1627 -0.0768
35005POPC   C3B66050   3.644  29.158   5.481  0.0984 -0.2438 -0.0327
35005POPC   C4B66051   3.790  28.882   5.860 -0.2669 -0.2854  0.3910
35006POPC   NC366052   1.053  21.595   4.635  0.1615  0.0227  0.2861
35006POPC   PO466053   1.020  21.479   5.003 -0.2644 -0.1175 -0.0044
35006POPC   GL166054   0.821  21.289   5.389  0.0840  0.1944  0.4433
35006POPC   GL266055   0.849  21.523   5.555 -0.4294  0.0091  0.2720
35006POPC   C1A66056   0.638  21.088   5.772  0.0704  0.0945 -0.0533
35006POPC   D2A66057   0.208  20.906   5.898 -0.0468  0.0164  0.0253
35006POPC   C3A66058   0.347  20.475   5.962 -0.1105  0.3561 -0.1793
35006POPC   C4A66059   0.290  20.026   6.209 -0.0843 -0.2075  0.2349
35006POPC   C1B66060   0.866  21.865   5.852 -0.3120 -0.2211 -0.1102
35006POPC   C2B66061   0.802  22.031   6.304  0.1352 -0.1233 -0.2344
35006POPC   C3B66062   0.789  22.289   6.701  0.1421  0.1937 -0.2126
35006POPC   C4B66063   1.047  22.448   7.059  0.2828 -0.1816  0.2417
35007POPC   NC366064   4.893  21.840   5.980 -0.0593 -0.0138 -0.0805
35007POPC   PO466065   4.649  21.482   5.954 -0.0101  0.1460  0.0393
35007POPC   GL166066   4.425  21.717   6.237 -0.3178 -0.1253 -0.1810
35007POPC   GL266067   4.500  21.963   6.254  0.0084  0.0798 -0.2695
35007POPC   C1A66068   4.077  21.741   6.489  0.1738  0.3341  0.2854
35007POPC   D2A66069   3.970  21.581   6.929 -0.1042  0.0260  0.1166
35007POPC   C3A66070   4.230  21.526   7.278  0.1330 -0.1030 -0.0413
35007POPC   C4A66071   4.620  21.298   7.384  0.4890 -0.0855 -0.0746
35007POPC   C1B66072   4.462  21.879   6.733 -0.1106  0.0835  0.3364
35007POPC   C2B66073   4.676  21.834   7.136 -0.0784  0.0162  0.0277
35007POPC   C3B66074   4.790  21.754   7.588 -0.2589 -0.3654 -0.0636
35007POPC   C4B66075   4.701  21.404   7.849  0.0830  0.0621  0.0107
35008POPC   NC366076  13.954  27.643   4.416  0.0784 -0.2234  0.1741
35008POPC   PO466077  14.321  27.541   4.333  0.0551  0.0879  0.0355
35008POPC   GL166078  14.323  27.639   4.751 -0.2858  0.0476 -0.3797
35008POPC   GL266079  14.590  27.766   4.758 -0.1959 -0.0351 -0.1287
35008POPC   C1A66080  14.380  27.573   5.185  0.2791  0.4156  0.1398
35008POPC   D2A66081  14.682  27.643   5.524  0.0851 -0.0585 -0.2463
35008POPC   C3A66082  14.678  27.660   6.012  0.2426 -0.0969 -0.0620
35008POPC   C4A66083  14.635  27.916   6.350  0.2380 -0.2905 -0.0237
35008POPC   C1B66084  14.907  27.859   5.123 -0.1064  0.0871 -0.1126
35008POPC   C2B66085  15.242  28.175   5.201 -0.0941  0.2234  0.1646
35008POPC   C3B66086  15.332  28.423   5.531  0.1679 -0.1649 -0.0113
35008POPC   C4B66087  15.327  28.246   5.928  0.1080 -0.0588 -0.2871
35009POPC   NC366088  14.628  27.247   4.856 -0.1464 -0.0517  0.1048
35009POPC   PO466089  14.878  27.375   4.584  0.3995  0.1876  0.2230
35009POPC   GL166090  15.166  27.336   4.874 -0.2518  0.2337 -0.0290
35009POPC   GL266091  15.434  27.412   4.718 -0.1003  0.0723 -0.2450
35009POPC   C1A66092  15.076  27.309   5.312  0.1106  0.0635 -0.2530
35009POPC   D2A66093  15.073  27.385   5.819  0.0902 -0.0167 -0.0618
35009POPC   C3A66094  15.150  27.796   6.020 -0.1924  0.0372  0.3243
35009POPC   C4A66095  15.116  28.015   6.342 -0.2256  0.0775 -0.0263
35009POPC   C1B66096  15.397  27.634   5.160  0.1540  0.1785  0.1178
35009POPC   C2B66097  15.209  27.814   5.528 -0.0784 -0.0301  0.1933
35009POPC   C3B66098  14.928  28.102   5.731  0.0519  0.2109  0.1393
35009POPC   C4B66099  14.816  28.313   6.063  0.0137 -0.1767 -0.0083
35010POPC   NC366100   7.048  30.649   4.509  0.1368 -0.1171 -0.1001
35010POPC   PO466101   6.900  30.293   4.556 -0.1113  0.1990  0.2086
35010POPC   GL166102   7.186  30.249   4.749 -0.2474  0.0690 -0.0807
35010POPC   GL266103   6.947  30.108   5.011 -0.0970 -0.0584  0.2000
35010POPC   C1A66104   7.396  30.286   5.175  0.1328  0.0756 -0.0574
35010POPC   D2A66105   7.198  30.489   5.531  0.0583  0.1706 -0.1869
35010POPC   C3A66106   7.204  30.289   5.987 -0.1349 -0.2279  0.1744
35010POPC   C4A66107   7.334  30.371   6.399 -0.0104 -0.4024 -0.0055
35010POPC   C1B66108   6.818  30.149   5.468  0.2538 -0.2577 -0.1306
35010POPC   C2B66109   6.760  30.024   5.876  0.0118 -0.0306 -0.2364
35010POPC   C3B66110   6.740  30.106   6.335  0.0729 -0.0891 -0.0286
35010POPC   C4B66111   6.553  30.011   6.782  0.0867 -0.1804 -0.1355
35011POPC   NC366112   0.910  24.350   5.102  0.0404  0.0274 -0.0086
35011POPC   PO466113   0.549  24.234   5.263 -0.1175 -0.1994 -0.3610
35011POPC   GL166114   0.245  24.295   5.500 -0.0333 -0.2071 -0.0791
35011POPC   GL266115   0.237  24.027   5.624  0.0026 -0.4390  0.0564
35011POPC   C1A66116   0.351  24.379   5.946 -0.1414  0.1998 -0.0006
35011POPC   D2A66117   0.231  24.147   6.368 -0.0186  0.1729 -0.1572
35011POPC   C3A66118  -0.046  24.261   6.723  0.0202 -0.1339  0.0545
35011POPC   C4A66119  -0.190  24.329   7.146  0.0875  0.0922 -0.0470
35011POPC   C1B66120   0.492  23.863   5.902  0.3560  0.2279  0.4927
35011POPC   C2B66121   0.567  23.725   6.361 -0.0572  0.1287 -0.2565
35011POPC   C3B66122   0.419  23.791   6.793  0.1742  0.1634  0.0410
35011POPC   C4B66123   0.477  23.564   7.136  0.1930 -0.0363 -0.0869
35012POPC   NC366124   3.497  24.489   5.039 -0.0804  0.3051 -0.1129
35012POPC   PO466125   3.605  24.240   5.340 -0.1243 -0.2430 -0.0692
35012POPC   GL166126   3.541  24.266   5.706  0.0841 -0.0198  0.0549
35012POPC   GL266127   3.491  23.939   5.791  0.0182 -0.0437 -0.0232
35012POPC   C1A66128   3.503  24.247   6.142 -0.0120  0.2361  0.3124
35012POPC   D2A66129   3.329  24.309   6.615 -0.3996  0.2891  0.1947
35012POPC   C3A66130   2.960  24.638   6.636 -0.1801 -0.0120  0.1565
35012POPC   C4A66131   2.537  24.731   6.526  0.1106  0.0708  0.3334
35012POPC   C1B66132   3.156  23.826   6.087  0.0309 -0.1733 -0.0609
35012POPC   C2B66133   2.757  23.611   6.200  0.0738 -0.2023 -0.2607
35012POPC   C3B66134   2.382  23.721   6.402 -0.1157  0.0273 -0.0105
35012POPC   C4B66135   2.247  23.900   6.805 -0.0004 -0.2823 -0.2063
35013POPC   NC366136  12.921  19.698   5.885 -0.0627  0.1688 -0.1693
35013POPC   PO466137  13.161  20.009   5.815 -0.2599  0.2743  0.0141
35013POPC   GL166138  13.089  20.049   6.235  0.3702  0.1881 -0.0990
35013POPC   GL266139  13.311  19.928   6.281  0.0103 -0.2632  0.0547
35013POPC   C1A66140  13.295  20.339   6.498  0.3828  0.0378  0.0720
35013POPC   D2A66141  13.453  20.538   6.919 -0.1289 -0.1854  0.2216
35013POPC   C3A66142  13.644  20.529   7.308  0.0583  0.0589 -0.2213
35013POPC   C4A66143  13.916  20.314   7.572  0.2124 -0.0294  0.0163
35013POPC   C1B66144  13.539  19.552   6.424  0.1295 -0.3046  0.2864
35013POPC   C2B66145  13.589  19.227   6.739  0.3606 -0.0626  0.2072
35013POPC   C3B66146  13.639  19.209   7.232 -0.1783  0.1273  0.1485
35013POPC   C4B66147  13.752  19.063   7.703 -0.0443  0.1619  0.1414
35014POPC   NC366148   8.493  20.707   7.497 -0.0209  0.1333 -0.0502
35014POPC   PO466149   8.428  21.087   7.610  0.1145 -0.0166  0.2008
35014POPC   GL166150   8.245  20.786   7.900 -0.2884  0.1644  0.1052
35014POPC   GL266151   8.011  20.639   7.915  0.3960  0.1533  0.0325
35014POPC   C1A66152   8.310  20.545   8.299 -0.2778  0.1280  0.3715
35014POPC   D2A66153   8.540  20.222   8.520  0.0240  0.1355 -0.0185
35014POPC   C3A66154   8.818  20.169   8.872  0.2790 -0.0236 -0.0509
35014POPC   C4A66155   9.076  19.862   9.119 -0.0912  0.0268 -0.1001
35014POPC   C1B66156   7.679  20.565   8.166 -0.2163 -0.3148  0.1936
35014POPC   C2B66157   7.234  20.389   8.263  0.2349  0.0052 -0.4091
35014POPC   C3B66158   6.747  20.482   8.170 -0.4556  0.2100 -0.0783
35014POPC   C4B66159   6.594  20.602   8.568  0.2081 -0.4409 -0.1069
35015POPC   NC366160   0.192  21.180   5.461  0.0445  0.3015  0.1042
35015POPC   PO466161  -0.170  21.351   5.363 -0.1475 -0.0150  0.1325
35015POPC   GL166162  -0.361  21.507   5.761  0.0479 -0.0704  0.0968
35015POPC   GL266163  -0.599  21.314   5.767  0.0818  0.1886 -0.0705
35015POPC   C1A66164  -0.423  21.416   6.238  0.1504  0.0973 -0.1258
35015POPC   D2A66165  -0.373  21.062   6.530 -0.1839 -0.1807 -0.0650
35015POPC   C3A66166  -0.656  20.924   6.805  0.0981 -0.0712 -0.0019
35015POPC   C4A66167  -0.548  20.601   7.116 -0.0811  0.1273  0.0961
35015POPC   C1B66168  -0.339  21.000   6.039  0.2292  0.2026  0.0886
35015POPC   C2B66169  -0.141  20.617   6.191  0.0067 -0.2244 -0.0541
35015POPC   C3B66170  -0.197  20.268   6.465  0.3401  0.3676  0.5045
35015POPC   C4B66171  -0.243  20.006   6.886  0.1273 -0.0093  0.0627
35016POPC   NC366172  10.883  24.137   8.456 -0.0049 -0.0810 -0.3246
35016POPC   PO466173  11.030  23.836   8.530 -0.2939 -0.0684  0.1289
35016POPC   GL166174  11.279  24.021   8.766 -0.2569 -0.2179 -0.3011
35016POPC   GL266175  11.557  23.936   8.732  0.1669 -0.1131 -0.0929
35016POPC   C1A66176  11.481  24.421   8.760 -0.3362 -0.1248 -0.0981
35016POPC   D2A66177  11.856  24.577   8.987 -0.1139  0.2928 -0.0293
35016POPC   C3A66178  12.008  24.532   9.418  0.0487 -0.1083  0.0378
35016POPC   C4A66179  12.330  24.628   9.731  0.0524 -0.0014 -0.2386
35016POPC   C1B66180  11.805  23.988   9.123 -0.0990 -0.1008  0.2245
35016POPC   C2B66181  11.802  24.011   9.570 -0.3471 -0.0779 -0.0262
35016POPC   C3B66182  11.942  24.302   9.907  0.0285  0.1240  0.3518
35016POPC   C4B66183  12.143  24.566  10.193  0.0970 -0.1884 -0.3150
35017POPC   NC366184   8.903  24.839   7.462 -0.2716 -0.3027 -0.0723
35017POPC   PO466185   9.190  24.919   7.754  0.1156 -0.0649 -0.1260
35017POPC   GL166186   9.292  25.204   8.014  0.2574 -0.1521  0.0032
35017POPC   GL266187   9.506  25.136   8.183  0.4475 -0.0181  0.2617
35017POPC   C1A66188   9.592  25.559   7.846 -0.0643  0.2075  0.1044
35017POPC   D2A66189  10.038  25.775   7.959 -0.2501 -0.0381 -0.3839
35017POPC   C3A66190   9.951  25.933   8.358 -0.0755  0.0775 -0.1500
35017POPC   C4A66191   9.960  26.123   8.766 -0.4543 -0.2964  0.1099
35017POPC   C1B66192   9.775  25.426   8.402  0.0852  0.0641 -0.1114
35017POPC   C2B66193  10.024  25.647   8.754  0.0856 -0.1598  0.2904
35017POPC   C3B66194  10.436  25.548   8.929  0.3600  0.0292 -0.0507
35017POPC   C4B66195  10.831  25.701   9.089  0.1180 -0.2943  0.0537
35018POPC   NC366196  12.914  22.246   6.260  0.2512 -0.0121 -0.1132
35018POPC   PO466197  13.197  22.112   6.009  0.2522 -0.0566 -0.1475
35018POPC   GL166198  13.524  22.091   6.249 -0.0929 -0.4102  0.3474
35018POPC   GL266199  13.425  21.845   6.420 -0.4161  0.2004  0.0467
35018POPC   C1A66200  13.766  22.088   6.659  0.0226 -0.0977 -0.2595
35018POPC   D2A66201  14.024  22.352   6.835  0.0708 -0.0712  0.3195
35018POPC   C3A66202  14.461  22.255   6.701 -0.0759  0.3586  0.3706
35018POPC   C4A66203  14.929  22.348   6.902  0.0481 -0.0429  0.1878
35018POPC   C1B66204  13.614  21.616   6.831 -0.2819 -0.0342  0.1835
35018POPC   C2B66205  13.924  21.289   6.870 -0.0269 -0.0771 -0.1469
35018POPC   C3B66206  14.402  21.278   7.037 -0.0553  0.0833  0.2309
35018POPC   C4B66207  14.752  21.499   7.224 -0.1842 -0.0546  0.0747
35019POPC   NC366208  15.472  16.606   4.448  0.0300 -0.0095  0.0010
35019POPC   PO466209  15.771  16.454   4.182 -0.0810 -0.2163 -0.3892
35019POPC   GL166210  15.894  16.594   4.559 -0.1475  0.3489 -0.1730
35019POPC   GL266211  15.992  16.830   4.578  0.0630  0.0527  0.3959
35019POPC   C1A66212  15.646  16.454   4.940 -0.0718  0.2671 -0.0011
35019POPC   D2A66213  15.523  16.362   5.393  0.1967 -0.1366  0.2906
35019POPC   C3A66214  15.254  16.466   5.718  0.0464 -0.0918  0.0751
35019POPC   C4A66215  15.187  16.254   6.127 -0.1347 -0.1786  0.0380
35019POPC   C1B66216  16.088  16.693   4.980  0.3068  0.1620  0.2340
35019POPC   C2B66217  16.007  16.456   5.363  0.3367 -0.0739 -0.1030
35019POPC   C3B66218  15.807  16.064   5.550  0.1345  0.0087 -0.0443
35019POPC   C4B66219  15.445  15.908   5.683  0.0187  0.0889 -0.1067
35020POPC   NC366220   4.171  31.426   4.508 -0.0499 -0.0425  0.0704
35020POPC   PO466221   4.399  31.755   4.488  0.0509 -0.0651  0.0201
35020POPC   GL166222   4.239  31.997   4.800 -0.2570 -0.1264 -0.2327
35020POPC   GL266223   3.999  31.933   4.784 -0.0096  0.2722 -0.1193
35020POPC   C1A66224   4.312  32.164   5.228 -0.2269 -0.1767  0.0257
35020POPC   D2A66225   4.246  32.367   5.601 -0.0374  0.2082  0.0231
35020POPC   C3A66226   4.155  32.772   5.859  0.0245  0.1630  0.1682
35020POPC   C4A66227   3.861  33.019   6.137 -0.3860  0.1621 -0.0782
35020POPC   C1B66228   3.607  31.924   5.070  0.1268 -0.2416 -0.0135
35020POPC   C2B66229   3.182  31.754   5.319 -0.0454 -0.2893 -0.0148
35020POPC   C3B66230   3.108  31.591   5.796  0.0493  0.2498  0.2252
35020POPC   C4B66231   3.104  31.809   6.229 -0.0086  0.0598 -0.0749
35021POPC   NC366232   9.128  25.516   6.386  0.3530  0.3834 -0.0170
35021POPC   PO466233   9.017  25.792   6.658 -0.3709  0.0153 -0.1489
35021POPC   GL166234   8.914  26.137   6.771  0.1091 -0.0183 -0.0236
35021POPC   GL266235   8.996  26.063   7.041  0.0322 -0.1524  0.0816
35021POPC   C1A66236   8.545  26.363   6.817 -0.3627 -0.1210  0.1609
35021POPC   D2A66237   8.363  26.775   6.965 -0.1788  0.0708  0.2662
35021POPC   C3A66238   8.648  26.961   7.341  0.1207  0.2322  0.5157
35021POPC   C4A66239   8.866  27.319   7.550 -0.0897 -0.1214 -0.3338
35021POPC   C1B66240   8.737  26.265   7.337 -0.2278  0.1021  0.0017
35021POPC   C2B66241   8.442  26.299   7.657  0.4395 -0.4537  0.0815
35021POPC   C3B66242   8.292  26.582   8.012 -0.1845 -0.1207 -0.1368
35021POPC   C4B66243   8.202  26.581   8.447  0.0792 -0.2800 -0.1636
35022POPC   NC366244   8.222  18.712   5.881 -0.0326  0.0862  0.0578
35022POPC   PO466245   8.061  18.600   6.229  0.1220  0.1028 -0.0576
35022POPC   GL166246   8.198  18.235   6.283  0.0857 -0.3001 -0.0770
35022POPC   GL266247   7.943  18.064   6.241  0.1780 -0.0290 -0.2476
35022POPC   C1A66248   8.145  18.080   6.716  0.0718  0.0884  0.0080
35022POPC   D2A66249   7.979  17.971   7.084  0.0883  0.3100  0.2584
35022POPC   C3A66250   8.082  17.640   7.378  0.2066  0.1640 -0.0131
35022POPC   C4A66251   8.240  17.374   7.728 -0.1817  0.2282  0.0549
35022POPC   C1B66252   7.618  17.924   6.517 -0.0476  0.1554 -0.1494
35022POPC   C2B66253   7.348  17.509   6.581 -0.3540 -0.1495 -0.1836
35022POPC   C3B66254   7.366  17.066   6.584 -0.0949  0.1424 -0.1151
35022POPC   C4B66255   7.475  16.695   6.842 -0.2583  0.1177 -0.0863
35023POPC   NC366256  15.551  23.314   4.989  0.3883  0.0193  0.3361
35023POPC   PO466257  15.794  23.102   5.230  0.1986 -0.1299  0.0069
35023POPC   GL166258  15.985  23.156   5.596 -0.2691 -0.4311 -0.0393
35023POPC   GL266259  16.246  23.280   5.382 -0.0197  0.1216 -0.1048
35023POPC   C1A66260  16.002  23.420   5.979  0.1086  0.2043 -0.3077
35023POPC   D2A66261  15.780  23.566   6.370 -0.1046  0.3117 -0.1813
35023POPC   C3A66262  16.002  23.450   6.730  0.3642  0.2992 -0.0389
35023POPC   C4A66263  16.026  23.482   7.203  0.0790 -0.1076  0.0847
35023POPC   C1B66264  16.640  23.418   5.546 -0.0433  0.0363  0.3234
35023POPC   C2B66265  16.991  23.317   5.790  0.0318 -0.1183  0.0576
35023POPC   C3B66266  16.854  23.281   6.240 -0.1078  0.0244 -0.2444
35023POPC   C4B66267  17.022  23.306   6.698 -0.2274  0.1454 -0.0989
35024POPC   NC366268  12.215  24.420   6.095 -0.1444 -0.0896  0.0861
35024POPC   PO466269  12.373  24.533   6.445  0.0295 -0.1802  0.2465
35024POPC   GL166270  12.488  24.588   6.784 -0.1360  0.0126  0.4695
35024POPC   GL266271  12.427  24.298   6.974 -0.1428 -0.3321 -0.1449
35024POPC   C1A66272  12.831  24.899   6.897  0.1975 -0.1182  0.3712
35024POPC   D2A66273  13.157  25.221   6.891  0.0628 -0.0121  0.0595
35024POPC   C3A66274  13.411  25.187   7.304 -0.0953 -0.0973  0.1288
35024POPC   C4A66275  13.325  25.271   7.738 -0.0003  0.0365 -0.1757
35024POPC   C1B66276  12.576  24.739   7.254  0.3343 -0.4228  0.0670
35024POPC   C2B66277  12.912  25.136   7.363 -0.0190  0.0081  0.1222
35024POPC   C3B66278  13.063  25.612   7.434  0.1263 -0.0087 -0.2786
35024POPC   C4B66279  12.965  26.063   7.602  0.0093 -0.1293  0.1117
35025POPC   NC366280   9.586   1.424   5.587 -0.1035 -0.2376  0.2404
35025POPC   PO466281   9.214   1.340   5.499  0.0590  0.1702  0.0442
35025POPC   GL166282   9.174   1.093   5.775  0.0799 -0.1999  0.2094
35025POPC   GL266283   9.175   0.811   5.655 -0.0553  0.0111 -0.0013
35025POPC   C1A66284   8.863   1.089   6.102  0.0909 -0.0307  0.0060
35025POPC   D2A66285   8.561   0.879   6.215 -0.0065  0.1372  0.1953
35025POPC   C3A66286   8.397   0.712   6.574  0.0309  0.3939 -0.1942
35025POPC   C4A66287   8.359   0.660   7.058 -0.1694  0.2236  0.3056
35025POPC   C1B66288   9.020   0.382   5.835  0.4649 -0.1801  0.2569
35025POPC   C2B66289   8.897  -0.035   6.086 -0.1706 -0.2744  0.0739
35025POPC   C3B66290   8.555  -0.264   6.223 -0.1228  0.1382  0.0071
35025POPC   C4B66291   8.086  -0.233   6.131  0.1781 -0.1964 -0.4602
35026POPC   NC366292  11.877  19.011   5.269  0.0241  0.1901 -0.0399
35026POPC   PO466293  12.181  19.076   5.489 -0.1990 -0.0202  0.1772
35026POPC   GL166294  12.166  18.872   5.827 -0.1135  0.5492 -0.5613
35026POPC   GL266295  12.211  19.032   6.067 -0.0810  0.2171 -0.1956
35026POPC   C1A66296  12.278  18.530   6.117  0.1006 -0.0369  0.0796
35026POPC   D2A66297  12.512  18.412   6.443 -0.2686 -0.1132 -0.0815
35026POPC   C3A66298  12.261  18.253   6.687  0.0246 -0.1622 -0.1781
35026POPC   C4A66299  11.917  18.010   6.853  0.0744 -0.0879 -0.2481
35026POPC   C1B66300  12.524  18.903   6.382 -0.1656 -0.1786  0.1554
35026POPC   C2B66301  12.901  18.683   6.619 -0.0575  0.1268 -0.0436
35026POPC   C3B66302  13.164  18.332   6.797 -0.0183 -0.1892 -0.0117
35026POPC   C4B66303  13.401  18.065   7.107  0.0090 -0.2622  0.1811
35027POPC   NC366304  10.359  23.531  10.074  0.2176 -0.0206  0.2187
35027POPC   PO466305  10.382  23.403  10.469 -0.2092  0.2538  0.0358
35027POPC   GL166306  10.426  23.711  10.645  0.0670  0.3567 -0.2620
35027POPC   GL266307  10.603  23.659  10.813  0.0869  0.0424 -0.3345
35027POPC   C1A66308  10.390  24.159  10.407  0.2081 -0.0033 -0.0932
35027POPC   D2A66309  10.344  24.583  10.304 -0.0598 -0.1820  0.0125
35027POPC   C3A66310  10.401  24.945  10.571  0.2662  0.3192  0.2039
35027POPC   C4A66311  10.335  25.365  10.449 -0.0192  0.0238 -0.0501
35027POPC   C1B66312  10.315  23.958  11.005  0.0507  0.4216  0.1919
35027POPC   C2B66313  10.136  24.237  11.283  0.2116  0.0680 -0.0324
35027POPC   C3B66314  10.094  24.701  11.259 -0.1458 -0.1951 -0.2065
35027POPC   C4B66315   9.962  25.089  11.469 -0.2938 -0.0740 -0.1242
35028POPC   NC366316   8.071  20.404   6.960 -0.2118  0.2921  0.1191
35028POPC   PO466317   7.998  20.622   7.306  0.1561  0.1589  0.0949
35028POPC   GL166318   8.191  20.193   7.385 -0.3736 -0.3589  0.0374
35028POPC   GL266319   7.906  20.090   7.503 -0.3461  0.4696 -0.1450
35028POPC   C1A66320   8.220  19.741   7.563 -0.2763 -0.0172 -0.0072
35028POPC   D2A66321   8.308  19.427   7.842 -0.2782 -0.0950 -0.3958
35028POPC   C3A66322   8.201  19.031   8.041  0.1361  0.1390  0.3596
35028POPC   C4A66323   8.091  18.771   8.392  0.0306  0.3334 -0.0036
35028POPC   C1B66324   7.570  20.143   7.785  0.4194  0.0406  0.0362
35028POPC   C2B66325   7.385  19.932   8.128  0.0230 -0.0019  0.0031
35028POPC   C3B66326   7.428  19.967   8.572  0.0804 -0.0492  0.0394
35028POPC   C4B66327   7.721  19.896   8.870 -0.0015  0.1160 -0.1756
35029POPC   NC366328   3.598  32.035   4.473  0.1573 -0.0396 -0.0281
35029POPC   PO466329   3.620  31.816   4.208  0.0201  0.2038  0.3463
35029POPC   GL166330   3.396  31.566   4.528  0.0376 -0.3132 -0.1273
35029POPC   GL266331   3.223  31.757   4.743  0.1413 -0.0748 -0.4276
35029POPC   C1A66332   3.748  31.499   4.857 -0.4074  0.1604 -0.0277
35029POPC   D2A66333   3.628  31.436   5.299  0.0103 -0.2440  0.0408
35029POPC   C3A66334   3.671  31.673   5.746 -0.0747  0.1581  0.1465
35029POPC   C4A66335   3.972  31.587   6.076 -0.0375 -0.0165 -0.2250
35029POPC   C1B66336   3.273  31.377   4.941 -0.0091 -0.2640  0.3368
35029POPC   C2B66337   3.131  31.253   5.382  0.0269 -0.0800  0.0890
35029POPC   C3B66338   2.795  31.207   5.707 -0.1009 -0.1764  0.1426
35029POPC   C4B66339   2.924  31.199   6.121 -0.0285  0.1242  0.0617
35030POPC   NC366340  12.289  17.119   4.624 -0.1327 -0.1094 -0.0920
35030POPC   PO466341  12.243  17.339   4.934  0.4176  0.1045  0.1490
35030POPC   GL166342  12.186  17.027   5.108  0.3454 -0.1563  0.1362
35030POPC   GL266343  11.991  16.841   5.134 -0.0355 -0.0549  0.2756
35030POPC   C1A66344  12.333  17.006   5.515  0.2973 -0.1102 -0.4113
35030POPC   D2A66345  12.135  17.080   5.947  0.1442  0.1852  0.0094
35030POPC   C3A66346  12.177  16.787   6.284 -0.1932 -0.4912 -0.0583
35030POPC   C4A66347  12.484  16.488   6.408 -0.1027  0.0571  0.2329
35030POPC   C1B66348  11.822  16.912   5.549  0.1176  0.2566  0.3710
35030POPC   C2B66349  11.718  16.740   5.959  0.3798  0.0683 -0.2151
35030POPC   C3B66350  11.376  16.615   6.258  0.0931 -0.3565  0.0198
35030POPC   C4B66351  11.218  16.471   6.750  0.2512 -0.2484  0.2196
35031POPC   NC366352   5.135  26.866   5.457 -0.0348 -0.0494  0.2594
35031POPC   PO466353   5.339  26.552   5.335 -0.1113  0.1945  0.1225
35031POPC   GL166354   5.233  26.485   5.671 -0.1189  0.0091  0.0179
35031POPC   GL266355   5.484  26.470   5.828  0.0928  0.1929 -0.0305
35031POPC   C1A66356   4.943  26.594   6.073 -0.0994 -0.1566  0.2453
35031POPC   D2A66357   4.746  26.396   6.469  0.0522  0.0634 -0.1317
35031POPC   C3A66358   4.519  25.950   6.526 -0.5183 -0.0833  0.3874
35031POPC   C4A66359   4.073  25.870   6.599  0.1068  0.0087 -0.0736
35031POPC   C1B66360   5.369  26.729   6.231  0.2473 -0.0730  0.3056
35031POPC   C2B66361   5.074  26.841   6.511 -0.0470  0.5563 -0.2677
35031POPC   C3B66362   4.985  26.752   6.977  0.1579  0.3544 -0.3822
35031POPC   C4B66363   4.739  26.798   7.387 -0.2370 -0.0587 -0.0969
35032POPC   NC366364   8.319  31.194   4.326 -0.1275  0.3492 -0.2294
35032POPC   PO466365   8.248  31.174   4.698 -0.0742  0.0476 -0.0294
35032POPC   GL166366   8.523  31.198   4.965  0.6042 -0.2853 -0.0125
35032POPC   GL266367   8.426  31.475   5.090  0.0570 -0.2398  0.3318
35032POPC   C1A66368   8.630  31.157   5.411 -0.0756  0.2834  0.0392
35032POPC   D2A66369   8.862  31.427   5.661 -0.6008 -0.1447 -0.0600
35032POPC   C3A66370   8.852  31.343   6.079  0.0073 -0.1151 -0.0669
35032POPC   C4A66371   9.044  31.291   6.515 -0.3198 -0.1452  0.0712
35032POPC   C1B66372   8.362  31.532   5.532  0.0664  0.2484 -0.0688
35032POPC   C2B66373   7.954  31.445   5.745 -0.1076  0.0003 -0.2566
35032POPC   C3B66374   7.906  31.290   6.178 -0.1952  0.0246  0.1009
35032POPC   C4B66375   8.017  31.174   6.625  0.3054 -0.2839  0.1010
35033POPC   NC366376   9.391  22.016  10.237  0.4636  0.0975  0.2115
35033POPC   PO466377   9.311  21.892  10.586 -0.1005 -0.1665 -0.1371
35033POPC   GL166378   8.983  21.919  10.779  0.2027  0.1249 -0.1030
35033POPC   GL266379   8.764  22.115  10.657 -0.1603 -0.1362 -0.3267
35033POPC   C1A66380   8.777  21.517  10.965 -0.3316 -0.1774  0.1051
35033POPC   D2A66381   8.598  21.156  11.167 -0.0899 -0.3482  0.2526
35033POPC   C3A66382   8.648  20.766  11.297 -0.2455 -0.1976  0.1486
35033POPC   C4A66383   8.809  20.471  11.669 -0.0149 -0.1158  0.0644
35033POPC   C1B66384   8.492  21.862  10.683  0.3701  0.3020 -0.0988
35033POPC   C2B66385   8.093  21.660  10.732  0.1538 -0.1991  0.1921
35033POPC   C3B66386   7.795  21.343  10.769 -0.1400 -0.0757 -0.0451
35033POPC   C4B66387   7.547  21.100  11.090 -0.1587 -0.1445 -0.4115
35034POPC   NC366388   5.859  17.634   5.022 -0.0181  0.2010  0.0934
35034POPC   PO466389   6.115  17.423   5.207 -0.0523  0.1281  0.3709
35034POPC   GL166390   5.970  17.220   5.489 -0.0935  0.1422  0.0016
35034POPC   GL266391   5.854  17.011   5.296  0.1711 -0.2632 -0.2409
35034POPC   C1A66392   5.964  17.217   5.948 -0.2709 -0.1854  0.0210
35034POPC   D2A66393   6.286  17.180   6.280  0.3859  0.1028 -0.0650
35034POPC   C3A66394   6.309  17.493   6.631 -0.1927  0.2848  0.0421
35034POPC   C4A66395   6.105  17.560   7.022 -0.3410  0.0618  0.2328
35034POPC   C1B66396   5.901  16.772   5.658  0.0842 -0.2137 -0.3881
35034POPC   C2B66397   5.931  16.771   6.136 -0.2397 -0.3297  0.1326
35034POPC   C3B66398   5.858  16.876   6.575  0.0024 -0.0064  0.2377
35034POPC   C4B66399   6.041  17.082   6.892  0.2044 -0.2172  0.1338
35035POPC   NC366400   0.607  21.332   4.873 -0.0194  0.1098 -0.0468
35035POPC   PO466401   0.429  21.508   5.174 -0.1421  0.0215 -0.0323
35035POPC   GL166402   0.395  21.609   5.587  0.1628  0.2178 -0.1258
35035POPC   GL266403   0.131  21.633   5.662  0.1522  0.1704 -0.0355
35035POPC   C1A66404   0.565  21.505   6.049  0.0726 -0.0633 -0.0761
35035POPC   D2A66405   0.739  21.526   6.480 -0.1310  0.0459 -0.3526
35035POPC   C3A66406   0.710  21.085   6.654 -0.0777  0.0085 -0.1092
35035POPC   C4A66407   0.626  20.690   6.957  0.2164  0.4228 -0.0798
35035POPC   C1B66408   0.078  21.391   5.996 -0.1183 -0.2408 -0.1287
35035POPC   C2B66409   0.286  21.341   6.397 -0.1097  0.2262  0.0609
35035POPC   C3B66410   0.142  20.989   6.653  0.0304 -0.0211 -0.1136
35035POPC   C4B66411  -0.095  20.644   6.795  0.2261  0.1108  0.1568
35036POPC   NC366412  11.524  17.679   5.075  0.0268 -0.0427  0.1493
35036POPC   PO466413  11.573  18.067   5.157 -0.0284 -0.2725 -0.0726
35036POPC   GL166414  11.748  18.222   5.476 -0.0820 -0.1221 -0.4582
35036POPC   GL266415  11.577  18.024   5.649 -0.0590 -0.3206  0.1053
35036POPC   C1A66416  12.103  18.162   5.853  0.0187  0.1812 -0.0773
35036POPC   D2A66417  12.078  17.999   6.276 -0.0036  0.0549 -0.0258
35036POPC   C3A66418  12.336  17.742   6.546 -0.0434  0.0760 -0.5624
35036POPC   C4A66419  12.661  17.552   6.855 -0.0468  0.0809  0.0703
35036POPC   C1B66420  11.690  18.313   6.045 -0.2887  0.0239  0.1730
35036POPC   C2B66421  11.811  18.339   6.506 -0.0511  0.1660 -0.2235
35036POPC   C3B66422  11.853  18.498   6.939 -0.2086 -0.1255 -0.1525
35036POPC   C4B66423  12.119  18.708   7.240  0.0220 -0.2742  0.1391
35037POPC   NC366424  15.898  18.798   4.676 -0.2471 -0.3771  0.0116
35037POPC   PO466425  15.586  18.733   4.460 -0.4559 -0.0624 -0.2746
35037POPC   GL166426  15.454  18.662   4.864 -0.3109 -0.4461  0.4017
35037POPC   GL266427  15.270  18.774   4.848  0.2511 -0.1711 -0.3408
35037POPC   C1A66428  15.351  18.419   5.236  0.0376 -0.0138  0.0629
35037POPC   D2A66429  15.216  18.141   5.592 -0.3148  0.1822  0.1848
35037POPC   C3A66430  15.385  18.150   6.026  0.1283  0.3118  0.2444
35037POPC   C4A66431  15.443  18.414   6.369 -0.0730  0.3737  0.1542
35037POPC   C1B66432  15.444  19.131   5.106 -0.2868  0.1905 -0.2246
35037POPC   C2B66433  15.639  19.219   5.531 -0.2696 -0.2618  0.2981
35037POPC   C3B66434  15.450  19.195   5.908 -0.2151 -0.0475 -0.3467
35037POPC   C4B66435  15.496  18.955   6.330 -0.0592 -0.1839 -0.1271
35038POPC   NC366436   1.692  19.260   5.263  0.0765 -0.0711  0.1653
35038POPC   PO466437   1.720  19.456   4.905 -0.0523  0.0829 -0.0489
35038POPC   GL166438   1.284  19.442   5.111 -0.2307  0.3237  0.0091
35038POPC   GL266439   1.264  19.644   5.223  0.2893  0.0807  0.1581
35038POPC   C1A66440   1.167  19.091   5.379  0.0847  0.0947 -0.1850
35038POPC   D2A66441   1.049  18.691   5.464  0.0579  0.0946  0.0977
35038POPC   C3A66442   1.369  18.491   5.605 -0.1507 -0.2513  0.3824
35038POPC   C4A66443   1.689  18.478   5.927  0.2857 -0.0995 -0.0709
35038POPC   C1B66444   1.391  19.476   5.645  0.3718 -0.2655  0.0149
35038POPC   C2B66445   1.258  19.301   6.070  0.0192  0.1354 -0.1914
35038POPC   C3B66446   0.888  19.309   6.257  0.1867 -0.0232 -0.0840
35038POPC   C4B66447   0.707  18.998   6.567 -0.3465  0.0543  0.0860
35039POPC   NC366448  13.875  21.607   5.300  0.1071 -0.2561  0.1690
35039POPC   PO466449  13.763  21.786   5.628  0.0026 -0.0710  0.0087
35039POPC   GL166450  13.786  21.963   5.969 -0.2429  0.0974  0.2490
35039POPC   GL266451  13.977  21.769   6.125 -0.0511  0.1965 -0.1483
35039POPC   C1A66452  13.942  22.262   6.287  0.0074 -0.2258  0.0216
35039POPC   D2A66453  14.230  22.639   6.431  0.0065 -0.1437 -0.0786
35039POPC   C3A66454  14.109  22.858   6.839 -0.0727  0.1992  0.2339
35039POPC   C4A66455  14.214  22.715   7.301 -0.4909  0.0596 -0.4372
35039POPC   C1B66456  14.085  21.690   6.562 -0.1417  0.1005  0.4021
35039POPC   C2B66457  14.168  21.785   7.012  0.0643 -0.1015  0.3711
35039POPC   C3B66458  14.351  21.609   7.445 -0.2267  0.0871  0.0519
35039POPC   C4B66459  14.538  21.476   7.824  0.1207 -0.0524 -0.2287
35040POPC   NC366460  11.525  22.760  10.310  0.0680  0.0587 -0.0158
35040POPC   PO466461  11.704  22.468  10.509 -0.0564  0.2601 -0.2046
35040POPC   GL166462  11.904  22.706  10.743  0.1214 -0.4858  0.4275
35040POPC   GL266463  11.818  22.952  10.720  0.2177 -0.0321  0.4264
35040POPC   C1A66464  12.306  22.944  10.712 -0.0575 -0.1658  0.0227
35040POPC   D2A66465  12.559  23.261  10.635 -0.0544  0.2210 -0.0174
35040POPC   C3A66466  12.751  23.076  10.321  0.0461  0.0460  0.1293
35040POPC   C4A66467  12.774  22.687  10.142 -0.2435  0.1462 -0.1432
35040POPC   C1B66468  11.940  23.374  10.751  0.0985  0.1845 -0.2066
35040POPC   C2B66469  11.765  23.790  10.833  0.0789  0.2021  0.0380
35040POPC   C3B66470  11.754  24.275  10.769  0.0237 -0.1086 -0.1630
35040POPC   C4B66471  11.819  24.642  10.534  0.2674  0.3402  0.2200
35041POPC   NC366472  16.279  20.055   4.717 -0.1895  0.0854  0.1512
35041POPC   PO466473  16.302  20.330   4.973 -0.0424  0.0794  0.0906
35041POPC   GL166474  16.062  20.189   5.322 -0.2449  0.0267  0.2115
35041POPC   GL266475  15.952  20.490   5.377 -0.1370  0.1847  0.1510
35041POPC   C1A66476  15.980  19.815   5.573  0.2367  0.2202  0.0780
35041POPC   D2A66477  15.641  19.693   5.874 -0.1676  0.1977 -0.1443
35041POPC   C3A66478  15.630  19.512   6.312 -0.1414  0.3051  0.1191
35041POPC   C4A66479  15.803  19.570   6.755  0.1801 -0.0505  0.0733
35041POPC   C1B66480  15.719  20.712   5.754  0.0446  0.0217  0.1543
35041POPC   C2B66481  15.636  20.775   6.216  0.2477 -0.4615 -0.0491
35041POPC   C3B66482  15.754  20.458   6.533 -0.0449 -0.2936  0.3101
35041POPC   C4B66483  15.807  19.993   6.502 -0.0383  0.1403 -0.1928
35042POPC   NC366484  13.640  28.296   3.943  0.0044  0.0499  0.0126
35042POPC   PO466485  13.888  28.158   4.194 -0.1295 -0.4219  0.1313
35042POPC   GL166486  14.014  28.173   4.521 -0.2256  0.2995 -0.1093
35042POPC   GL266487  13.888  28.398   4.778  0.5069  0.0037 -0.0162
35042POPC   C1A66488  14.363  28.249   4.834 -0.0123 -0.0454  0.0252
35042POPC   D2A66489  14.462  28.105   5.308 -0.2014  0.1725  0.0648
35042POPC   C3A66490  14.163  27.842   5.499 -0.1835  0.2115  0.2143
35042POPC   C4A66491  13.816  27.532   5.616 -0.0591  0.1590 -0.0606
35042POPC   C1B66492  13.737  28.678   5.143  0.3905  0.0573  0.1549
35042POPC   C2B66493  13.814  28.793   5.594  0.2052  0.2765  0.0616
35042POPC   C3B66494  13.728  29.003   5.995  0.0649  0.0362  0.0045
35042POPC   C4B66495  13.519  29.175   6.352 -0.1945  0.0607 -0.0744
35043POPC   NC366496  13.546  22.333   5.731 -0.0032 -0.2147  0.4708
35043POPC   PO466497  13.770  22.467   5.460  0.1803  0.1941 -0.3796
35043POPC   GL166498  14.018  22.397   5.815 -0.4893  0.1045  0.1015
35043POPC   GL266499  14.212  22.191   5.766  0.3116 -0.2060 -0.3523
35043POPC   C1A66500  14.313  22.719   5.956  0.3561  0.2868  0.0113
35043POPC   D2A66501  14.598  23.020   6.231 -0.1524 -0.1204  0.0495
35043POPC   C3A66502  14.455  23.199   6.676 -0.1385  0.1598 -0.0008
35043POPC   C4A66503  14.643  23.192   7.104  0.0815 -0.0917 -0.2186
35043POPC   C1B66504  14.478  22.239   6.185 -0.2486 -0.1019  0.2025
35043POPC   C2B66505  14.865  22.103   6.326 -0.1635  0.3203 -0.0739
35043POPC   C3B66506  15.102  21.911   6.628  0.2427 -0.0468 -0.1147
35043POPC   C4B66507  15.131  21.923   7.130 -0.0040  0.1937  0.1288
35044POPC   NC366508   9.921  18.438   5.003  0.0442  0.2979 -0.0517
35044POPC   PO466509   9.980  18.548   5.429 -0.1309 -0.2221 -0.1470
35044POPC   GL166510  10.050  18.321   5.701 -0.1930 -0.3419  0.0999
35044POPC   GL266511   9.958  18.515   5.940  0.1153 -0.2709 -0.0663
35044POPC   C1A66512  10.301  18.034   5.993  0.0710 -0.2015  0.2105
35044POPC   D2A66513  10.488  17.894   6.389 -0.1200 -0.4213  0.0723
35044POPC   C3A66514  10.381  17.743   6.822  0.1980 -0.1042 -0.4582
35044POPC   C4A66515  10.702  17.769   7.211  0.1965 -0.0903 -0.2487
35044POPC   C1B66516  10.028  18.389   6.352  0.0770  0.0483  0.0370
35044POPC   C2B66517  10.048  18.132   6.816 -0.0298 -0.4046  0.0543
35044POPC   C3B66518  10.156  17.996   7.198  0.1624  0.0850 -0.1830
35044POPC   C4B66519  10.155  17.640   7.435 -0.1163  0.1194  0.2297
35045POPC   NC366520  13.934  16.282   4.644 -0.0465  0.3369 -0.0604
35045POPC   PO466521  13.899  16.315   4.257 -0.1566  0.0178  0.1411
35045POPC   GL166522  13.560  16.595   4.295 -0.1182 -0.1349  0.7538
35045POPC   GL266523  13.726  16.789   4.424  0.2709  0.0891 -0.2598
35045POPC   C1A66524  13.248  16.702   4.656  0.1256  0.1702 -0.0517
35045POPC   D2A66525  13.253  17.011   4.968 -0.2069 -0.0866 -0.5152
35045POPC   C3A66526  13.636  17.069   5.127  0.0522  0.3760  0.2373
35045POPC   C4A66527  14.028  16.885   5.251 -0.3040 -0.2284  0.0506
35045POPC   C1B66528  13.707  16.665   4.899 -0.1654 -0.0586  0.0250
35045POPC   C2B66529  13.572  16.611   5.352 -0.4633 -0.3878  0.2795
35045POPC   C3B66530  13.591  16.888   5.704  0.1906  0.0911 -0.1876
35045POPC   C4B66531  13.739  16.935   6.163 -0.0357  0.0329 -0.1837
35046POPC   NC366532   6.105  18.848   5.464  0.1445 -0.1193 -0.1007
35046POPC   PO466533   5.771  18.814   5.618  0.0763 -0.0958  0.1409
35046POPC   GL166534   5.729  18.715   5.916  0.2091  0.1560 -0.1243
35046POPC   GL266535   5.774  18.996   6.081  0.0305 -0.0894 -0.1753
35046POPC   C1A66536   5.406  18.526   6.207  0.1306  0.3363 -0.1429
35046POPC   D2A66537   5.272  18.237   6.484  0.2694 -0.3115 -0.2074
35046POPC   C3A66538   5.252  18.307   6.885 -0.1178  0.1336  0.1780
35046POPC   C4A66539   5.140  18.277   7.308 -0.1181 -0.2231 -0.0281
35046POPC   C1B66540   5.839  18.683   6.412  0.0285 -0.0594 -0.0902
35046POPC   C2B66541   5.547  18.681   6.750 -0.0969 -0.0138 -0.3334
35046POPC   C3B66542   5.398  18.678   7.197  0.2051 -0.0935  0.1287
35046POPC   C4B66543   5.125  18.774   7.497  0.2378  0.0234  0.2926
35047POPC   NC366544   1.102  22.609   5.007  0.0458 -0.0297 -0.0118
35047POPC   PO466545   1.421  22.582   5.273  0.2839  0.2375  0.0969
35047POPC   GL166546   1.331  22.869   5.558  0.2851  0.0020  0.0476
35047POPC   GL266547   1.364  22.623   5.760  0.2063 -0.0243 -0.0645
35047POPC   C1A66548   1.658  23.057   5.854  0.1328 -0.1578  0.0676
35047POPC   D2A66549   1.951  22.952   6.214 -0.0995 -0.2409 -0.0047
35047POPC   C3A66550   1.638  22.828   6.566 -0.0008 -0.1507 -0.2962
35047POPC   C4A66551   1.329  22.517   6.568  0.0402  0.1609  0.1657
35047POPC   C1B66552   1.300  22.820   6.146  0.0952 -0.0108  0.2846
35047POPC   C2B66553   1.526  23.242   6.325 -0.3413 -0.1964 -0.1858
35047POPC   C3B66554   1.515  23.332   6.758 -0.2241 -0.0482  0.0692
35047POPC   C4B66555   1.833  23.273   7.053 -0.2394  0.0672 -0.1109
35048POPC   NC366556  10.917  26.507   5.852 -0.0598  0.0347 -0.2691
35048POPC   PO466557  10.784  26.185   6.084 -0.0735 -0.0589  0.0406
35048POPC   GL166558  10.750  26.250   6.540  0.1416  0.2373 -0.2669
35048POPC   GL266559  10.871  26.140   6.793  0.1032 -0.1089 -0.2243
35048POPC   C1A66560  10.834  26.678   6.635 -0.2127  0.0548  0.2088
35048POPC   D2A66561  11.108  26.978   6.942 -0.3216  0.2483  0.0089
35048POPC   C3A66562  11.589  26.863   6.967 -0.0273  0.0165  0.0985
35048POPC   C4A66563  11.838  26.582   6.665 -0.2637 -0.0445  0.0122
35048POPC   C1B66564  10.854  26.508   7.113 -0.3012  0.1034  0.1105
35048POPC   C2B66565  10.916  26.653   7.517 -0.0201  0.1241  0.0871
35048POPC   C3B66566  11.112  26.787   7.910 -0.3100 -0.1643 -0.4351
35048POPC   C4B66567  11.248  27.007   8.254 -0.1918  0.1283 -0.0045
35049POPC   NC366568   3.081  31.764   4.224  0.0483 -0.3443  0.2325
35049POPC   PO466569   3.092  32.099   4.033  0.1693 -0.2643 -0.1327
35049POPC   GL166570   2.825  32.177   4.377  0.3008 -0.2004  0.5992
35049POPC   GL266571   3.092  32.189   4.531 -0.3676 -0.0271  0.0026
35049POPC   C1A66572   2.754  32.379   4.790  0.3757 -0.0810 -0.1227
35049POPC   D2A66573   2.538  32.752   4.997  0.1390 -0.2066 -0.0788
35049POPC   C3A66574   2.469  32.466   5.293 -0.0943 -0.2447 -0.2111
35049POPC   C4A66575   2.533  32.403   5.768  0.2248 -0.1481  0.1489
35049POPC   C1B66576   3.211  32.207   5.032 -0.0613  0.2591 -0.1959
35049POPC   C2B66577   3.278  32.290   5.485 -0.1589  0.2075 -0.1033
35049POPC   C3B66578   3.353  32.190   5.933 -0.2478 -0.0880 -0.0976
35049POPC   C4B66579   3.148  32.291   6.332 -0.1220  0.1823 -0.1089
35050POPC   NC366580   9.554  17.607   5.365  0.2393  0.2172  0.1242
35050POPC   PO466581   9.202  17.423   5.372  0.0504 -0.1463  0.0396
35050POPC   GL166582   9.097  17.742   5.604 -0.0642  0.0321  0.0104
35050POPC   GL266583   9.302  17.722   5.798  0.0503 -0.4922  0.1052
35050POPC   C1A66584   8.844  17.632   5.982  0.1160 -0.0117  0.0205
35050POPC   D2A66585   8.516  17.375   6.054  0.2825  0.1330 -0.1598
35050POPC   C3A66586   8.493  17.196   6.437 -0.3392 -0.1100  0.0955
35050POPC   C4A66587   8.669  17.095   6.875  0.0280 -0.0523  0.0734
35050POPC   C1B66588   9.450  17.602   6.190  0.1522  0.0841  0.1357
35050POPC   C2B66589   9.437  17.380   6.600  0.0345 -0.0016  0.0223
35050POPC   C3B66590   9.560  17.197   6.931 -0.0517 -0.0441  0.2602
35050POPC   C4B66591   9.712  16.930   7.209  0.2153  0.0340  0.5500
35051POPC   NC366592  11.290  17.261   4.681  0.2014  0.2439 -0.1635
35051POPC   PO466593  11.088  17.550   4.889  0.1550 -0.0605  0.0574
35051POPC   GL166594  10.987  17.558   5.290 -0.0805 -0.0237  0.2320
35051POPC   GL266595  11.226  17.753   5.440  0.1047  0.0724  0.1608
35051POPC   C1A66596  10.876  17.254   5.703  0.0025  0.0621 -0.0491
35051POPC   D2A66597  10.667  16.946   6.003  0.2072  0.2798 -0.2324
35051POPC   C3A66598  10.853  16.534   6.190  0.0964 -0.0881 -0.0368
35051POPC   C4A66599  10.961  16.165   6.448  0.0372  0.0551 -0.3404
35051POPC   C1B66600  11.494  17.504   5.635  0.1408 -0.3005  0.4848
35051POPC   C2B66601  11.718  17.251   5.962 -0.0842  0.3956  0.2026
35051POPC   C3B66602  11.815  17.050   6.344 -0.1961 -0.0652 -0.2376
35051POPC   C4B66603  11.653  16.813   6.706 -0.1948 -0.0921 -0.0307
35052POPC   NC366604   4.915  30.691   4.332 -0.0782 -0.1555  0.0795
35052POPC   PO466605   5.217  30.760   4.569 -0.2048  0.1861  0.0460
35052POPC   GL166606   5.148  30.656   4.926  0.0721  0.2233 -0.0583
35052POPC   GL266607   5.322  30.401   4.974  0.0309 -0.0085 -0.0303
35052POPC   C1A66608   4.776  30.592   5.219 -0.2388 -0.2538 -0.0294
35052POPC   D2A66609   4.657  30.861   5.572  0.1449 -0.0969  0.0321
35052POPC   C3A66610   4.691  30.809   6.023 -0.0179  0.2071  0.0540
35052POPC   C4A66611   4.594  30.486   6.367  0.1623  0.3214  0.2614
35052POPC   C1B66612   5.519  30.422   5.396 -0.0910  0.1854 -0.0627
35052POPC   C2B66613   5.554  30.786   5.733 -0.2010  0.2233  0.2419
35052POPC   C3B66614   5.279  31.071   5.993 -0.0093  0.0515  0.1610
35052POPC   C4B66615   4.967  31.313   6.209  0.0580  0.1336  0.1090
35053POPC   NC366616   4.961  23.898   6.154 -0.0375  0.0099 -0.0924
35053POPC   PO466617   5.042  24.013   5.818  0.0429  0.0564  0.2249
35053POPC   GL166618   4.916  24.322   6.109 -0.0040  0.0992 -0.1817
35053POPC   GL266619   4.635  24.343   6.038 -0.2154  0.1026  0.1177
35053POPC   C1A66620   5.087  24.700   6.319  0.0986 -0.0758 -0.0986
35053POPC   D2A66621   5.442  24.719   6.617  0.1848  0.3131  0.0309
35053POPC   C3A66622   5.384  24.916   7.024 -0.0528  0.0641 -0.0124
35053POPC   C4A66623   5.215  25.075   7.440  0.0611  0.2208 -0.1131
35053POPC   C1B66624   4.596  24.530   6.475  0.1648 -0.1725  0.1182
35053POPC   C2B66625   4.394  24.661   6.874  0.0659  0.0375  0.0310
35053POPC   C3B66626   4.088  24.619   7.236 -0.0872 -0.0932  0.2663
35053POPC   C4B66627   3.707  24.617   7.455 -0.1278  0.2384  0.1628
35054POPC   NC366628  15.737  27.787   4.177 -0.0626  0.0197 -0.1906
35054POPC   PO466629  15.522  28.040   4.393  0.3553  0.1819  0.1642
35054POPC   GL166630  15.661  27.810   4.667 -0.3108  0.4526 -0.2104
35054POPC   GL266631  15.610  28.005   4.906  0.0106  0.1904 -0.0907
35054POPC   C1A66632  15.927  27.602   5.008  0.1156 -0.1827 -0.2066
35054POPC   D2A66633  16.257  27.693   5.260  0.2117 -0.0684  0.0834
35054POPC   C3A66634  16.089  27.877   5.649 -0.0787  0.0649  0.1026
35054POPC   C4A66635  15.869  28.105   5.953 -0.0738  0.0725  0.0299
35054POPC   C1B66636  16.076  28.103   5.002  0.2300  0.0767  0.2463
35054POPC   C2B66637  16.185  28.313   5.379  0.3223 -0.3689  0.0209
35054POPC   C3B66638  16.311  28.265   5.819  0.1054 -0.1185  0.3940
35054POPC   C4B66639  16.656  28.442   6.031  0.1658 -0.0763 -0.1250
35055POPC   NC366640  13.920  23.063   6.361 -0.2018  0.1917  0.1024
35055POPC   PO466641  14.091  23.375   6.122 -0.1390  0.2213 -0.3543
35055POPC   GL166642  14.206  23.629   6.418 -0.2731 -0.2194  0.1150
35055POPC   GL266643  14.385  23.765   6.264  0.1960 -0.0037  0.1592
35055POPC   C1A66644  14.462  23.642   6.844  0.2865 -0.2935  0.0324
35055POPC   D2A66645  14.513  23.619   7.275 -0.2001 -0.0257 -0.0947
35055POPC   C3A66646  14.698  23.672   7.661  0.2618 -0.2355  0.1796
35055POPC   C4A66647  14.789  24.117   7.849  0.3184  0.4466  0.0010
35055POPC   C1B66648  14.781  23.570   6.449 -0.2935 -0.1710 -0.1728
35055POPC   C2B66649  14.957  23.579   6.841 -0.0866  0.2364  0.0064
35055POPC   C3B66650  14.985  23.634   7.271 -0.1253  0.1704  0.1035
35055POPC   C4B66651  15.189  23.930   7.578 -0.1018 -0.0649  0.1621
35056POPC   NC366652   2.162  30.748   3.570  0.0179  0.1051  0.0306
35056POPC   PO466653   1.882  30.717   3.817  0.0052 -0.3285  0.1684
35056POPC   GL166654   1.709  30.740   4.180 -0.1431  0.3602  0.0389
35056POPC   GL266655   1.946  30.946   4.355  0.0317  0.0301  0.0799
35056POPC   C1A66656   1.380  30.661   4.512  0.0756  0.1541  0.0132
35056POPC   D2A66657   1.318  30.767   4.961 -0.0964 -0.1275 -0.3976
35056POPC   C3A66658   1.584  30.427   5.173  0.1201  0.0296  0.0150
35056POPC   C4A66659   1.948  30.134   5.262  0.0223 -0.1960  0.0428
35056POPC   C1B66660   1.864  30.714   4.774 -0.0271  0.0360 -0.1821
35056POPC   C2B66661   2.116  30.586   5.189 -0.2112 -0.0270  0.3954
35056POPC   C3B66662   2.276  30.484   5.575  0.0356  0.2176  0.1102
35056POPC   C4B66663   2.062  30.247   5.894 -0.1454  0.0389  0.0448
35057POPC   NC366664   7.618  20.870   7.059 -0.2136  0.1110  0.1725
35057POPC   PO466665   7.261  20.858   7.211  0.1369 -0.1468 -0.1227
35057POPC   GL166666   6.980  20.783   7.500 -0.0624 -0.0980 -0.1196
35057POPC   GL266667   6.831  21.021   7.468  0.0017 -0.0486 -0.0480
35057POPC   C1A66668   7.101  20.812   7.973 -0.2756  0.0759  0.1745
35057POPC   D2A66669   6.930  20.890   8.374 -0.1495  0.1244  0.1963
35057POPC   C3A66670   7.126  20.678   8.742 -0.2179  0.0123 -0.0818
35057POPC   C4A66671   7.005  20.246   8.737  0.3096 -0.4286  0.0149
35057POPC   C1B66672   6.607  20.975   7.886 -0.0098 -0.1648 -0.0723
35057POPC   C2B66673   6.164  21.063   8.061 -0.4584  0.0052  0.2026
35057POPC   C3B66674   5.808  20.917   8.261  0.3487  0.5037 -0.0028
35057POPC   C4B66675   5.527  20.610   8.458  0.1037  0.1909  0.2496
35058POPC   NC366676  12.231  26.619   5.350  0.4303 -0.1111  0.0044
35058POPC   PO466677  12.123  26.371   5.657 -0.0619 -0.0153 -0.1705
35058POPC   GL166678  12.391  26.648   5.853  0.1370  0.1580 -0.2900
35058POPC   GL266679  12.531  26.818   5.680 -0.0254 -0.2615 -0.0516
35058POPC   C1A66680  12.373  26.692   6.309 -0.0132  0.0517 -0.3254
35058POPC   D2A66681  12.527  26.825   6.736  0.1074 -0.1597 -0.3530
35058POPC   C3A66682  12.355  26.767   7.192 -0.1098 -0.2236  0.1949
35058POPC   C4A66683  12.271  26.723   7.605 -0.0042  0.0491  0.1869
35058POPC   C1B66684  12.686  27.281   5.772  0.0012 -0.0443 -0.0013
35058POPC   C2B66685  12.682  27.588   6.161  0.1356  0.2288 -0.0653
35058POPC   C3B66686  12.735  27.948   6.474 -0.4720 -0.0071  0.2738
35058POPC   C4B66687  12.670  27.965   6.956  0.2801 -0.1105 -0.1934
35059POPC   NC366688  11.013  24.995   7.350  0.1231  0.2341  0.0173
35059POPC   PO466689  10.916  25.311   7.142  0.1025 -0.0778 -0.0123
35059POPC   GL166690  11.111  25.494   7.445  0.0671  0.4422 -0.1287
35059POPC   GL266691  11.383  25.444   7.515  0.2262 -0.0703 -0.2852
35059POPC   C1A66692  10.977  25.868   7.605  0.1298 -0.1469 -0.1567
35059POPC   D2A66693  10.691  26.221   7.656 -0.1831 -0.2164 -0.3121
35059POPC   C3A66694  10.720  26.535   8.057 -0.0469 -0.3001  0.3781
35059POPC   C4A66695  10.939  26.568   8.432 -0.1218 -0.0146  0.3582
35059POPC   C1B66696  11.097  25.497   7.949 -0.0090  0.0227 -0.3366
35059POPC   C2B66697  11.079  25.479   8.403  0.0923 -0.0864 -0.1452
35059POPC   C3B66698  11.133  25.791   8.688 -0.2738  0.1007  0.3668
35059POPC   C4B66699  11.135  26.167   9.064  0.2347 -0.1728 -0.0542
35060POPC   NC366700   4.756  28.614   4.042  0.0894  0.1380  0.0147
35060POPC   PO466701   4.391  28.501   4.179 -0.1948 -0.1010 -0.3469
35060POPC   GL166702   4.292  28.444   4.540 -0.0182  0.2665  0.0077
35060POPC   GL266703   4.064  28.673   4.557 -0.2920 -0.2091 -0.2333
35060POPC   C1A66704   4.380  28.598   4.961 -0.0531 -0.1250 -0.0711
35060POPC   D2A66705   4.167  28.693   5.370  0.1573 -0.0390 -0.5094
35060POPC   C3A66706   4.424  28.644   5.716  0.4206 -0.3652 -0.1204
35060POPC   C4A66707   4.268  28.596   6.155 -0.0972  0.0219  0.1137
35060POPC   C1B66708   4.044  28.914   4.924 -0.3365  0.0690  0.0612
35060POPC   C2B66709   4.283  29.163   5.198  0.0395  0.1468  0.0555
35060POPC   C3B66710   4.265  29.089   5.669  0.0578 -0.2408 -0.0938
35060POPC   C4B66711   4.129  29.152   6.092 -0.0235  0.1084  0.0154
35061POPC   NC366712   2.192  21.001   4.774  0.0852 -0.0389  0.1567
35061POPC   PO466713   2.335  20.672   4.877 -0.1444 -0.0069 -0.0933
35061POPC   GL166714   2.052  20.663   5.229 -0.0389  0.1389 -0.0067
35061POPC   GL266715   2.012  20.707   5.493 -0.2521 -0.2397 -0.1785
35061POPC   C1A66716   2.033  20.240   5.459  0.2223  0.0130 -0.0661
35061POPC   D2A66717   1.953  19.896   5.735 -0.2792  0.1791 -0.4579
35061POPC   C3A66718   2.240  19.610   5.950 -0.0421  0.0527 -0.0955
35061POPC   C4A66719   2.602  19.747   6.156 -0.1997 -0.0324  0.1513
35061POPC   C1B66720   1.860  20.440   5.879  0.1983 -0.1817 -0.1629
35061POPC   C2B66721   1.716  20.232   6.233  0.1421  0.0483 -0.3805
35061POPC   C3B66722   1.455  20.127   6.586 -0.0188  0.3148  0.1761
35061POPC   C4B66723   1.079  20.198   6.769 -0.0382 -0.1839 -0.0756
35062POPC   NC366724  13.485  25.303   5.825  0.1456  0.0326 -0.2540
35062POPC   PO466725  13.643  24.957   5.795  0.1675  0.0003 -0.0043
35062POPC   GL166726  13.830  25.037   6.090  0.2890  0.0732  0.0012
35062POPC   GL266727  14.121  24.902   6.133 -0.1409 -0.2723  0.2382
35062POPC   C1A66728  14.025  25.320   6.352  0.2586 -0.1446 -0.1845
35062POPC   D2A66729  14.175  25.398   6.796  0.2050  0.1591  0.0668
35062POPC   C3A66730  14.497  25.524   7.060  0.2236  0.0134  0.2963
35062POPC   C4A66731  14.653  25.761   7.410 -0.0298  0.2130 -0.0026
35062POPC   C1B66732  14.282  24.967   6.569 -0.0685  0.1411 -0.4935
35062POPC   C2B66733  14.642  25.039   6.877  0.0893 -0.3412 -0.1515
35062POPC   C3B66734  14.989  25.229   7.108 -0.2821 -0.0927  0.1201
35062POPC   C4B66735  15.405  25.179   7.314  0.1776  0.2292 -0.0593
35063POPC   NC366736   4.679  27.374   5.002 -0.3549 -0.0122  0.0243
35063POPC   PO466737   4.872  27.711   4.907  0.0608 -0.0117  0.0998
35063POPC   GL166738   4.895  27.738   5.291  0.2054  0.3048 -0.1180
35063POPC   GL266739   4.610  27.717   5.353  0.1081 -0.5040  0.1193
35063POPC   C1A66740   5.274  27.908   5.456  0.0808  0.1942 -0.1641
35063POPC   D2A66741   5.593  28.170   5.533 -0.3087  0.0748  0.0614
35063POPC   C3A66742   5.497  28.527   5.782  0.1196 -0.3408  0.2609
35063POPC   C4A66743   5.437  28.626   6.268 -0.0675  0.1033  0.0016
35063POPC   C1B66744   4.817  28.006   5.597 -0.0033 -0.2332  0.1727
35063POPC   C2B66745   4.738  28.287   5.955 -0.1092 -0.0273  0.3368
35063POPC   C3B66746   4.962  28.471   6.329 -0.0646 -0.0748 -0.0444
35063POPC   C4B66747   5.013  28.731   6.653  0.0489  0.0047 -0.0145
35064POPC   NC366748  11.122  21.107   8.234 -0.3845  0.0728  0.1243
35064POPC   PO466749  11.145  21.493   8.252 -0.0190 -0.0238 -0.2013
35064POPC   GL166750  11.353  21.319   8.532 -0.1374 -0.3676 -0.0069
35064POPC   GL266751  11.645  21.322   8.409 -0.0404 -0.0660  0.1991
35064POPC   C1A66752  11.400  20.983   8.780 -0.1647  0.1016 -0.1297
35064POPC   D2A66753  11.284  20.738   9.087  0.1679  0.3731 -0.2728
35064POPC   C3A66754  11.667  20.573   9.363 -0.2430  0.1914  0.0675
35064POPC   C4A66755  12.033  20.499   9.638  0.0295  0.0044  0.1330
35064POPC   C1B66756  11.952  21.033   8.573  0.1528 -0.1781  0.0365
35064POPC   C2B66757  12.246  20.695   8.546 -0.0174  0.2904 -0.1396
35064POPC   C3B66758  12.682  20.509   8.438  0.2232 -0.0033 -0.0952
35064POPC   C4B66759  13.106  20.685   8.508  0.0778 -0.0027  0.0857
35065POPC   NC366760  11.275  21.678  10.272 -0.3026 -0.0437  0.0941
35065POPC   PO466761  11.000  21.422  10.098  0.0611 -0.0671 -0.3267
35065POPC   GL166762  11.183  21.205  10.399 -0.1399  0.3378  0.1825
35065POPC   GL266763  11.017  20.979  10.503  0.2973  0.1296 -0.2229
35065POPC   C1A66764  11.602  21.151  10.589  0.0212 -0.2171  0.0269
35065POPC   D2A66765  11.926  21.057  10.905  0.3200  0.3345 -0.2356
35065POPC   C3A66766  12.344  20.875  10.781  0.0749 -0.2042 -0.2067
35065POPC   C4A66767  12.726  20.642  10.742 -0.0734  0.1239 -0.3665
35065POPC   C1B66768  11.054  20.520  10.509  0.0685  0.0947 -0.0323
35065POPC   C2B66769  10.721  20.142  10.714  0.0557 -0.2686 -0.0619
35065POPC   C3B66770  10.311  19.906  10.759  0.1403  0.1240  0.2404
35065POPC   C4B66771   9.897  19.914  11.033  0.1463 -0.1625  0.0449
35066POPC   NC366772   8.355  31.926   4.847 -0.1704  0.1410 -0.4600
35066POPC   PO466773   8.747  31.861   4.940  0.0777 -0.0368  0.0706
35066POPC   GL166774   8.897  31.896   5.250  0.2371 -0.0710 -0.2361
35066POPC   GL266775   9.142  31.812   5.336  0.3821  0.0471  0.0078
35066POPC   C1A66776   8.740  31.894   5.697 -0.2057 -0.1730  0.0938
35066POPC   D2A66777   8.737  32.010   6.171  0.3298 -0.2194  0.0066
35066POPC   C3A66778   8.621  31.728   6.550  0.0491 -0.1673  0.0469
35066POPC   C4A66779   8.804  31.571   6.875 -0.2607  0.1260 -0.1547
35066POPC   C1B66780   9.444  32.089   5.591 -0.2825 -0.1407 -0.0457
35066POPC   C2B66781   9.693  32.077   5.999  0.0242 -0.0607 -0.1882
35066POPC   C3B66782  10.010  31.858   6.224 -0.0477  0.1097  0.1985
35066POPC   C4B66783  10.155  31.478   6.515 -0.0901  0.1942  0.0107
35067POPC   NC366784   4.767  25.008   5.599 -0.0714 -0.1449 -0.2372
35067POPC   PO466785   5.010  24.729   5.735  0.2199  0.2711  0.2782
35067POPC   GL166786   4.726  24.820   6.039  0.0283 -0.1574  0.3008
35067POPC   GL266787   4.931  25.052   6.108 -0.0218  0.1628  0.0605
35067POPC   C1A66788   4.358  25.015   6.115  0.1741  0.0742 -0.0857
35067POPC   D2A66789   4.082  24.980   6.510  0.0978 -0.3837 -0.0314
35067POPC   C3A66790   3.877  24.573   6.678  0.1875  0.3235  0.0810
35067POPC   C4A66791   3.642  24.324   6.995 -0.0985  0.0324  0.0660
35067POPC   C1B66792   4.770  25.145   6.575 -0.1362  0.0056 -0.0484
35067POPC   C2B66793   4.847  25.015   7.029  0.0580 -0.1003 -0.2836
35067POPC   C3B66794   4.834  24.610   7.265  0.0923  0.0249 -0.3036
35067POPC   C4B66795   5.006  24.193   7.031  0.2366  0.0493 -0.5056
35068POPC   NC366796   8.247  25.611   6.648  0.0626  0.0098 -0.1177
35068POPC   PO466797   8.198  25.455   7.020 -0.1843  0.0948  0.2807
35068POPC   GL166798   8.246  25.529   7.366  0.1826 -0.2982  0.2324
35068POPC   GL266799   8.077  25.370   7.514 -0.0856  0.0877 -0.0907
35068POPC   C1A66800   8.405  25.536   7.880 -0.0879 -0.1537  0.0777
35068POPC   D2A66801   8.480  25.667   8.346  0.3768  0.2629 -0.1348
35068POPC   C3A66802   8.903  25.791   8.532 -0.0660  0.1319 -0.0909
35068POPC   C4A66803   9.082  26.088   8.839  0.0385  0.2108  0.1361
35068POPC   C1B66804   7.751  25.471   7.825 -0.3644 -0.2717  0.3625
35068POPC   C2B66805   7.635  25.868   7.938  0.0119  0.0290  0.2088
35068POPC   C3B66806   7.581  26.231   8.159  0.1408 -0.1408 -0.1135
35068POPC   C4B66807   7.719  26.698   8.263 -0.0882 -0.0455  0.0169
35069POPC   NC366808  10.491  27.223   5.506 -0.0878  0.2936  0.1669
35069POPC   PO466809  10.803  27.137   5.273 -0.0619 -0.3977 -0.1839
35069POPC   GL166810  11.027  27.301   5.552  0.1226 -0.0437  0.0279
35069POPC   GL266811  11.111  27.591   5.485  0.3927 -0.0452  0.0103
35069POPC   C1A66812  10.888  27.526   5.913 -0.0581 -0.1249  0.0903
35069POPC   D2A66813  11.064  27.878   6.175 -0.0175 -0.1471  0.0988
35069POPC   C3A66814  11.452  27.788   6.391  0.2159 -0.1687  0.1841
35069POPC   C4A66815  11.833  28.149   6.386  0.3559 -0.3674  0.1067
35069POPC   C1B66816  11.393  27.811   5.810  0.0049 -0.2291  0.0812
35069POPC   C2B66817  11.463  28.198   6.004 -0.2927 -0.1713 -0.1592
35069POPC   C3B66818  11.691  28.629   6.065  0.2652 -0.1308 -0.0106
35069POPC   C4B66819  12.091  28.761   6.276  0.2556  0.3460 -0.3343
35070POPC   NC366820  10.558  28.389   4.756 -0.0650  0.1062 -0.1847
35070POPC   PO466821  10.618  28.759   4.781  0.2193 -0.1354  0.0876
35070POPC   GL166822  10.552  29.177   4.822 -0.0954 -0.0631  0.1395
35070POPC   GL266823  10.776  29.419   4.899 -0.0217 -0.0880 -0.0167
35070POPC   C1A66824  10.364  29.335   5.236  0.1709 -0.1366 -0.2004
35070POPC   D2A66825  10.120  29.378   5.658  0.0330  0.1990  0.2900
35070POPC   C3A66826  10.000  29.785   5.893  0.1352 -0.0224  0.0208
35070POPC   C4A66827   9.888  29.970   6.303  0.2473 -0.2186 -0.2292
35070POPC   C1B66828  10.868  29.537   5.304 -0.3406  0.0860 -0.1621
35070POPC   C2B66829  10.706  29.494   5.798 -0.0404  0.1433  0.0198
35070POPC   C3B66830  10.434  29.553   6.171  0.0610 -0.0661 -0.3107
35070POPC   C4B66831  10.355  29.678   6.630 -0.0702  0.2785  0.1319
35071POPC   NC366832   9.889  21.408  12.636  0.1124 -0.2446  0.1441
35071POPC   PO466833  10.124  21.718  12.576  0.0991  0.2214 -0.0268
35071POPC   GL166834  10.193  21.387  12.322  0.0305  0.0309 -0.1498
35071POPC   GL266835  10.320  21.232  12.549 -0.0384  0.0670 -0.0370
35071POPC   C1A66836  10.074  20.941  12.218  0.1891  0.1768 -0.2054
35071POPC   D2A66837  10.089  20.448  12.222 -0.0305 -0.1569  0.1222
35071POPC   C3A66838  10.189  20.247  11.859  0.2395 -0.0095  0.0143
35071POPC   C4A66839  10.245  19.978  11.493  0.1041  0.0607 -0.1218
35071POPC   C1B66840  10.481  20.791  12.539 -0.1428 -0.0168 -0.0449
35071POPC   C2B66841  10.603  20.372  12.439 -0.1571  0.1809  0.1108
35071POPC   C3B66842  10.731  19.922  12.525  0.1860  0.1651  0.4305
35071POPC   C4B66843  10.962  19.839  12.933 -0.0236  0.0563 -0.0979
35072POPC   NC366844  15.539  21.962   4.869  0.3025  0.3446  0.0683
35072POPC   PO466845  15.557  22.080   5.254 -0.3400  0.3812  0.0186
35072POPC   GL166846  15.534  22.281   5.632  0.0658 -0.2639 -0.0323
35072POPC   GL266847  15.791  22.292   5.757 -0.1409  0.2453  0.0905
35072POPC   C1A66848  15.353  22.247   6.033  0.1033  0.1012  0.2108
35072POPC   D2A66849  15.333  22.349   6.460  0.1438  0.1518  0.1170
35072POPC   C3A66850  15.423  22.638   6.871 -0.2245 -0.0175 -0.3250
35072POPC   C4A66851  15.755  22.714   7.203 -0.2833 -0.4334 -0.1560
35072POPC   C1B66852  15.809  22.331   6.190  0.1166 -0.2085 -0.1021
35072POPC   C2B66853  15.812  22.437   6.655  0.2638  0.1256  0.3314
35072POPC   C3B66854  15.681  22.254   7.010  0.3193  0.2993 -0.2754
35072POPC   C4B66855  15.424  22.337   7.384 -0.1012 -0.0607 -0.1194
35073POPC   NC366856   4.370  27.062   4.365 -0.0752 -0.2092  0.1633
35073POPC   PO466857   4.450  26.991   4.755 -0.1909  0.3249  0.2098
35073POPC   GL166858   4.204  27.218   4.913  0.0081 -0.2069 -0.2279
35073POPC   GL266859   3.934  27.237   4.795 -0.0737  0.3118 -0.3501
35073POPC   C1A66860   4.162  27.573   5.198 -0.0115  0.1222  0.1884
35073POPC   D2A66861   3.971  27.920   5.392 -0.1442  0.3966 -0.2224
35073POPC   C3A66862   3.696  27.884   5.761  0.1578  0.1295  0.0061
35073POPC   C4A66863   3.331  28.041   5.944  0.1247  0.0955  0.0967
35073POPC   C1B66864   3.841  27.184   5.259 -0.5462 -0.0463 -0.0347
35073POPC   C2B66865   3.795  27.343   5.667 -0.1287  0.2830  0.0464
35073POPC   C3B66866   3.913  27.478   6.096  0.0822  0.0237 -0.1125
35073POPC   C4B66867   3.731  27.575   6.519 -0.0699  0.0019 -0.2484
35074POPC   NC366868   3.577  20.301   5.726  0.0597 -0.2900  0.0503
35074POPC   PO466869   3.962  20.312   5.808 -0.1629 -0.1173 -0.3186
35074POPC   GL166870   4.001  20.133   6.216  0.4925 -0.1095  0.0739
35074POPC   GL266871   3.677  20.144   6.250 -0.0823 -0.0552 -0.1946
35074POPC   C1A66872   4.045  20.096   6.652  0.1272  0.2198  0.0976
35074POPC   D2A66873   3.761  20.073   7.023  0.0563 -0.2211  0.2817
35074POPC   C3A66874   3.799  19.806   7.414  0.1027 -0.0478 -0.1432
35074POPC   C4A66875   3.762  19.601   7.769 -0.1403  0.0709 -0.1071
35074POPC   C1B66876   3.544  20.278   6.648  0.0096  0.1525  0.4668
35074POPC   C2B66877   3.259  20.278   6.993  0.3121  0.0962  0.0126
35074POPC   C3B66878   3.178  20.101   7.430 -0.1485  0.1975  0.0779
35074POPC   C4B66879   3.267  19.833   7.815  0.0567  0.0026  0.0707
35075POPC   NC366880  12.426  25.576   6.399  0.2592  0.0168 -0.3093
35075POPC   PO466881  12.619  25.805   6.131  0.1581 -0.1198  0.1539
35075POPC   GL166882  13.015  26.010   6.254 -0.2891  0.1151  0.1078
35075POPC   GL266883  13.145  25.784   6.253  0.0610 -0.0802 -0.0862
35075POPC   C1A66884  12.937  26.094   6.693  0.0227  0.0943  0.0624
35075POPC   D2A66885  13.192  26.066   7.127  0.2878  0.0229  0.2206
35075POPC   C3A66886  13.388  26.356   7.433  0.0637 -0.0980  0.1363
35075POPC   C4A66887  13.724  26.674   7.569  0.1725  0.2417 -0.3397
35075POPC   C1B66888  13.270  25.757   6.695 -0.1762  0.1375 -0.0894
35075POPC   C2B66889  13.474  25.664   7.159 -0.2349  0.1589 -0.0770
35075POPC   C3B66890  13.567  25.838   7.555  0.0277 -0.1312 -0.1039
35075POPC   C4B66891  13.895  26.089   7.746  0.1449  0.1285 -0.1309
35076POPC   NC366892  10.672  19.416   6.544 -0.3851 -0.3533 -0.0527
35076POPC   PO466893  10.366  19.639   6.496  0.0768  0.1066 -0.0097
35076POPC   GL166894  10.294  19.387   6.800  0.1095  0.2144 -0.0997
35076POPC   GL266895  10.322  19.061   6.743  0.1561  0.0292  0.1055
35076POPC   C1A66896  10.481  19.457   7.182 -0.1754 -0.1241  0.2418
35076POPC   D2A66897  10.621  19.375   7.568  0.1860 -0.1616 -0.0443
35076POPC   C3A66898  10.681  18.966   7.647 -0.0152  0.0814 -0.1401
35076POPC   C4A66899  10.916  18.563   7.580  0.0999 -0.2353 -0.1095
35076POPC   C1B66900  10.407  18.635   6.966  0.4340 -0.1719 -0.1365
35076POPC   C2B66901  10.495  18.348   7.301  0.3269  0.0329  0.2487
35076POPC   C3B66902  10.656  18.041   7.675  0.2106 -0.0001 -0.2234
35076POPC   C4B66903  10.994  18.157   7.968  0.2843  0.0758  0.0785
35077POPC   NC366904   8.082  29.520   4.651  0.0542  0.2641 -0.3052
35077POPC   PO466905   8.004  29.343   4.966 -0.0264  0.0113  0.1064
35077POPC   GL166906   7.920  29.224   5.288  0.1098  0.0060 -0.1295
35077POPC   GL266907   7.938  29.363   5.498 -0.1705  0.3619 -0.0392
35077POPC   C1A66908   7.761  28.960   5.657  0.1398 -0.3659 -0.0253
35077POPC   D2A66909   7.698  28.937   6.077 -0.0141 -0.2453  0.3071
35077POPC   C3A66910   7.866  29.252   6.371 -0.1082 -0.2309 -0.1545
35077POPC   C4A66911   7.950  29.581   6.679 -0.2881  0.2094  0.1308
35077POPC   C1B66912   7.702  29.554   5.878 -0.3160 -0.2934 -0.0505
35077POPC   C2B66913   7.708  29.853   6.228  0.0654  0.2972  0.1772
35077POPC   C3B66914   7.804  30.069   6.632 -0.0649  0.0690 -0.1165
35077POPC   C4B66915   7.557  30.388   6.881 -0.2146  0.3090  0.0445
35078POPC   NC366916  14.813  24.355   5.425 -0.1953 -0.1828  0.1800
35078POPC   PO466917  15.182  24.450   5.567 -0.2475 -0.2985  0.2054
35078POPC   GL166918  15.234  24.587   5.905  0.0526 -0.0358 -0.0573
35078POPC   GL266919  15.255  24.875   5.907 -0.0488  0.1431 -0.0951
35078POPC   C1A66920  15.209  24.687   6.392 -0.2469  0.1926  0.0583
35078POPC   D2A66921  15.397  24.907   6.842  0.1309  0.1343  0.1579
35078POPC   C3A66922  15.670  24.738   7.139  0.3787 -0.2517  0.1643
35078POPC   C4A66923  15.818  24.447   7.424 -0.1566  0.0598 -0.0891
35078POPC   C1B66924  15.013  25.231   6.133 -0.0215 -0.1262  0.0510
35078POPC   C2B66925  14.814  25.648   6.063 -0.0788 -0.2040  0.2842
35078POPC   C3B66926  14.731  26.002   6.330  0.3408 -0.1576 -0.0669
35078POPC   C4B66927  14.402  26.323   6.358  0.1366 -0.0143 -0.0273
35079POPC   NC366928   3.858  23.278   5.576 -0.0287  0.0717  0.2570
35079POPC   PO466929   3.601  23.575   5.510  0.3542 -0.0480  0.1672
35079POPC   GL166930   3.470  23.335   5.776  0.1016  0.1866  0.0309
35079POPC   GL266931   3.644  23.541   6.006 -0.1189  0.1647  0.0750
35079POPC   C1A66932   3.218  23.327   6.195 -0.0182  0.3891  0.1498
35079POPC   D2A66933   2.959  22.988   6.315  0.0163 -0.1353  0.2553
35079POPC   C3A66934   3.088  22.912   6.787  0.1846 -0.3205  0.2199
35079POPC   C4A66935   3.451  22.798   7.070 -0.0830 -0.0169 -0.1821
35079POPC   C1B66936   3.521  23.722   6.416  0.1053 -0.0657  0.0072
35079POPC   C2B66937   3.458  23.845   6.856  0.0359  0.0661 -0.2136
35079POPC   C3B66938   3.310  23.936   7.248  0.1832 -0.3121  0.0250
35079POPC   C4B66939   3.549  23.980   7.654  0.1549  0.0783  0.2390
35080POPC   NC366940  13.989  17.615   3.788  0.0425 -0.1600 -0.1783
35080POPC   PO466941  13.631  17.677   3.904 -0.1533  0.0371 -0.2445
35080POPC   GL166942  13.800  17.658   4.324 -0.0672 -0.1870  0.0070
35080POPC   GL266943  13.590  17.706   4.533 -0.3409 -0.0307 -0.3564
35080POPC   C1A66944  14.165  17.642   4.587  0.0435  0.2974 -0.2677
35080POPC   D2A66945  14.613  17.510   4.700  0.1055 -0.1481  0.3364
35080POPC   C3A66946  14.883  17.534   5.086  0.0272 -0.1126 -0.2436
35080POPC   C4A66947  14.819  17.385   5.578  0.1817  0.2080  0.1476
35080POPC   C1B66948  13.711  17.578   4.978  0.0728 -0.0518  0.2089
35080POPC   C2B66949  13.936  17.516   5.374  0.1506  0.0679 -0.0614
35080POPC   C3B66950  14.293  17.593   5.611 -0.0976 -0.2553 -0.1338
35080POPC   C4B66951  14.699  17.855   5.444 -0.1079  0.0528  0.0192
35081POPC   NC366952  13.307  19.004   5.079  0.0171 -0.1367 -0.1933
35081POPC   PO466953  13.562  19.261   5.090  0.0298 -0.1077  0.1609
35081POPC   GL166954  13.702  19.233   5.428 -0.0256  0.1442 -0.0358
35081POPC   GL266955  14.015  19.122   5.320  0.0251 -0.0714  0.1357
35081POPC   C1A66956  13.809  19.050   5.839  0.0105  0.0869  0.1597
35081POPC   D2A66957  13.946  18.914   6.261 -0.0972  0.0660 -0.0581
35081POPC   C3A66958  13.649  18.558   6.213  0.3122 -0.1959 -0.3289
35081POPC   C4A66959  13.586  18.138   6.471 -0.3096  0.0031  0.0645
35081POPC   C1B66960  14.276  19.226   5.660  0.2061  0.4671 -0.0047
35081POPC   C2B66961  14.404  19.136   6.083  0.1366 -0.1779  0.0919
35081POPC   C3B66962  14.652  19.222   6.468  0.0515  0.0255 -0.2629
35081POPC   C4B66963  14.797  18.985   6.902 -0.0866 -0.0745  0.1771
35082POPC   NC366964   6.483  23.243   7.304  0.0475  0.0835 -0.3221
35082POPC   PO466965   6.355  23.208   6.958  0.1290 -0.4912  0.0827
35082POPC   GL166966   6.055  23.495   7.109  0.0280  0.0514 -0.0276
35082POPC   GL266967   5.854  23.358   7.203 -0.0845  0.4207  0.1200
35082POPC   C1A66968   5.899  23.888   7.204 -0.2440  0.1989  0.0896
35082POPC   D2A66969   5.764  24.287   7.371 -0.3267 -0.0537  0.0847
35082POPC   C3A66970   5.511  24.667   7.469  0.0628 -0.1119 -0.0587
35082POPC   C4A66971   5.426  24.881   7.895  0.0892  0.4090  0.1256
35082POPC   C1B66972   5.399  23.355   7.261 -0.0918  0.0674 -0.3304
35082POPC   C2B66973   5.125  23.403   7.637  0.2437 -0.2100  0.0658
35082POPC   C3B66974   5.092  23.433   8.101 -0.0278  0.1280  0.4300
35082POPC   C4B66975   5.297  23.287   8.474 -0.0331 -0.2322 -0.4352
35083POPC   NC366976   2.208  25.768   4.697 -0.1882  0.1989  0.3758
35083POPC   PO466977   2.165  26.174   4.784  0.2127  0.0793  0.2437
35083POPC   GL166978   1.985  26.273   5.135  0.1780  0.4243  0.1662
35083POPC   GL266979   1.936  26.617   5.137 -0.0796 -0.1459 -0.1187
35083POPC   C1A66980   1.801  25.934   5.417 -0.2049  0.1687 -0.0733
35083POPC   D2A66981   1.872  25.864   5.837  0.1881  0.1261  0.1831
35083POPC   C3A66982   2.258  25.993   6.080  0.3084 -0.0264  0.0746
35083POPC   C4A66983   2.632  26.209   6.368  0.0236 -0.1582 -0.4231
35083POPC   C1B66984   1.814  26.839   5.554  0.0721 -0.1324 -0.0571
35083POPC   C2B66985   1.704  27.095   5.920  0.0230  0.0610  0.0238
35083POPC   C3B66986   1.709  27.502   6.094 -0.0673 -0.1354 -0.0814
35083POPC   C4B66987   1.799  27.793   6.462  0.0779  0.3645  0.2991
35084POPC   NC366988  15.147  19.625   4.990 -0.0960  0.0019  0.2777
35084POPC   PO466989  14.781  19.809   4.964 -0.0214 -0.1865  0.3031
35084POPC   GL166990  14.859  19.682   5.317 -0.1053 -0.0701 -0.1088
35084POPC   GL266991  14.800  19.808   5.627 -0.0090 -0.1519 -0.1012
35084POPC   C1A66992  14.789  19.280   5.602  0.0420 -0.2785 -0.0618
35084POPC   D2A66993  14.870  19.084   5.979 -0.0143 -0.1155  0.3017
35084POPC   C3A66994  15.152  19.281   6.333 -0.1056 -0.0472 -0.1289
35084POPC   C4A66995  15.076  19.445   6.761 -0.1069  0.1929  0.2122
35084POPC   C1B66996  14.618  19.549   5.985 -0.1791 -0.2279  0.1738
35084POPC   C2B66997  14.456  19.659   6.355 -0.4114  0.0345  0.2870
35084POPC   C3B66998  14.550  19.558   6.818 -0.0767 -0.1598 -0.0411
35084POPC   C4B66999  14.445  19.185   7.137 -0.0379  0.1111 -0.2011
35085POPC   NC367000  13.796  27.091   4.183  0.2643  0.0244  0.1254
35085POPC   PO467001  13.598  27.266   4.462 -0.0708  0.1264 -0.0849
35085POPC   GL167002  13.809  27.204   4.863  0.1069 -0.0409  0.1950
35085POPC   GL267003  13.892  27.494   4.946 -0.1605 -0.0329  0.0973
35085POPC   C1A67004  14.138  27.167   5.227 -0.0752  0.2251 -0.1521
35085POPC   D2A67005  14.391  27.299   5.633  0.4249  0.1330  0.0712
35085POPC   C3A67006  14.191  27.512   5.996  0.1587 -0.1353  0.1103
35085POPC   C4A67007  14.150  27.801   6.338 -0.1621 -0.2890 -0.1731
35085POPC   C1B67008  13.837  27.850   5.092 -0.1588  0.0239 -0.1845
35085POPC   C2B67009  13.948  28.275   5.311 -0.0467 -0.0479 -0.0217
35085POPC   C3B67010  14.205  28.467   5.641  0.1990 -0.0634  0.0171
35085POPC   C4B67011  14.147  28.639   6.092  0.1994  0.1626 -0.0688
35086POPC   NC367012   4.423  32.314   4.549 -0.0940  0.0097 -0.0622
35086POPC   PO467013   4.651  32.669   4.527 -0.1395 -0.1914  0.1463
35086POPC   GL167014   4.677  32.745   4.844 -0.0502  0.0341  0.1979
35086POPC   GL267015   4.683  32.443   4.965  0.0147  0.0557 -0.0813
35086POPC   C1A67016   4.204  32.594   5.040 -0.0699  0.0675  0.3413
35086POPC   D2A67017   3.916  32.717   5.412  0.2503 -0.1318  0.5074
35086POPC   C3A67018   3.778  33.104   5.652  0.0588 -0.1804 -0.2189
35086POPC   C4A67019   3.535  33.434   5.891 -0.2483 -0.2226 -0.2762
35086POPC   C1B67020   4.572  32.701   5.360  0.2194 -0.1228  0.1830
35086POPC   C2B67021   4.708  32.623   5.769 -0.3760 -0.0020 -0.0147
35086POPC   C3B67022   4.634  32.416   6.184  0.0722 -0.1811 -0.0517
35086POPC   C4B67023   4.705  32.529   6.601 -0.2375 -0.2248  0.1104
35087POPC   NC367024  11.585  21.408   7.458 -0.0563  0.0710 -0.1904
35087POPC   PO467025  11.873  21.645   7.301  0.4670  0.0830 -0.3047
35087POPC   GL167026  12.349  21.779   7.451  0.4464  0.1085 -0.0048
35087POPC   GL267027  12.372  21.532   7.314 -0.0374 -0.0437  0.2455
35087POPC   C1A67028  12.760  21.862   7.584 -0.1629  0.0519  0.2005
35087POPC   D2A67029  13.211  21.927   7.626  0.2479 -0.0409 -0.0198
35087POPC   C3A67030  13.577  21.938   7.839  0.2106  0.0423  0.0003
35087POPC   C4A67031  13.946  21.961   8.079  0.2498  0.0230 -0.2946
35087POPC   C1B67032  12.591  21.410   7.675  0.1650 -0.1923  0.1811
35087POPC   C2B67033  12.701  21.393   8.123  0.1384  0.0657  0.1026
35087POPC   C3B67034  12.989  21.543   8.460 -0.0425  0.1690  0.0707
35087POPC   C4B67035  13.243  21.606   8.846  0.0128 -0.3624 -0.0784
35088POPC   NC367036   1.716  25.872   4.947  0.0143  0.0965  0.2080
35088POPC   PO467037   1.404  25.709   4.773 -0.0228 -0.0744  0.1929
35088POPC   GL167038   1.253  25.584   5.069  0.0934  0.1751 -0.0344
35088POPC   GL267039   1.403  25.431   5.215  0.1379  0.2199  0.0613
35088POPC   C1A67040   0.996  25.294   5.385  0.2120  0.0925 -0.2630
35088POPC   D2A67041   0.676  25.193   5.779  0.1784  0.0881 -0.0568
35088POPC   C3A67042   0.559  25.337   6.188 -0.2911 -0.2096 -0.3698
35088POPC   C4A67043   0.331  25.669   6.462  0.2327  0.2963  0.2882
35088POPC   C1B67044   1.231  25.754   5.549 -0.0191 -0.0547 -0.0375
35088POPC   C2B67045   1.059  26.103   5.753 -0.1204  0.1021  0.0623
35088POPC   C3B67046   0.855  26.465   5.985 -0.0565  0.0058 -0.0523
35088POPC   C4B67047   0.939  26.780   6.323 -0.1725 -0.2507 -0.1415
35089POPC   NC367048  12.864  24.745   5.581 -0.2072  0.2452 -0.2375
35089POPC   PO467049  13.017  25.076   5.761 -0.0736  0.2212  0.0632
35089POPC   GL167050  12.883  25.348   6.124 -0.0200  0.3326  0.1343
35089POPC   GL267051  13.164  25.306   6.251  0.2685 -0.0064 -0.1026
35089POPC   C1A67052  12.802  25.255   6.566  0.3126  0.2028  0.1498
35089POPC   D2A67053  12.754  25.582   6.934 -0.3103 -0.0196 -0.2014
35089POPC   C3A67054  12.666  25.838   7.277  0.4828 -0.1487  0.1369
35089POPC   C4A67055  12.365  26.176   7.510 -0.0103  0.0488  0.0757
35089POPC   C1B67056  13.583  25.483   6.355  0.0678  0.1669 -0.1538
35089POPC   C2B67057  13.786  25.734   6.722 -0.1413  0.0047 -0.1268
35089POPC   C3B67058  13.840  26.048   7.097 -0.0208 -0.2053  0.0260
35089POPC   C4B67059  14.078  26.333   7.324  0.0675  0.2426  0.5927
35090POPC   NC367060   9.143  20.476   7.223  0.1097  0.0090 -0.2218
35090POPC   PO467061   9.125  20.577   7.618  0.2862 -0.0491  0.0343
35090POPC   GL167062   8.826  20.394   7.759 -0.0549 -0.0242  0.1850
35090POPC   GL267063   8.984  20.251   8.024  0.1247  0.0439  0.1264
35090POPC   C1A67064   8.390  20.303   7.844  0.0427 -0.0499 -0.1341
35090POPC   D2A67065   7.995  20.090   8.052 -0.1952 -0.0934 -0.0023
35090POPC   C3A67066   7.941  20.151   8.474  0.0214  0.2558 -0.0777
35090POPC   C4A67067   7.982  20.315   8.910 -0.2410  0.2110  0.1374
35090POPC   C1B67068   8.935  19.944   8.341 -0.0711  0.2678 -0.2083
35090POPC   C2B67069   8.771  19.685   8.742  0.0809  0.0244  0.1168
35090POPC   C3B67070   8.842  19.404   9.073 -0.2304  0.2702  0.2858
35090POPC   C4B67071   9.154  19.236   9.434 -0.0282 -0.0927  0.2182
35091POPC   NC367072   1.223  24.739   4.807 -0.3665  0.0007  0.0801
35091POPC   PO467073   1.356  24.474   5.041 -0.1095  0.2877 -0.2032
35091POPC   GL167074   1.306  24.222   5.393 -0.3644  0.2760 -0.0349
35091POPC   GL267075   1.433  24.422   5.550  0.3789 -0.1160 -0.2824
35091POPC   C1A67076   1.073  24.263   5.832  0.2310  0.3503 -0.2128
35091POPC   D2A67077   0.781  24.288   6.170  0.0202  0.2541  0.0395
35091POPC   C3A67078   0.860  24.102   6.583  0.0034 -0.1409 -0.0353
35091POPC   C4A67079   0.753  23.985   7.069 -0.2833  0.1380 -0.1422
35091POPC   C1B67080   1.575  24.735   5.885  0.0295  0.2860 -0.6137
35091POPC   C2B67081   1.488  24.955   6.282 -0.4502 -0.1502  0.2395
35091POPC   C3B67082   1.317  24.912   6.688  0.0899 -0.0738  0.1250
35091POPC   C4B67083   1.015  25.072   6.967  0.2556 -0.2065  0.1103
35092POPC   NC367084   5.621  19.608   6.558 -0.0542 -0.0964  0.0896
35092POPC   PO467085   5.779  19.472   6.218 -0.2933 -0.0831  0.1664
35092POPC   GL167086   6.077  19.220   6.378 -0.0051 -0.1860 -0.0924
35092POPC   GL267087   5.922  19.154   6.562  0.2305 -0.1513 -0.1986
35092POPC   C1A67088   6.348  18.862   6.470  0.0512  0.1489  0.2090
35092POPC   D2A67089   6.339  18.516   6.785  0.1756 -0.1558  0.0313
35092POPC   C3A67090   6.369  18.685   7.189  0.0212  0.0057  0.1267
35092POPC   C4A67091   6.337  18.653   7.661  0.3675 -0.0120 -0.0142
35092POPC   C1B67092   5.977  18.862   6.904  0.1488 -0.0648  0.1054
35092POPC   C2B67093   5.897  18.508   7.213  0.0778  0.3938  0.0408
35092POPC   C3B67094   5.610  18.282   7.530  0.1871  0.0694  0.2611
35092POPC   C4B67095   5.303  18.337   7.828  0.1077  0.0891 -0.0644
35093POPC   NC367096   3.493   1.049   4.491 -0.2045 -0.1702  0.2139
35093POPC   PO467097   3.875   0.907   4.545  0.0370  0.0267 -0.1903
35093POPC   GL167098   3.696   0.662   4.764 -0.0222 -0.4884 -0.1030
35093POPC   GL267099   3.440   0.723   4.854  0.0449 -0.0202 -0.3215
35093POPC   C1A67100   3.934   0.368   5.029 -0.0647  0.2185  0.2780
35093POPC   D2A67101   4.227   0.192   5.406 -0.1913  0.0350  0.0322
35093POPC   C3A67102   4.380   0.450   5.762 -0.1075 -0.0795 -0.0085
35093POPC   C4A67103   4.657   0.222   6.038  0.0231 -0.0013 -0.1787
35093POPC   C1B67104   3.441   0.331   5.020 -0.2540  0.1453  0.1316
35093POPC   C2B67105   3.394   0.009   5.371  0.2062 -0.0036  0.1826
35093POPC   C3B67106   3.515  -0.197   5.780 -0.1743 -0.3680 -0.2618
35093POPC   C4B67107   3.580  -0.257   6.216  0.0159  0.0903 -0.0145
35094POPC   NC367108   6.998  27.608   5.590  0.2375 -0.2491  0.1726
35094POPC   PO467109   6.703  27.350   5.419  0.2193 -0.1949 -0.2087
35094POPC   GL167110   6.495  27.349   5.827 -0.2906  0.1039 -0.2406
35094POPC   GL267111   6.473  27.648   5.834  0.0633  0.2399 -0.2985
35094POPC   C1A67112   6.295  27.457   6.255  0.0634  0.0487  0.0846
35094POPC   D2A67113   6.412  27.685   6.592  0.0306  0.1313 -0.4130
35094POPC   C3A67114   6.117  28.017   6.729 -0.1232  0.2566  0.1987
35094POPC   C4A67115   5.770  28.044   7.001  0.1951 -0.0555 -0.0334
35094POPC   C1B67116   6.532  27.971   6.194  0.0682 -0.2302 -0.0646
35094POPC   C2B67117   6.739  28.040   6.636  0.3097 -0.1760  0.3613
35094POPC   C3B67118   6.778  28.358   7.016 -0.2926  0.0326  0.0024
35094POPC   C4B67119   6.440  28.455   7.308  0.2977 -0.1750 -0.2526
35095POPC   NC367120   9.919   0.579   5.316 -0.1480 -0.0010 -0.1042
35095POPC   PO467121   9.562   0.456   5.300  0.2129  0.1829 -0.0881
35095POPC   GL167122   9.617   0.168   5.717 -0.0579  0.0022  0.0080
35095POPC   GL267123   9.501   0.388   5.881  0.2187 -0.2522  0.0233
35095POPC   C1A67124   9.422  -0.161   6.037  0.0512 -0.1610  0.1312
35095POPC   D2A67125   9.573  -0.407   6.337 -0.1981  0.0750 -0.1254
35095POPC   C3A67126   9.595  -0.821   6.573  0.0862  0.0065  0.2098
35095POPC   C4A67127   9.844  -1.156   6.857 -0.5598 -0.0175 -0.1415
35095POPC   C1B67128   9.352   0.259   6.301  0.2665 -0.2855  0.0771
35095POPC   C2B67129   9.128  -0.042   6.559  0.1625 -0.1502  0.0685
35095POPC   C3B67130   8.792  -0.246   6.768  0.0008  0.0495  0.0185
35095POPC   C4B67131   8.520  -0.616   6.721  0.4574 -0.0876 -0.1360
35096POPC   NC367132   2.178  19.786   4.677 -0.0923  0.2729 -0.0161
35096POPC   PO467133   2.227  19.615   5.066  0.1108  0.0478  0.1385
35096POPC   GL167134   2.150  19.400   5.423  0.0162  0.0531  0.2064
35096POPC   GL267135   2.226  19.088   5.489  0.1189 -0.2836 -0.1414
35096POPC   C1A67136   1.873  19.334   5.767  0.0597  0.2041 -0.1445
35096POPC   D2A67137   2.008  19.295   6.212 -0.0875 -0.1040 -0.1079
35096POPC   C3A67138   2.286  19.537   6.484  0.2828  0.0097 -0.2574
35096POPC   C4A67139   2.506  19.284   6.758  0.0192 -0.0222  0.0275
35096POPC   C1B67140   2.029  18.856   5.801  0.1135 -0.0174 -0.1268
35096POPC   C2B67141   2.034  18.772   6.250 -0.1762 -0.0921 -0.0448
35096POPC   C3B67142   2.256  18.788   6.695  0.1666  0.1753  0.1987
35096POPC   C4B67143   2.472  18.650   7.088 -0.0678  0.1949 -0.1584
35097POPC   NC367144   9.087  19.874   6.980  0.1567 -0.1446  0.0777
35097POPC   PO467145   8.747  19.845   6.811  0.2871  0.1487  0.1480
35097POPC   GL167146   8.830  19.501   6.991  0.0775 -0.0934  0.3028
35097POPC   GL267147   8.658  19.596   7.245  0.1322  0.1675 -0.2382
35097POPC   C1A67148   9.078  19.090   7.126 -0.1189 -0.3470  0.1999
35097POPC   D2A67149   8.845  18.754   7.365  0.0379 -0.2566  0.0395
35097POPC   C3A67150   8.630  18.432   7.597  0.0671 -0.0062 -0.3366
35097POPC   C4A67151   8.715  18.246   8.000  0.3140 -0.1886 -0.0882
35097POPC   C1B67152   8.811  19.355   7.576 -0.2033  0.3551  0.1223
35097POPC   C2B67153   8.646  19.029   7.834 -0.0193  0.1454 -0.2104
35097POPC   C3B67154   8.622  18.723   8.223  0.0729 -0.1933 -0.5762
35097POPC   C4B67155   8.811  18.396   8.507 -0.2805 -0.0964  0.0554
35098POPC   NC367156  15.286  21.102   4.483 -0.2160 -0.0908  0.1940
35098POPC   PO467157  15.061  20.947   4.793 -0.1769 -0.1328  0.1369
35098POPC   GL167158  15.173  20.811   5.229  0.0428  0.0708  0.0735
35098POPC   GL267159  15.404  20.963   5.350 -0.0324 -0.0025 -0.2253
35098POPC   C1A67160  15.134  20.483   5.632 -0.0932  0.0197 -0.2432
35098POPC   D2A67161  15.184  20.067   5.801 -0.2429 -0.0614  0.0199
35098POPC   C3A67162  15.424  19.997   6.176  0.1060  0.0923 -0.2013
35098POPC   C4A67163  15.354  19.864   6.653  0.0593  0.2348  0.4997
35098POPC   C1B67164  15.319  20.996   5.792  0.3362 -0.2619 -0.1432
35098POPC   C2B67165  15.494  21.244   6.109 -0.1962 -0.1721  0.0621
35098POPC   C3B67166  15.515  21.384   6.551  0.2039  0.0361  0.0090
35098POPC   C4B67167  15.833  21.448   6.934 -0.0105 -0.0322  0.2323
35099POPC   NC367168  11.344  22.287   9.162 -0.0223  0.1324  0.0703
35099POPC   PO467169  11.211  22.128   9.508  0.0010 -0.2528 -0.0594
35099POPC   GL167170  11.588  22.087   9.638  0.2056  0.2551  0.1119
35099POPC   GL267171  11.652  21.860   9.821 -0.2218  0.2641  0.0288
35099POPC   C1A67172  11.988  22.264   9.679  0.2478 -0.4010  0.1424
35099POPC   D2A67173  12.394  22.367   9.939 -0.3014  0.1297  0.0214
35099POPC   C3A67174  12.815  22.338   9.731  0.0568  0.0183 -0.2385
35099POPC   C4A67175  13.169  22.044   9.689 -0.1570 -0.0082 -0.3511
35099POPC   C1B67176  11.975  21.513   9.643 -0.1024 -0.0669  0.0458
35099POPC   C2B67177  12.249  21.150   9.474  0.3710  0.0425  0.2119
35099POPC   C3B67178  12.709  21.069   9.413 -0.0353 -0.2163  0.1208
35099POPC   C4B67179  13.055  20.805   9.511 -0.1266 -0.0649 -0.0857
35100POPC   NC367180   7.141  22.791   7.864  0.1182  0.3754 -0.0123
35100POPC   PO467181   7.338  23.114   7.846 -0.2177 -0.1172 -0.0269
35100POPC   GL167182   6.942  23.149   8.011 -0.1677  0.1152 -0.2107
35100POPC   GL267183   6.747  23.142   7.742  0.0525  0.1403 -0.0645
35100POPC   C1A67184   6.558  23.293   8.252  0.0649 -0.0840  0.1599
35100POPC   D2A67185   6.235  23.625   8.394  0.0056  0.0022 -0.0131
35100POPC   C3A67186   6.231  23.669   8.837 -0.0710  0.1304 -0.1415
35100POPC   C4A67187   6.161  24.123   9.099  0.1110 -0.1358  0.0824
35100POPC   C1B67188   6.306  23.291   7.766  0.1231 -0.2980 -0.0142
35100POPC   C2B67189   5.866  23.438   7.670 -0.1939 -0.0157  0.3696
35100POPC   C3B67190   5.515  23.722   7.647  0.0349  0.0319  0.1037
35100POPC   C4B67191   5.174  23.941   7.940 -0.5744 -0.0992  0.0584
35101POPC   NC367192  15.117  31.092   4.274 -0.0367 -0.1359  0.4040
35101POPC   PO467193  15.447  30.905   4.248 -0.0969 -0.1656  0.0998
35101POPC   GL167194  15.633  30.911   4.606 -0.3008 -0.1661  0.1308
35101POPC   GL267195  15.950  30.766   4.550  0.2358  0.0602 -0.0149
35101POPC   C1A67196  15.561  30.596   4.989 -0.3586  0.0389 -0.0171
35101POPC   D2A67197  15.422  30.365   5.395 -0.0736  0.1123  0.3216
35101POPC   C3A67198  15.742  30.269   5.765  0.0852  0.2408 -0.0725
35101POPC   C4A67199  15.823  30.107   6.207  0.0063  0.0093  0.3123
35101POPC   C1B67200  16.091  30.702   4.994 -0.1297  0.1438  0.0236
35101POPC   C2B67201  15.974  30.372   5.319  0.1199 -0.1602  0.0492
35101POPC   C3B67202  16.074  29.980   5.576 -0.3492  0.1606  0.0457
35101POPC   C4B67203  15.923  29.706   5.901  0.3113  0.2814 -0.2016
35102POPC   NC367204   7.688  28.228   5.288 -0.1286 -0.4585 -0.2953
35102POPC   PO467205   7.655  27.850   5.257 -0.2478 -0.0518 -0.0599
35102POPC   GL167206   7.512  27.790   5.620  0.3986  0.1210 -0.2441
35102POPC   GL267207   7.654  27.915   5.758  0.1074  0.0182 -0.2946
35102POPC   C1A67208   7.148  27.978   5.884 -0.2252 -0.0831 -0.0670
35102POPC   D2A67209   6.958  28.253   6.228 -0.0058  0.1062  0.0063
35102POPC   C3A67210   7.055  28.521   6.626 -0.0475 -0.2783  0.0707
35102POPC   C4A67211   7.206  28.587   7.078 -0.1774 -0.2683 -0.0371
35102POPC   C1B67212   7.647  27.751   6.216  0.2749  0.0863  0.3067
35102POPC   C2B67213   7.769  28.101   6.557 -0.2429  0.2231  0.0673
35102POPC   C3B67214   7.656  28.408   6.908 -0.1004 -0.1549  0.0312
35102POPC   C4B67215   7.670  28.739   7.205 -0.1577 -0.2220 -0.1011
35103POPC   NC367216   0.441  26.039   4.941 -0.3976 -0.1356 -0.2762
35103POPC   PO467217   0.708  26.099   4.660 -0.1031  0.3379 -0.0460
35103POPC   GL167218   0.911  26.054   4.961 -0.3917  0.4568 -0.0128
35103POPC   GL267219   0.903  25.852   5.052 -0.1206 -0.0552 -0.1890
35103POPC   C1A67220   1.218  26.204   5.199  0.0350  0.1885 -0.2069
35103POPC   D2A67221   1.570  26.436   5.431  0.1635  0.2030 -0.2838
35103POPC   C3A67222   1.540  26.236   5.878 -0.1739 -0.1915 -0.2471
35103POPC   C4A67223   1.256  26.356   6.198 -0.2052 -0.0598 -0.1052
35103POPC   C1B67224   0.752  25.782   5.506  0.3429 -0.2512 -0.0554
35103POPC   C2B67225   0.955  25.596   5.882  0.4673 -0.1041 -0.5125
35103POPC   C3B67226   1.417  25.757   6.019 -0.1167  0.2224 -0.0645
35103POPC   C4B67227   1.742  25.966   6.292 -0.3953 -0.1184  0.1145
35104POPC   NC367228   5.463  23.071   6.109  0.0345 -0.0064  0.3191
35104POPC   PO467229   5.122  22.981   5.887 -0.1904  0.1148 -0.1312
35104POPC   GL167230   5.081  22.834   6.320  0.2256  0.0171 -0.4496
35104POPC   GL267231   4.944  22.619   6.306 -0.1201 -0.0775 -0.2374
35104POPC   C1A67232   5.176  22.602   6.749  0.2557 -0.1686  0.1826
35104POPC   D2A67233   5.226  22.782   7.173  0.1677 -0.1078  0.2864
35104POPC   C3A67234   5.017  22.804   7.592  0.2078 -0.1252 -0.1577
35104POPC   C4A67235   4.614  22.583   7.708  0.0948  0.1891  0.3138
35104POPC   C1B67236   4.750  22.895   6.660 -0.0425  0.1487  0.0281
35104POPC   C2B67237   4.538  23.045   7.021  0.0573  0.0854  0.0445
35104POPC   C3B67238   4.424  23.002   7.478 -0.1160 -0.2510  0.2355
35104POPC   C4B67239   4.236  22.874   7.875 -0.2876 -0.1585  0.1753
35105POPC   NC367240   9.495  23.204  12.001  0.0613  0.0770  0.1031
35105POPC   PO467241   9.278  22.877  11.975 -0.3001  0.2689 -0.0650
35105POPC   GL167242   9.013  22.981  12.240 -0.0857 -0.3056  0.0159
35105POPC   GL267243   9.138  22.806  12.471  0.1300  0.1467 -0.0389
35105POPC   C1A67244   8.573  22.918  12.334 -0.1001 -0.0352 -0.1479
35105POPC   D2A67245   8.289  23.015  12.679 -0.1101 -0.2874  0.1525
35105POPC   C3A67246   8.274  23.212  13.064  0.3922 -0.2494 -0.1093
35105POPC   C4A67247   8.345  23.476  13.444 -0.1622  0.0810  0.0299
35105POPC   C1B67248   8.849  22.809  12.890 -0.1752  0.0455 -0.3289
35105POPC   C2B67249   8.823  22.858  13.296  0.2665  0.0619 -0.0925
35105POPC   C3B67250   8.566  22.654  13.584 -0.1628  0.0926 -0.0540
35105POPC   C4B67251   8.228  22.502  13.825 -0.0726  0.0928 -0.3369
35106POPC   NC367252  15.841  26.631   4.407 -0.0193  0.1174 -0.0289
35106POPC   PO467253  16.145  26.500   4.625 -0.2406  0.0344  0.1516
35106POPC   GL167254  16.013  26.458   5.005  0.0898  0.1554 -0.0985
35106POPC   GL267255  16.055  26.637   5.198  0.1995 -0.3517  0.0391
35106POPC   C1A67256  15.608  26.483   5.283 -0.1087 -0.1859  0.1076
35106POPC   D2A67257  15.508  26.398   5.732  0.2623  0.0571 -0.2936
35106POPC   C3A67258  15.233  26.525   6.086 -0.1058 -0.0364  0.0195
35106POPC   C4A67259  15.013  26.953   6.256 -0.1846 -0.1594  0.0465
35106POPC   C1B67260  15.910  26.930   5.549  0.1719 -0.2386  0.0189
35106POPC   C2B67261  15.874  27.228   5.955  0.0002 -0.2129 -0.0771
35106POPC   C3B67262  15.961  27.495   6.328 -0.3075  0.2751  0.2678
35106POPC   C4B67263  16.237  27.569   6.709 -0.0894 -0.1628 -0.1561
35107POPC   NC367264   6.851  14.975   4.462 -0.1070 -0.1044 -0.0398
35107POPC   PO467265   6.602  15.118   4.709  0.2367  0.1361 -0.0063
35107POPC   GL167266   6.846  15.040   5.000  0.0450  0.0267  0.3788
35107POPC   GL267267   6.775  15.201   5.184  0.1061  0.0728 -0.1486
35107POPC   C1A67268   6.744  14.638   5.275  0.2244  0.2921 -0.1267
35107POPC   D2A67269   6.576  14.550   5.692 -0.0923 -0.1655  0.2585
35107POPC   C3A67270   6.237  14.683   6.019  0.0918 -0.0097 -0.0059
35107POPC   C4A67271   6.115  14.688   6.481 -0.1466  0.1140  0.1645
35107POPC   C1B67272   6.472  15.178   5.517  0.1391  0.0881  0.1206
35107POPC   C2B67273   6.151  15.090   5.764  0.0376 -0.0595  0.0588
35107POPC   C3B67274   5.856  15.052   6.133 -0.4219  0.1771  0.0793
35107POPC   C4B67275   5.528  14.917   6.465  0.2812 -0.1290  0.0330
35108POPC   NC367276  10.273  21.260   8.133 -0.0735  0.1934 -0.2593
35108POPC   PO467277  10.274  21.066   7.785 -0.2491  0.3781  0.1241
35108POPC   GL167278  10.505  20.746   7.851  0.3281  0.0715 -0.0760
35108POPC   GL267279  10.523  20.468   7.802 -0.1389  0.0995 -0.1107
35108POPC   C1A67280  10.804  20.695   8.174  0.0792 -0.0527 -0.0258
35108POPC   D2A67281  10.881  20.803   8.582  0.2036 -0.2387 -0.1948
35108POPC   C3A67282  10.779  20.521   8.945  0.1330 -0.2035 -0.0020
35108POPC   C4A67283  10.706  20.523   9.380  0.1139  0.2016  0.1673
35108POPC   C1B67284  10.341  20.215   8.145  0.0904 -0.0466 -0.0642
35108POPC   C2B67285  10.369  19.888   8.508 -0.3568 -0.0658  0.2365
35108POPC   C3B67286  10.660  19.651   8.763  0.1342 -0.0843  0.0673
35108POPC   C4B67287  10.734  19.710   9.221  0.2545  0.1128 -0.3064
35109POPC   NC367288   5.601  18.056   5.307 -0.0779 -0.0685  0.0734
35109POPC   PO467289   5.429  17.715   5.183  0.0080  0.0304 -0.0754
35109POPC   GL167290   5.104  17.476   5.340 -0.0259 -0.3978  0.0434
35109POPC   GL267291   4.881  17.761   5.409 -0.1404  0.1380 -0.1136
35109POPC   C1A67292   4.983  17.382   5.738 -0.0283 -0.0522 -0.1563
35109POPC   D2A67293   4.674  17.544   6.083  0.1543 -0.4265 -0.1274
35109POPC   C3A67294   4.457  17.750   6.484 -0.0792  0.0344  0.1378
35109POPC   C4A67295   4.509  17.573   6.858  0.2835  0.1639 -0.1225
35109POPC   C1B67296   4.476  17.740   5.684  0.0168  0.0901 -0.1440
35109POPC   C2B67297   4.183  17.516   6.002  0.0229 -0.1073 -0.1291
35109POPC   C3B67298   4.329  17.296   6.406  0.0292  0.2455 -0.4896
35109POPC   C4B67299   4.417  17.071   6.785  0.1430 -0.2290  0.3738
35110POPC   NC367300   6.814  20.385   6.507  0.0481 -0.2523 -0.1323
35110POPC   PO467301   6.888  20.107   6.759 -0.0170 -0.0174  0.2190
35110POPC   GL167302   6.780  19.803   6.949  0.2621 -0.0432 -0.1827
35110POPC   GL267303   6.973  19.767   7.204  0.0301  0.4251 -0.2229
35110POPC   C1A67304   6.515  19.549   7.234  0.1373 -0.2232  0.3325
35110POPC   D2A67305   6.300  19.282   7.495  0.0320  0.2388 -0.0196
35110POPC   C3A67306   5.945  18.992   7.469 -0.0375 -0.2482 -0.0480
35110POPC   C4A67307   5.655  18.762   7.696  0.0454  0.3433  0.4598
35110POPC   C1B67308   6.985  19.370   7.400 -0.1783  0.2748  0.0747
35110POPC   C2B67309   6.757  19.222   7.779 -0.3041  0.0694 -0.1737
35110POPC   C3B67310   6.684  19.518   8.194  0.0649 -0.2041  0.2051
35110POPC   C4B67311   6.961  19.782   8.406  0.1742  0.0604 -0.0488
35111POPC   NC367312   6.896  28.777   5.100  0.0925 -0.1017  0.0184
35111POPC   PO467313   6.994  28.428   5.046 -0.0563  0.2725 -0.1461
35111POPC   GL167314   7.304  28.600   5.300  0.3008 -0.2354 -0.5229
35111POPC   GL267315   7.321  28.874   5.328 -0.0154 -0.0592  0.1306
35111POPC   C1A67316   7.446  28.538   5.702 -0.1498  0.0774  0.4117
35111POPC   D2A67317   7.473  28.305   6.142  0.0413  0.4265 -0.0476
35111POPC   C3A67318   7.288  28.056   6.455  0.1047  0.0961 -0.2275
35111POPC   C4A67319   7.261  28.129   6.887  0.1712  0.1316 -0.0309
35111POPC   C1B67320   6.925  29.081   5.525  0.0224 -0.0071 -0.0626
35111POPC   C2B67321   6.597  29.024   5.832  0.0071 -0.2432 -0.1259
35111POPC   C3B67322   6.231  29.255   5.996  0.0231 -0.1782 -0.2010
35111POPC   C4B67323   5.930  29.615   6.066  0.2327  0.1504  0.2761
35112POPC   NC367324  15.776  25.724   4.750  0.0471  0.3070 -0.1347
35112POPC   PO467325  16.046  25.615   5.002  0.1497 -0.0175 -0.2800
35112POPC   GL167326  16.189  25.882   5.339  0.0499  0.1225  0.0077
35112POPC   GL267327  16.023  26.093   5.348 -0.1432 -0.0252  0.0665
35112POPC   C1A67328  16.372  26.014   5.772  0.0375  0.1696  0.1711
35112POPC   D2A67329  16.513  26.049   6.252  0.0603  0.0601  0.0135
35112POPC   C3A67330  16.868  26.188   6.491  0.0009  0.1460 -0.0003
35112POPC   C4A67331  17.278  26.265   6.486 -0.1885 -0.1064  0.1276
35112POPC   C1B67332  15.998  26.411   5.647 -0.1230  0.1699 -0.0337
35112POPC   C2B67333  15.856  26.651   5.999 -0.0842 -0.3076  0.1490
35112POPC   C3B67334  15.512  26.830   6.314 -0.0181  0.0591  0.0207
35112POPC   C4B67335  15.338  27.099   6.623 -0.1401 -0.1503 -0.1392
35113POPC   NC367336  11.476  32.668   4.952  0.1731  0.1732  0.1442
35113POPC   PO467337  11.109  32.523   4.874 -0.1010  0.0228  0.2235
35113POPC   GL167338  11.262  32.393   5.225  0.2379 -0.5179  0.2486
35113POPC   GL267339  11.393  32.597   5.431  0.0382 -0.2388 -0.3284
35113POPC   C1A67340  11.078  32.146   5.570 -0.1675 -0.1375  0.2687
35113POPC   D2A67341  10.926  32.247   5.936 -0.0112  0.0536  0.2891
35113POPC   C3A67342  10.749  32.601   6.106 -0.0417  0.1991 -0.2250
35113POPC   C4A67343  10.591  32.961   5.935 -0.0191  0.1566 -0.1888
35113POPC   C1B67344  11.304  32.589   5.918  0.0527 -0.0924 -0.1010
35113POPC   C2B67345  11.701  32.691   6.189 -0.2269 -0.2245  0.0974
35113POPC   C3B67346  11.780  32.398   6.596 -0.0873 -0.0058  0.0571
35113POPC   C4B67347  12.196  32.374   6.777 -0.1711 -0.1286 -0.1567
35114POPC   NC367348   4.173  21.620   5.513 -0.0897 -0.2041  0.2224
35114POPC   PO467349   4.044  21.999   5.558  0.1595 -0.1559  0.0918
35114POPC   GL167350   3.836  21.935   5.953 -0.1964 -0.4097 -0.0788
35114POPC   GL267351   4.044  22.143   6.078  0.0595  0.2919 -0.2866
35114POPC   C1A67352   3.590  21.620   6.257 -0.2364 -0.2399 -0.3099
35114POPC   D2A67353   3.476  21.170   6.116  0.0236 -0.0504  0.0557
35114POPC   C3A67354   3.162  21.005   6.390 -0.1982 -0.2422  0.3086
35114POPC   C4A67355   2.932  20.717   6.626  0.1342  0.3796 -0.2116
35114POPC   C1B67356   3.839  22.511   6.277  0.0243  0.1217  0.2007
35114POPC   C2B67357   3.864  22.603   6.731  0.0258 -0.0377  0.1356
35114POPC   C3B67358   3.832  22.480   7.158 -0.1692 -0.0382 -0.0915
35114POPC   C4B67359   3.526  22.538   7.560 -0.1229  0.0473 -0.1570
35115POPC   NC367360  12.283  18.846   4.921  0.0957 -0.1846  0.4311
35115POPC   PO467361  12.462  18.501   4.784  0.1488  0.1350  0.1814
35115POPC   GL167362  12.723  18.403   5.112 -0.0240 -0.4367 -0.2877
35115POPC   GL267363  12.652  18.200   5.243 -0.1961 -0.0444  0.2221
35115POPC   C1A67364  13.090  18.559   5.378 -0.3077 -0.0871  0.1370
35115POPC   D2A67365  13.363  18.726   5.733  0.2341  0.1045  0.2831
35115POPC   C3A67366  13.714  18.431   5.541  0.0989  0.0099  0.3134
35115POPC   C4A67367  13.964  17.997   5.484  0.0544  0.0949 -0.0625
35115POPC   C1B67368  12.579  18.421   5.635 -0.2285  0.0859  0.0844
35115POPC   C2B67369  12.764  18.335   6.020 -0.2697 -0.0554 -0.0807
35115POPC   C3B67370  13.053  18.211   6.304 -0.0162 -0.2452  0.1045
35115POPC   C4B67371  13.181  17.867   6.553  0.0445  0.0280  0.2089
35116POPC   NC367372  10.810  23.163  10.513  0.1769  0.2186  0.2061
35116POPC   PO467373  10.922  23.307  10.831 -0.2441  0.0870 -0.2141
35116POPC   GL167374  11.018  23.649  10.943  0.2491  0.2697  0.0396
35116POPC   GL267375  11.000  23.650  11.240  0.1325  0.3207  0.0765
35116POPC   C1A67376  10.905  23.989  10.696 -0.1940  0.0005 -0.1914
35116POPC   D2A67377  10.891  24.368  10.507 -0.3063 -0.0024 -0.1276
35116POPC   C3A67378  10.842  24.782  10.741 -0.0307 -0.5146  0.5583
35116POPC   C4A67379  10.585  24.893  11.150 -0.1627  0.3186 -0.1004
35116POPC   C1B67380  10.764  24.023  11.211 -0.0213 -0.1776 -0.1787
35116POPC   C2B67381  10.560  24.374  10.949 -0.1240 -0.0085 -0.0846
35116POPC   C3B67382  10.144  24.468  10.768  0.0884 -0.1096  0.0921
35116POPC   C4B67383   9.879  24.343  10.386 -0.0828  0.1384  0.1636
35117POPC   NC367384  11.429  24.208   7.672 -0.1312  0.3411  0.1785
35117POPC   PO467385  11.633  24.240   7.320  0.1831  0.1580  0.1168
35117POPC   GL167386  11.902  24.283   7.765 -0.0820  0.0753 -0.0139
35117POPC   GL267387  12.173  24.273   7.688  0.3713 -0.4576 -0.2021
35117POPC   C1A67388  12.085  24.460   8.124  0.0315 -0.0178  0.0466
35117POPC   D2A67389  12.360  24.791   8.272 -0.2260 -0.0314 -0.1414
35117POPC   C3A67390  12.533  25.017   8.630  0.0694 -0.0492  0.0511
35117POPC   C4A67391  12.500  25.178   9.064 -0.1056  0.0580 -0.2584
35117POPC   C1B67392  12.385  24.625   7.719  0.1145 -0.0553 -0.0071
35117POPC   C2B67393  12.673  25.024   7.811  0.1655  0.2384  0.1782
35117POPC   C3B67394  12.831  25.472   7.793  0.1276 -0.1907 -0.1390
35117POPC   C4B67395  13.153  25.753   8.007  0.0712  0.2737  0.3092
35118POPC   NC367396  12.105  21.523   6.931 -0.0308 -0.1384  0.0461
35118POPC   PO467397  12.307  21.212   6.842  0.3294 -0.2268 -0.3039
35118POPC   GL167398  12.592  21.157   7.252  0.1327 -0.0890 -0.2611
35118POPC   GL267399  12.888  21.254   7.296 -0.0684  0.0001  0.2605
35118POPC   C1A67400  12.660  20.705   7.460  0.0877  0.2339  0.0277
35118POPC   D2A67401  12.512  20.465   7.862  0.0123 -0.2869 -0.0726
35118POPC   C3A67402  12.716  20.108   8.009 -0.0915 -0.0161  0.0930
35118POPC   C4A67403  13.142  19.995   8.214  0.1720  0.1993 -0.1072
35118POPC   C1B67404  13.066  21.390   7.692  0.0811 -0.0978 -0.2427
35118POPC   C2B67405  13.263  21.553   8.085  0.3040 -0.2102  0.0951
35118POPC   C3B67406  13.609  21.650   8.309  0.1337  0.1010 -0.1716
35118POPC   C4B67407  14.096  21.563   8.311  0.1250  0.0519 -0.0976
35119POPC   NC367408   8.093  24.272   8.211 -0.0720 -0.0521 -0.0566
35119POPC   PO467409   7.911  24.178   7.876  0.2222 -0.0882 -0.2094
35119POPC   GL167410   7.755  24.600   8.041  0.0417  0.5029  0.2790
35119POPC   GL267411   7.533  24.474   7.965 -0.0210  0.0447  0.2635
35119POPC   C1A67412   7.670  24.573   8.480  0.4351 -0.1493  0.2745
35119POPC   D2A67413   7.403  24.562   8.832  0.1547  0.5349 -0.1135
35119POPC   C3A67414   7.053  24.612   9.175  0.0573  0.3148 -0.2239
35119POPC   C4A67415   6.736  24.889   9.393 -0.1588 -0.1089 -0.0743
35119POPC   C1B67416   7.213  24.668   8.208  0.0263  0.1971 -0.1801
35119POPC   C2B67417   7.081  25.050   8.495 -0.3286 -0.2360  0.1154
35119POPC   C3B67418   6.991  25.143   8.948  0.2601  0.0144 -0.0300
35119POPC   C4B67419   6.941  25.393   9.316 -0.0585  0.2019  0.3048
35120POPC   NC367420   8.107  24.589   7.620  0.0974  0.0699 -0.1398
35120POPC   PO467421   8.030  24.885   7.394 -0.3132  0.0048  0.1581
35120POPC   GL167422   8.101  25.003   7.813 -0.1774 -0.2209 -0.3821
35120POPC   GL267423   7.782  25.006   7.809  0.2574  0.2601 -0.0506
35120POPC   C1A67424   8.231  25.254   8.217  0.1513 -0.1142 -0.0677
35120POPC   D2A67425   8.254  25.316   8.658  0.2580 -0.0441 -0.1425
35120POPC   C3A67426   8.336  25.670   8.872 -0.2652 -0.0831 -0.3958
35120POPC   C4A67427   8.558  25.918   9.177 -0.2178  0.0107 -0.1150
35120POPC   C1B67428   7.795  25.015   8.258 -0.1578 -0.0732  0.2943
35120POPC   C2B67429   7.643  25.040   8.702  0.0089 -0.4287 -0.1475
35120POPC   C3B67430   7.540  25.369   9.044 -0.0503 -0.0567 -0.0870
35120POPC   C4B67431   7.342  25.686   9.310  0.2572  0.3670  0.0689
35121POPC   NC367432   9.158  18.732   6.046 -0.2469  0.2997  0.3638
35121POPC   PO467433   8.806  18.608   5.868 -0.0349 -0.2616  0.0439
35121POPC   GL167434   8.899  18.382   6.264  0.0496  0.0293 -0.1068
35121POPC   GL267435   9.049  18.523   6.470  0.0593 -0.0474 -0.0415
35121POPC   C1A67436   8.745  18.183   6.664 -0.0260  0.2081  0.4131
35121POPC   D2A67437   8.526  18.190   7.132  0.2126 -0.0843 -0.0837
35121POPC   C3A67438   8.524  18.000   7.532  0.3021 -0.0633 -0.2399
35121POPC   C4A67439   8.455  17.803   7.935 -0.0392  0.1523 -0.2960
35121POPC   C1B67440   9.025  18.601   6.936 -0.2268  0.0136  0.1682
35121POPC   C2B67441   8.985  18.300   7.330 -0.0799 -0.2570 -0.1747
35121POPC   C3B67442   9.112  18.287   7.756  0.0734  0.1232 -0.4039
35121POPC   C4B67443   9.218  18.404   8.225  0.3494 -0.0487 -0.0474
35122POPC   NC367444   3.050  17.812   5.332 -0.1233  0.5168 -0.1521
35122POPC   PO467445   2.910  17.628   5.010  0.3974 -0.0146 -0.0041
35122POPC   GL167446   2.799  17.395   5.355  0.1318 -0.0085  0.3536
35122POPC   GL267447   3.124  17.273   5.413  0.1227 -0.3203 -0.0648
35122POPC   C1A67448   2.860  17.274   5.861  0.2896 -0.0175 -0.3017
35122POPC   D2A67449   2.887  17.200   6.325 -0.0708  0.2346 -0.0706
35122POPC   C3A67450   3.073  16.751   6.447 -0.2148  0.1830 -0.4051
35122POPC   C4A67451   3.104  16.269   6.397  0.4529 -0.2834 -0.0480
35122POPC   C1B67452   3.091  16.888   5.608 -0.0004  0.1933 -0.2318
35122POPC   C2B67453   2.908  16.652   6.009 -0.0584  0.1346 -0.0612
35122POPC   C3B67454   2.538  16.761   6.330  0.1005 -0.3360 -0.1364
35122POPC   C4B67455   2.162  16.450   6.456  0.0163 -0.3642 -0.1764
35123POPC   NC367456   9.418  31.762   4.245 -0.1303 -0.4220 -0.0341
35123POPC   PO467457   9.739  31.740   4.496  0.2197  0.0165  0.0760
35123POPC   GL167458   9.742  32.009   4.803 -0.0872  0.2156 -0.1022
35123POPC   GL267459   9.503  31.849   5.021 -0.1820  0.0020  0.0741
35123POPC   C1A67460   9.862  32.163   5.251 -0.0979 -0.0166 -0.4402
35123POPC   D2A67461  10.243  32.052   5.461  0.1099  0.1168 -0.3241
35123POPC   C3A67462  10.522  32.372   5.691  0.1292  0.0669  0.0301
35123POPC   C4A67463  10.923  32.621   5.573  0.3291  0.4300  0.1660
35123POPC   C1B67464   9.787  31.681   5.367  0.3428 -0.0327 -0.3873
35123POPC   C2B67465  10.027  31.658   5.736 -0.0774  0.1523 -0.1505
35123POPC   C3B67466   9.910  31.413   6.115  0.1046  0.0871 -0.1719
35123POPC   C4B67467   9.575  31.453   6.422 -0.2638 -0.0229 -0.0578
35124POPC   NC367468  16.004  22.430   5.346 -0.0322 -0.0570  0.0184
35124POPC   PO467469  16.385  22.434   5.261 -0.0980 -0.0435  0.2476
35124POPC   GL167470  16.294  22.233   5.683  0.1130 -0.4045  0.0329
35124POPC   GL267471  16.201  21.997   5.541 -0.3136  0.1061  0.0152
35124POPC   C1A67472  16.406  22.308   6.119 -0.2371 -0.2750 -0.1120
35124POPC   D2A67473  16.476  22.220   6.588  0.0061  0.6844  0.1589
35124POPC   C3A67474  16.700  22.350   6.934 -0.2063 -0.0351 -0.0253
35124POPC   C4A67475  17.046  22.454   7.302  0.1621  0.0066  0.0253
35124POPC   C1B67476  16.146  21.861   5.986  0.0560  0.2298 -0.2492
35124POPC   C2B67477  16.328  21.683   6.435  0.2621 -0.1090  0.1429
35124POPC   C3B67478  16.315  21.441   6.793  0.0564  0.1856  0.1311
35124POPC   C4B67479  16.211  21.113   7.031 -0.1062  0.0016  0.1980
35125POPC   NC367480   4.610  29.369   4.387  0.0422  0.1463 -0.1744
35125POPC   PO467481   4.773  29.715   4.479  0.2112 -0.0257 -0.3880
35125POPC   GL167482   4.413  29.643   4.701  0.0593 -0.2679  0.0673
35125POPC   GL267483   4.267  29.448   4.757  0.1259  0.0763 -0.0087
35125POPC   C1A67484   4.352  29.716   5.151 -0.0342  0.0623  0.0044
35125POPC   D2A67485   4.129  30.060   5.374  0.0832  0.1353  0.1626
35125POPC   C3A67486   4.048  30.247   5.810 -0.0146  0.0941  0.0407
35125POPC   C4A67487   3.823  30.316   6.186  0.1415 -0.0977 -0.0313
35125POPC   C1B67488   3.996  29.837   4.812 -0.1380  0.0877  0.0163
35125POPC   C2B67489   3.678  30.032   5.053  0.4314 -0.1171 -0.1507
35125POPC   C3B67490   3.367  29.835   5.302 -0.2598 -0.0644 -0.1270
35125POPC   C4B67491   2.910  30.006   5.352  0.2868 -0.0822  0.0533
35126POPC   NC367492   4.044  28.884   3.881  0.0898  0.0758 -0.3478
35126POPC   PO467493   3.885  28.559   4.051 -0.1106  0.2235 -0.2337
35126POPC   GL167494   3.790  28.325   4.376 -0.1287  0.0694 -0.2392
35126POPC   GL267495   3.949  28.178   4.612 -0.0987  0.1085  0.0280
35126POPC   C1A67496   3.473  28.110   4.606  0.1194 -0.2548 -0.1434
35126POPC   D2A67497   3.012  28.018   4.594  0.3342  0.3195  0.0171
35126POPC   C3A67498   2.634  27.713   4.616  0.0467  0.1112 -0.0776
35126POPC   C4A67499   2.135  27.752   4.628  0.1601 -0.2514  0.2929
35126POPC   C1B67500   3.732  28.177   5.028  0.0080  0.0186  0.1677
35126POPC   C2B67501   3.587  28.243   5.446 -0.0631 -0.3952 -0.1872
35126POPC   C3B67502   3.078  28.281   5.495  0.0494  0.2657 -0.3109
35126POPC   C4B67503   2.737  28.149   5.757 -0.0134  0.0841  0.0417
35127POPC   NC367504   6.113  19.227   5.769  0.1082  0.3004 -0.1882
35127POPC   PO467505   6.488  19.313   5.749 -0.2604 -0.4751 -0.4200
35127POPC   GL167506   6.426  18.901   5.894 -0.2948  0.0266  0.0449
35127POPC   GL267507   6.163  18.753   6.055 -0.1823 -0.0846 -0.1130
35127POPC   C1A67508   6.595  18.554   6.166 -0.2026  0.1765 -0.1601
35127POPC   D2A67509   6.642  18.091   6.322  0.2159 -0.2707  0.0427
35127POPC   C3A67510   6.372  18.041   6.693 -0.3432 -0.2298 -0.3302
35127POPC   C4A67511   6.217  18.139   7.107 -0.0054 -0.0821 -0.1806
35127POPC   C1B67512   6.138  18.331   6.320 -0.1696  0.0244  0.1625
35127POPC   C2B67513   5.874  18.150   6.687  0.2676  0.0291 -0.2064
35127POPC   C3B67514   5.666  18.107   7.113  0.0421 -0.0718 -0.0696
35127POPC   C4B67515   5.827  17.850   7.503 -0.3336  0.1016  0.1066
35128POPC   NC367516   0.455  24.999   4.727 -0.0734  0.1081 -0.1165
35128POPC   PO467517   0.746  24.862   4.890  0.0940  0.0842 -0.0651
35128POPC   GL167518   0.828  24.867   5.316 -0.1298 -0.0083 -0.0981
35128POPC   GL267519   1.123  24.770   5.372  0.0744  0.1311 -0.1823
35128POPC   C1A67520   0.527  24.746   5.676  0.1374 -0.0557  0.0584
35128POPC   D2A67521   0.339  24.801   6.108  0.0904 -0.1516  0.1010
35128POPC   C3A67522   0.473  24.598   6.529  0.0984 -0.1033 -0.1986
35128POPC   C4A67523   0.451  24.326   6.861 -0.0854 -0.0062 -0.0141
35128POPC   C1B67524   1.005  24.741   5.841 -0.3648 -0.1512  0.0006
35128POPC   C2B67525   0.832  24.769   6.223 -0.1440 -0.1541  0.0459
35128POPC   C3B67526   0.916  24.582   6.707  0.2589 -0.3670 -0.2217
35128POPC   C4B67527   0.644  24.734   7.071  0.2782 -0.0265 -0.0301
35129POPC   NC367528   0.331  23.161   5.160  0.0151 -0.1252  0.0703
35129POPC   PO467529   0.594  22.880   5.004 -0.0561  0.0695  0.0554
35129POPC   GL167530   0.374  22.901   5.491 -0.2820  0.2932 -0.0111
35129POPC   GL267531   0.016  22.874   5.553 -0.1202  0.0989  0.0258
35129POPC   C1A67532   0.283  22.581   5.804 -0.3170  0.3161  0.0001
35129POPC   D2A67533   0.486  22.447   6.221 -0.2524  0.1777 -0.1896
35129POPC   C3A67534   0.944  22.455   6.132  0.2381 -0.1534  0.3382
35129POPC   C4A67535   1.338  22.275   6.153  0.0678 -0.3283 -0.0025
35129POPC   C1B67536  -0.063  23.161   5.868  0.0348  0.0601  0.0691
35129POPC   C2B67537  -0.053  23.328   6.336 -0.0434  0.3102 -0.2299
35129POPC   C3B67538   0.093  23.369   6.793 -0.1486  0.1474  0.3661
35129POPC   C4B67539   0.068  23.379   7.234 -0.1460  0.1068 -0.0434
35130POPC   NC367540  11.377  23.466  10.703  0.3013 -0.0499 -0.2400
35130POPC   PO467541  11.261  23.200  10.375 -0.1388 -0.0297 -0.1014
35130POPC   GL167542  11.082  23.595  10.346 -0.0153  0.1562  0.2365
35130POPC   GL267543  10.791  23.631  10.338 -0.0129 -0.0947 -0.0225
35130POPC   C1A67544  11.339  23.983  10.460  0.2998 -0.0674  0.0307
35130POPC   D2A67545  11.487  24.372  10.267  0.1437  0.0711 -0.3218
35130POPC   C3A67546  11.343  24.233   9.880  0.0202  0.1554 -0.0059
35130POPC   C4A67547  10.962  24.372   9.576 -0.2914 -0.0352  0.1904
35130POPC   C1B67548  10.943  23.999  10.110 -0.2101 -0.1319 -0.0982
35130POPC   C2B67549  10.794  24.431  10.001  0.0754  0.5982  0.0422
35130POPC   C3B67550  10.711  24.865  10.168  0.3353  0.0964  0.1499
35130POPC   C4B67551  10.715  25.326  10.127  0.2838 -0.0855 -0.1340
35131POPC   NC367552   8.522  22.527   9.555 -0.0365  0.3714  0.2256
35131POPC   PO467553   8.664  22.243   9.776 -0.1625 -0.0672 -0.1648
35131POPC   GL167554   8.332  22.297   9.883  0.3756 -0.1060 -0.2236
35131POPC   GL267555   8.433  22.165  10.216 -0.0117  0.0085  0.2314
35131POPC   C1A67556   7.970  22.496  10.107 -0.1763 -0.0481  0.4190
35131POPC   D2A67557   7.828  22.532  10.539 -0.3740 -0.1154 -0.0187
35131POPC   C3A67558   8.028  22.800  10.855 -0.1129  0.0343  0.0601
35131POPC   C4A67559   8.365  22.986  11.122 -0.0333 -0.1817 -0.3008
35131POPC   C1B67560   8.099  22.066  10.437  0.1525 -0.2616  0.1643
35131POPC   C2B67561   7.757  22.058  10.792 -0.0271  0.1015 -0.0851
35131POPC   C3B67562   7.430  21.782  10.952  0.0825  0.0944 -0.2145
35131POPC   C4B67563   7.165  21.407  10.868 -0.0744  0.2946  0.0217
35132POPC   NC367564  11.024  18.899   5.741  0.3929 -0.1815  0.0060
35132POPC   PO467565  11.167  19.171   5.871 -0.1536 -0.0310  0.0767
35132POPC   GL167566  11.163  19.026   6.238 -0.0291 -0.1431  0.0180
35132POPC   GL267567  10.850  18.911   6.237  0.0143 -0.1702  0.0940
35132POPC   C1A67568  11.355  18.849   6.578 -0.1318  0.0273  0.2101
35132POPC   D2A67569  11.427  18.704   6.997  0.0128 -0.1745  0.0157
35132POPC   C3A67570  11.119  18.951   7.294  0.1701  0.2774 -0.0662
35132POPC   C4A67571  10.661  18.974   7.188  0.0765 -0.1740  0.2367
35132POPC   C1B67572  10.781  18.806   6.616 -0.1332  0.0551  0.1610
35132POPC   C2B67573  10.921  18.592   6.994  0.3439 -0.2788  0.0167
35132POPC   C3B67574  11.028  18.211   7.235 -0.3892  0.0415  0.0292
35132POPC   C4B67575  11.184  17.805   7.392  0.0354  0.2637 -0.1519
35133POPC   NC367576   3.890  25.205   4.739  0.0031  0.0061  0.0440
35133POPC   PO467577   4.034  25.073   5.069 -0.1004  0.0530 -0.0994
35133POPC   GL167578   3.881  25.144   5.409 -0.2270 -0.1043  0.3106
35133POPC   GL267579   4.087  25.092   5.597 -0.1294 -0.1005  0.0035
35133POPC   C1A67580   3.518  25.248   5.659 -0.0128  0.1901  0.3914
35133POPC   D2A67581   3.148  25.418   5.580 -0.1770 -0.1784 -0.0453
35133POPC   C3A67582   3.118  25.822   5.884 -0.0900 -0.4465  0.1365
35133POPC   C4A67583   3.101  26.140   6.187  0.3954 -0.3236 -0.0796
35133POPC   C1B67584   3.976  25.266   5.962  0.2285  0.2160  0.1663
35133POPC   C2B67585   3.778  25.371   6.349 -0.0990  0.0279  0.5258
35133POPC   C3B67586   3.522  25.455   6.750 -0.2202 -0.0060  0.0843
35133POPC   C4B67587   3.140  25.528   7.005  0.1069 -0.2147 -0.2254
35134POPC   NC367588   7.011  26.588   5.829 -0.0989 -0.3365 -0.0567
35134POPC   PO467589   6.720  26.293   5.747 -0.0370  0.1466  0.0101
35134POPC   GL167590   6.647  26.289   6.119  0.1610  0.0516 -0.1086
35134POPC   GL267591   6.874  26.224   6.182 -0.2679 -0.1203 -0.2489
35134POPC   C1A67592   6.398  26.499   6.423  0.1188 -0.0987 -0.1201
35134POPC   D2A67593   6.188  26.612   6.820  0.0210 -0.0217  0.3756
35134POPC   C3A67594   6.261  26.360   7.169  0.0887 -0.2934  0.0228
35134POPC   C4A67595   6.101  26.145   7.516 -0.0850 -0.1129  0.4280
35134POPC   C1B67596   6.908  26.676   6.345 -0.5013  0.1187  0.2811
35134POPC   C2B67597   6.884  26.946   6.719 -0.0328  0.0967 -0.0110
35134POPC   C3B67598   6.841  27.375   6.581  0.0178  0.1908  0.0829
35134POPC   C4B67599   6.819  27.575   6.160 -0.2569 -0.0360  0.0668
35135POPC   NC367600  12.165  22.147   7.676  0.1244 -0.1444 -0.1368
35135POPC   PO467601  11.873  21.927   7.711 -0.0543  0.1310  0.1349
35135POPC   GL167602  12.013  21.580   7.883 -0.0436 -0.1408 -0.0591
35135POPC   GL267603  12.159  21.491   7.726  0.4657  0.0937 -0.0928
35135POPC   C1A67604  12.207  21.452   8.280 -0.0803 -0.1511  0.1593
35135POPC   D2A67605  12.466  21.464   8.582 -0.2046  0.1352  0.1745
35135POPC   C3A67606  12.657  21.925   8.535  0.1155 -0.0037 -0.1353
35135POPC   C4A67607  12.935  22.011   8.898 -0.1409 -0.1819  0.0000
35135POPC   C1B67608  12.460  21.811   7.952 -0.1397 -0.0427  0.1110
35135POPC   C2B67609  12.926  21.958   8.117  0.0542 -0.2249 -0.0383
35135POPC   C3B67610  13.147  22.050   8.479  0.0789 -0.0607 -0.5394
35135POPC   C4B67611  13.601  22.017   8.699 -0.3098  0.1230  0.3082
35136POPC   NC367612  10.090  31.733   5.011 -0.3086  0.1349 -0.0486
35136POPC   PO467613  10.481  31.638   5.059  0.1366 -0.1218  0.2152
35136POPC   GL167614  10.605  31.802   5.384  0.0500 -0.1136  0.0369
35136POPC   GL267615  10.903  31.646   5.334  0.2043  0.2014 -0.1243
35136POPC   C1A67616  10.529  31.822   5.828  0.2681  0.2258  0.0112
35136POPC   D2A67617  10.651  31.680   6.208  0.0363  0.3204 -0.2584
35136POPC   C3A67618  10.936  32.039   6.406  0.0830 -0.2965 -0.0331
35136POPC   C4A67619  10.873  32.477   6.594  0.0191  0.4781  0.1504
35136POPC   C1B67620  10.918  31.375   5.791  0.0164  0.0500  0.1069
35136POPC   C2B67621  10.837  31.157   6.224  0.0671  0.0667 -0.3066
35136POPC   C3B67622  10.937  30.823   6.513  0.0047  0.3534 -0.2147
35136POPC   C4B67623  11.270  30.520   6.457  0.1975 -0.0006  0.1875
35137POPC   NC367624   6.259  16.930   5.033  0.0978 -0.1448 -0.0963
35137POPC   PO467625   6.353  16.612   4.894 -0.1116  0.0554 -0.0070
35137POPC   GL167626   6.616  16.734   5.257  0.2278  0.1457 -0.3522
35137POPC   GL267627   6.485  16.451   5.375 -0.0469  0.0368 -0.0989
35137POPC   C1A67628   6.840  16.927   5.624  0.0631 -0.0010  0.1557
35137POPC   D2A67629   7.197  16.836   5.922  0.4598 -0.1299  0.2319
35137POPC   C3A67630   6.975  16.827   6.330 -0.0895  0.0705 -0.0001
35137POPC   C4A67631   6.544  16.867   6.572  0.0867  0.2701  0.1927
35137POPC   C1B67632   6.325  16.459   5.771 -0.3231  0.2515  0.1804
35137POPC   C2B67633   6.348  16.465   6.247  0.1290 -0.3050  0.0886
35137POPC   C3B67634   6.218  16.502   6.661 -0.1359  0.1646  0.0572
35137POPC   C4B67635   6.036  16.618   6.984 -0.0073 -0.1358  0.0137
35138POPC   NC367636  10.949  18.830   5.214 -0.2207  0.1959  0.1381
35138POPC   PO467637  11.152  18.487   5.404  0.2978  0.0352 -0.1762
35138POPC   GL167638  11.367  18.648   5.885  0.1202  0.3413  0.2632
35138POPC   GL267639  11.202  18.538   6.052 -0.1190  0.1311  0.1888
35138POPC   C1A67640  11.717  18.796   6.184  0.1382 -0.2528  0.0413
35138POPC   D2A67641  12.060  18.733   6.516  0.2623  0.1276 -0.0180
35138POPC   C3A67642  12.374  18.743   6.816 -0.1044 -0.0423  0.2835
35138POPC   C4A67643  12.724  18.451   7.019  0.0940 -0.2155 -0.0696
35138POPC   C1B67644  11.058  18.411   6.462  0.1187  0.1833 -0.2060
35138POPC   C2B67645  11.341  18.271   6.814 -0.1394 -0.0696 -0.0306
35138POPC   C3B67646  11.590  18.181   7.183 -0.0657 -0.1529  0.2340
35138POPC   C4B67647  11.635  17.990   7.592  0.2423  0.0779  0.2989
35139POPC   NC367648  14.732  17.571   4.172 -0.0914 -0.1196  0.4909
35139POPC   PO467649  15.077  17.497   4.333  0.1050 -0.3717  0.0520
35139POPC   GL167650  15.040  17.381   4.710 -0.0294  0.1709 -0.0222
35139POPC   GL267651  15.277  17.593   4.798 -0.0057  0.1566 -0.3787
35139POPC   C1A67652  14.697  17.034   4.851 -0.1205 -0.1597 -0.0595
35139POPC   D2A67653  14.523  16.791   5.191  0.1307 -0.2173 -0.5191
35139POPC   C3A67654  14.668  16.695   5.636 -0.0888  0.1599  0.2019
35139POPC   C4A67655  14.797  16.680   6.100 -0.2361 -0.0459 -0.1233
35139POPC   C1B67656  15.282  17.254   5.149 -0.0389  0.0400  0.0679
35139POPC   C2B67657  15.212  17.038   5.555  0.1239  0.2109 -0.2521
35139POPC   C3B67658  15.209  16.959   6.033 -0.1870  0.0145  0.1310
35139POPC   C4B67659  15.439  16.774   6.352  0.1688  0.2067  0.0284
35140POPC   NC367660   8.975  22.554   9.943  0.3922 -0.0630  0.1336
35140POPC   PO467661   8.997  22.264  10.235 -0.1066 -0.0087  0.1288
35140POPC   GL167662   8.800  21.909  10.103 -0.1892  0.3631 -0.1124
35140POPC   GL267663   8.935  21.732  10.284  0.4187  0.1106  0.0031
35140POPC   C1A67664   8.373  21.687  10.223  0.1259 -0.0184 -0.2268
35140POPC   D2A67665   8.067  21.357  10.318  0.1146  0.1227  0.3717
35140POPC   C3A67666   7.689  21.655  10.367 -0.2188 -0.0836  0.2290
35140POPC   C4A67667   7.325  21.927  10.337  0.0271  0.1522 -0.0554
35140POPC   C1B67668   8.620  21.398  10.492 -0.0839 -0.0031 -0.0586
35140POPC   C2B67669   8.298  21.244  10.787  0.0495  0.2347 -0.0784
35140POPC   C3B67670   8.065  21.204  11.190 -0.0233 -0.1713 -0.0281
35140POPC   C4B67671   7.869  20.932  11.497 -0.1063 -0.2022 -0.2023
35141POPC   NC367672  10.012  27.928   5.295  0.1921  0.0081 -0.1380
35141POPC   PO467673  10.177  27.594   5.329 -0.1870  0.1748 -0.2269
35141POPC   GL167674  10.310  27.850   5.615 -0.1916  0.1110 -0.2399
35141POPC   GL267675  10.276  27.685   5.831  0.1923  0.0517 -0.5393
35141POPC   C1A67676  10.523  28.049   6.028  0.1710  0.0588 -0.0246
35141POPC   D2A67677  10.690  28.217   6.441 -0.1440  0.1687  0.1223
35141POPC   C3A67678  10.507  27.995   6.790 -0.1174  0.0722  0.0007
35141POPC   C4A67679  10.658  28.078   7.197 -0.0461 -0.6362  0.1142
35141POPC   C1B67680  10.210  27.817   6.268  0.1805 -0.3371 -0.4265
35141POPC   C2B67681   9.989  27.969   6.670  0.2130  0.1315  0.0467
35141POPC   C3B67682  10.152  28.192   7.080 -0.0338 -0.0140 -0.1380
35141POPC   C4B67683  10.002  28.561   7.284 -0.1004  0.0281 -0.0029
35142POPC   NC367684   5.417  17.231   5.085 -0.2915 -0.0529  0.1097
35142POPC   PO467685   5.333  16.924   4.868  0.0739 -0.0846  0.2434
35142POPC   GL167686   5.339  16.774   5.293 -0.0124 -0.1428 -0.1673
35142POPC   GL267687   5.493  16.658   5.466 -0.0446  0.1223  0.0950
35142POPC   C1A67688   5.503  17.104   5.605  0.1592 -0.2181 -0.0551
35142POPC   D2A67689   5.518  17.199   6.075  0.2619  0.0487 -0.2558
35142POPC   C3A67690   5.092  17.099   6.175  0.1711 -0.1705 -0.0201
35142POPC   C4A67691   4.779  17.010   6.433  0.2859  0.0463 -0.2982
35142POPC   C1B67692   5.406  16.721   5.902  0.1098  0.1360  0.2289
35142POPC   C2B67693   5.449  16.708   6.347 -0.1247  0.0080  0.0723
35142POPC   C3B67694   5.650  16.459   6.764 -0.2279 -0.1427  0.1426
35142POPC   C4B67695   5.811  16.252   7.248 -0.1437  0.2083  0.0802
35143POPC   NC367696   2.366  24.216   4.743 -0.2135  0.2571  0.1927
35143POPC   PO467697   2.206  24.354   5.051 -0.2833 -0.0199 -0.2594
35143POPC   GL167698   2.179  24.381   5.442 -0.4421 -0.1947  0.0052
35143POPC   GL267699   1.977  24.462   5.652 -0.0291  0.0206  0.1189
35143POPC   C1A67700   2.282  23.986   5.639 -0.1057 -0.0679 -0.0661
35143POPC   D2A67701   2.397  23.600   5.862 -0.1333  0.2115  0.0741
35143POPC   C3A67702   2.030  23.456   6.158 -0.3404  0.1136 -0.1093
35143POPC   C4A67703   1.930  23.565   6.600 -0.2256  0.0799 -0.1170
35143POPC   C1B67704   2.257  24.403   6.014 -0.2103 -0.0459  0.0583
35143POPC   C2B67705   2.344  24.242   6.438 -0.1549  0.0390 -0.0223
35143POPC   C3B67706   2.564  24.265   6.870  0.0497  0.0382  0.2644
35143POPC   C4B67707   2.439  24.066   7.249 -0.1122  0.0166 -0.2149
35144POPC   NC367708  15.821  21.682   5.378  0.5569 -0.0646 -0.3745
35144POPC   PO467709  15.496  21.528   5.196  0.1879  0.2102  0.0450
35144POPC   GL167710  15.294  21.432   5.445  0.4394 -0.4171 -0.1245
35144POPC   GL267711  15.368  21.575   5.671 -0.1553  0.0919  0.1319
35144POPC   C1A67712  14.957  21.106   5.508  0.4021  0.2377 -0.2340
35144POPC   D2A67713  14.755  20.735   5.775  0.2442 -0.1196 -0.2871
35144POPC   C3A67714  15.058  20.733   6.123  0.1604  0.0978  0.3762
35144POPC   C4A67715  15.258  20.962   6.468 -0.0240 -0.3025 -0.0696
35144POPC   C1B67716  15.600  21.777   6.040  0.1055 -0.1046  0.1253
35144POPC   C2B67717  15.838  21.874   6.449  0.0641  0.1847  0.1121
35144POPC   C3B67718  16.063  21.990   6.792 -0.1080 -0.3450 -0.0731
35144POPC   C4B67719  16.442  21.857   7.009  0.0122  0.0826 -0.1867
35145POPC   NC367720  10.506  30.662   4.623  0.0510 -0.0317  0.0426
35145POPC   PO467721  10.156  30.825   4.613 -0.4211 -0.2794  0.2493
35145POPC   GL167722  10.200  30.771   4.987 -0.1581  0.0923 -0.1120
35145POPC   GL267723  10.103  30.472   5.002  0.1669  0.1551 -0.2392
35145POPC   C1A67724  10.548  30.700   5.269  0.1512  0.3967 -0.0596
35145POPC   D2A67725  10.586  30.416   5.612  0.0630  0.2823  0.2658
35145POPC   C3A67726  10.449  30.078   5.922  0.1454 -0.0964 -0.1866
35145POPC   C4A67727  10.508  30.094   6.363 -0.1460 -0.2783 -0.1057
35145POPC   C1B67728  10.072  30.626   5.439  0.0288 -0.0942  0.1697
35145POPC   C2B67729  10.221  30.550   5.868  0.2337 -0.0399 -0.2119
35145POPC   C3B67730  10.111  30.456   6.312 -0.1372  0.0229  0.0527
35145POPC   C4B67731  10.280  30.690   6.656 -0.0592  0.1126  0.2024
35146POPC   NC367732   5.727  25.379   4.996  0.3969 -0.1320  0.0384
35146POPC   PO467733   5.524  25.506   5.263  0.5867  0.0858  0.0924
35146POPC   GL167734   5.432  25.628   5.565 -0.1173 -0.1768  0.1634
35146POPC   GL267735   5.516  25.525   5.785  0.2827  0.0676 -0.0351
35146POPC   C1A67736   5.233  25.920   5.832  0.2410 -0.2332  0.0583
35146POPC   D2A67737   4.833  26.068   6.015  0.0212 -0.3097 -0.0567
35146POPC   C3A67738   4.381  25.939   5.916 -0.1344 -0.1463 -0.2478
35146POPC   C4A67739   4.123  25.686   6.148 -0.1747 -0.0787  0.0969
35146POPC   C1B67740   5.185  25.547   6.111 -0.1412  0.3054 -0.0251
35146POPC   C2B67741   4.963  25.781   6.405 -0.1342 -0.0518 -0.4023
35146POPC   C3B67742   4.904  25.895   6.835 -0.1637  0.4628 -0.1783
35146POPC   C4B67743   4.827  26.281   7.057  0.0923  0.0838 -0.0234
35147POPC   NC367744  14.600  23.037   5.229 -0.0467 -0.0483  0.2428
35147POPC   PO467745  14.766  22.748   5.408  0.1340 -0.0851  0.3118
35147POPC   GL167746  14.986  22.808   5.686 -0.1162 -0.0805 -0.0367
35147POPC   GL267747  14.867  22.944   5.839  0.0762 -0.0106 -0.0823
35147POPC   C1A67748  15.284  23.140   5.789 -0.3321  0.0658  0.1392
35147POPC   D2A67749  15.634  23.136   6.089 -0.2795  0.0725 -0.0391
35147POPC   C3A67750  15.976  22.932   6.311  0.1839  0.0555 -0.2485
35147POPC   C4A67751  16.276  22.649   6.564  0.1039  0.3341 -0.2520
35147POPC   C1B67752  15.065  23.109   6.217  0.1757 -0.2227 -0.0864
35147POPC   C2B67753  15.160  23.204   6.622  0.3388  0.1579 -0.0437
35147POPC   C3B67754  15.244  23.128   7.070  0.0189  0.3228  0.1565
35147POPC   C4B67755  15.644  23.159   7.356  0.0856  0.1848  0.0243
35148POPC   NC367756  12.858  28.809   4.376 -0.0072  0.2866 -0.1465
35148POPC   PO467757  13.295  28.854   4.348  0.0110 -0.2756  0.0174
35148POPC   GL167758  13.251  29.233   4.624  0.0776  0.1019  0.3969
35148POPC   GL267759  12.978  29.207   4.634 -0.2249  0.1179 -0.1357
35148POPC   C1A67760  13.447  29.249   5.066 -0.1938 -0.1258 -0.2173
35148POPC   D2A67761  13.411  29.168   5.533  0.1120 -0.1865  0.0370
35148POPC   C3A67762  13.359  29.504   5.868  0.0287  0.2549  0.3715
35148POPC   C4A67763  13.079  29.680   6.214 -0.0582  0.0041 -0.2084
35148POPC   C1B67764  12.694  29.168   4.997 -0.2177 -0.0285 -0.1446
35148POPC   C2B67765  12.501  29.475   5.337 -0.0200 -0.3734  0.0894
35148POPC   C3B67766  12.363  29.314   5.744 -0.1289  0.2300 -0.0361
35148POPC   C4B67767  12.410  29.204   6.186 -0.1084 -0.0239  0.1018
35149POPC   NC367768   6.020  22.146   6.887  0.3017 -0.0902  0.2173
35149POPC   PO467769   6.281  22.390   7.049  0.0290 -0.4858 -0.1661
35149POPC   GL167770   5.805  22.462   7.111  0.0861 -0.1225  0.4001
35149POPC   GL267771   5.916  22.441   7.416  0.1659  0.1455  0.0518
35149POPC   C1A67772   5.398  22.323   7.342 -0.1365  0.1877 -0.0900
35149POPC   D2A67773   4.933  22.300   7.486 -0.3795 -0.0635 -0.0281
35149POPC   C3A67774   4.757  22.410   7.085 -0.0930  0.1613  0.2807
35149POPC   C4A67775   4.705  22.290   6.652  0.1483  0.0311 -0.0366
35149POPC   C1B67776   5.513  22.667   7.697 -0.0128  0.0506  0.5470
35149POPC   C2B67777   5.444  23.081   7.744  0.0613  0.0825 -0.2114
35149POPC   C3B67778   5.705  23.295   8.104  0.4348  0.2241  0.1734
35149POPC   C4B67779   5.767  23.452   8.480 -0.0496  0.1581 -0.0969
35150POPC   NC367780   0.151  17.149   4.308  0.0461 -0.1087  0.0424
35150POPC   PO467781  -0.234  17.237   4.418  0.0246 -0.1881 -0.1841
35150POPC   GL167782  -0.245  17.401   4.855 -0.1936 -0.0748  0.2609
35150POPC   GL267783  -0.555  17.508   4.954 -0.1055  0.0389  0.0341
35150POPC   C1A67784  -0.199  17.145   5.248  0.2088 -0.0796  0.0806
35150POPC   D2A67785  -0.366  17.014   5.627 -0.0116  0.2076 -0.2564
35150POPC   C3A67786   0.031  16.863   5.875  0.1950  0.1311 -0.1795
35150POPC   C4A67787   0.082  16.977   6.307 -0.0582 -0.0533 -0.1800
35150POPC   C1B67788  -0.678  17.383   5.386 -0.1424  0.1752 -0.1470
35150POPC   C2B67789  -0.882  17.323   5.753 -0.1787 -0.0974  0.1000
35150POPC   C3B67790  -1.020  17.362   6.195 -0.0057  0.2953  0.1122
35150POPC   C4B67791  -0.970  17.600   6.629 -0.0434  0.0602  0.1160
35151POPC   NC367792  12.071  24.724   6.736 -0.0864 -0.1745  0.1570
35151POPC   PO467793  11.700  24.879   6.615 -0.0588  0.3113  0.5291
35151POPC   GL167794  11.820  25.184   6.845  0.0093  0.1466  0.1037
35151POPC   GL267795  11.893  25.039   7.132 -0.1573 -0.1515  0.2056
35151POPC   C1A67796  11.659  25.570   7.076  0.1999  0.2996  0.3662
35151POPC   D2A67797  11.626  25.918   7.366 -0.0742 -0.3525  0.0606
35151POPC   C3A67798  11.478  25.844   7.842  0.2383 -0.1329  0.2876
35151POPC   C4A67799  11.426  25.784   8.247 -0.0377  0.0463 -0.2317
35151POPC   C1B67800  12.130  25.102   7.544  0.2219 -0.0600 -0.0919
35151POPC   C2B67801  12.280  25.329   7.985  0.0365  0.2234  0.1308
35151POPC   C3B67802  12.273  25.747   8.147  0.2639 -0.1103 -0.2576
35151POPC   C4B67803  12.308  26.186   8.221 -0.0248 -0.2066 -0.0028
35152POPC   NC367804   6.029  28.184   4.672 -0.0461  0.2862 -0.2274
35152POPC   PO467805   5.968  28.610   4.735  0.0567  0.2099 -0.0446
35152POPC   GL167806   6.069  28.606   5.191 -0.1012 -0.1267 -0.3627
35152POPC   GL267807   5.827  28.528   5.248 -0.2109  0.1664 -0.0217
35152POPC   C1A67808   6.417  28.673   5.442  0.2998 -0.1434  0.0455
35152POPC   D2A67809   6.827  28.484   5.550  0.0237  0.2370 -0.0348
35152POPC   C3A67810   6.996  28.669   5.955  0.0925  0.3121  0.4314
35152POPC   C4A67811   7.293  28.811   6.277  0.0014  0.4743  0.1274
35152POPC   C1B67812   5.988  28.644   5.700 -0.0215  0.2236  0.3855
35152POPC   C2B67813   6.050  28.764   6.148 -0.0388 -0.1105  0.1491
35152POPC   C3B67814   6.089  28.798   6.599  0.1740 -0.0185  0.0480
35152POPC   C4B67815   6.209  28.998   6.960  0.1687 -0.0632 -0.0966
35153POPC   NC367816   4.371  19.943   6.061 -0.1166  0.0921 -0.0130
35153POPC   PO467817   4.222  19.839   5.729 -0.1442  0.0579  0.0603
35153POPC   GL167818   3.919  19.628   5.819 -0.1120 -0.4397 -0.0777
35153POPC   GL267819   3.701  19.774   5.881  0.3001 -0.3739 -0.3625
35153POPC   C1A67820   3.988  19.624   6.289 -0.2423  0.1910 -0.0337
35153POPC   D2A67821   3.697  19.668   6.619 -0.0279  0.0483 -0.0219
35153POPC   C3A67822   3.253  19.792   6.835  0.0237  0.1585 -0.0121
35153POPC   C4A67823   2.898  19.872   7.092 -0.2413 -0.0736  0.1206
35153POPC   C1B67824   3.659  19.332   6.131  0.2755 -0.1639 -0.1019
35153POPC   C2B67825   3.779  19.061   6.481 -0.0933 -0.2793  0.1284
35153POPC   C3B67826   3.659  18.859   6.868 -0.0444 -0.0576  0.1660
35153POPC   C4B67827   3.684  18.679   7.256  0.0224 -0.1703  0.2687
35154POPC   NC367828   1.676  20.357   5.092  0.4380  0.1822  0.0625
35154POPC   PO467829   1.397  20.114   5.223 -0.1280 -0.1383 -0.2047
35154POPC   GL167830   1.303  20.277   5.556  0.0948 -0.0235 -0.3163
35154POPC   GL267831   1.464  20.072   5.784 -0.0899  0.2214 -0.1170
35154POPC   C1A67832   1.007  20.155   5.889 -0.0999  0.0780  0.2380
35154POPC   D2A67833   1.127  19.822   6.135  0.0092  0.0516  0.2177
35154POPC   C3A67834   1.141  19.659   6.522 -0.2519 -0.3134  0.0518
35154POPC   C4A67835   1.326  19.782   6.937  0.1361  0.1250  0.0096
35154POPC   C1B67836   1.665  19.781   6.123  0.2655 -0.0965  0.0934
35154POPC   C2B67837   1.611  19.504   6.498  0.1992  0.0600 -0.1016
35154POPC   C3B67838   1.334  19.177   6.744  0.3766 -0.2121  0.0215
35154POPC   C4B67839   1.074  18.856   6.951  0.2017 -0.0526  0.0864
35155POPC   NC367840   9.847  21.229  11.064 -0.5125 -0.4208 -0.0480
35155POPC   PO467841  10.129  21.342  11.324 -0.3278 -0.1153  0.2394
35155POPC   GL167842  10.002  21.103  11.493 -0.1444  0.0797  0.0367
35155POPC   GL267843  10.189  20.930  11.687 -0.2939 -0.0844 -0.1753
35155POPC   C1A67844   9.685  20.961  11.842 -0.3827 -0.1201 -0.2554
35155POPC   D2A67845   9.618  21.248  12.238 -0.2892 -0.0252  0.1137
35155POPC   C3A67846   9.216  21.372  12.411 -0.0872  0.0780 -0.2782
35155POPC   C4A67847   8.755  21.332  12.380 -0.0976  0.2537 -0.1776
35155POPC   C1B67848  10.080  20.504  11.429  0.3980  0.1048 -0.0580
35155POPC   C2B67849   9.739  20.198  11.432 -0.2448 -0.2400  0.0018
35155POPC   C3B67850   9.384  20.026  11.719  0.0126  0.3061 -0.4206
35155POPC   C4B67851   9.069  19.879  12.055 -0.2516 -0.0031  0.0209
35156POPC   NC367852   0.138  20.367  14.851  0.0313  0.0953  0.1020
35156POPC   PO467853   0.179  20.536  15.211 -0.1549 -0.2417  0.1947
35156POPC   GL167854   0.132  20.879  15.601  0.0988  0.4692 -0.2428
35156POPC   GL267855   0.359  20.985  15.758 -0.2410  0.2560  0.0360
35156POPC   C1A67856   0.086  20.678  16.048  0.3383  0.1017  0.0818
35156POPC   D2A67857  -0.061  20.537  16.447 -0.1415 -0.2505  0.0782
35156POPC   C3A67858  -0.070  20.853  16.771  0.1628  0.1726  0.4072
35156POPC   C4A67859  -0.116  21.142  17.119  0.2542 -0.1250  0.0304
35156POPC   C1B67860   0.476  20.864  16.260 -0.1752 -0.2091 -0.1627
35156POPC   C2B67861   0.403  20.908  16.700  0.1972 -0.3323 -0.1422
35156POPC   C3B67862   0.391  20.876  17.155  0.3947  0.0156 -0.1512
35156POPC   C4B67863   0.238  20.679  17.551 -0.2068 -0.1011 -0.0618
35157POPC   NC367864   7.936   0.038  14.547  0.1246 -0.1437  0.1328
35157POPC   PO467865   8.189   0.279  14.467 -0.2749 -0.0058 -0.2026
35157POPC   GL167866   8.261   0.412  14.875 -0.2388  0.0230 -0.2144
35157POPC   GL267867   7.982   0.415  14.975  0.0400 -0.0413 -0.3776
35157POPC   C1A67868   8.356   0.761  15.156  0.0855  0.0687  0.0070
35157POPC   D2A67869   8.468   0.775  15.615  0.2650 -0.1032  0.1122
35157POPC   C3A67870   8.833   0.985  15.767  0.2493  0.1345  0.0271
35157POPC   C4A67871   9.277   1.221  15.809  0.2476 -0.0204 -0.1377
35157POPC   C1B67872   8.075   0.837  14.723  0.1720  0.3124 -0.2213
35157POPC   C2B67873   8.244   1.233  14.919 -0.1278 -0.1183  0.2073
35157POPC   C3B67874   8.136   1.662  15.081 -0.1398 -0.0697 -0.0077
35157POPC   C4B67875   8.076   2.151  14.977  0.1152 -0.1336  0.3655
35158POPC   NC367876   3.814  18.693  14.533 -0.1235 -0.0018 -0.1842
35158POPC   PO467877   3.611  18.906  14.794  0.0746  0.0629  0.1704
35158POPC   GL167878   3.772  18.803  15.169  0.1257 -0.2849 -0.1393
35158POPC   GL267879   4.131  18.847  15.179 -0.0680 -0.0694  0.0630
35158POPC   C1A67880   3.901  19.103  15.549 -0.2159  0.1226  0.1714
35158POPC   D2A67881   3.807  19.498  15.758 -0.0962 -0.0738 -0.1641
35158POPC   C3A67882   4.054  19.435  16.156  0.0071 -0.1924 -0.2969
35158POPC   C4A67883   4.290  19.565  16.528 -0.1674  0.1697 -0.4256
35158POPC   C1B67884   4.345  18.860  15.609  0.1178  0.0529 -0.0826
35158POPC   C2B67885   4.262  18.904  16.028  0.1694 -0.0322  0.0325
35158POPC   C3B67886   4.147  18.978  16.411  0.2472  0.0275  0.0731
35158POPC   C4B67887   4.301  18.984  16.830 -0.1953  0.0937  0.1175
35159POPC   NC367888  16.186  31.173  16.371 -0.1205  0.0542  0.2417
35159POPC   PO467889  16.550  31.142  16.558  0.0385  0.0021 -0.0131
35159POPC   GL167890  16.521  31.069  16.950  0.0001  0.3994  0.3052
35159POPC   GL267891  16.255  30.928  17.074  0.1730 -0.0527 -0.2703
35159POPC   C1A67892  16.779  31.356  17.204  0.2068 -0.0061  0.0859
35159POPC   D2A67893  16.682  31.589  17.666 -0.0501 -0.0735  0.3186
35159POPC   C3A67894  16.730  31.360  18.104 -0.1096  0.0768 -0.1504
35159POPC   C4A67895  16.605  31.118  18.523 -0.3316 -0.2266  0.0277
35159POPC   C1B67896  16.260  31.337  17.301 -0.0539  0.1010 -0.0270
35159POPC   C2B67897  16.183  31.651  17.580  0.0620  0.3184 -0.1732
35159POPC   C3B67898  15.928  31.588  18.003  0.0061 -0.0962 -0.2332
35159POPC   C4B67899  15.805  31.744  18.434 -0.0143 -0.1771 -0.1071
35160POPC   NC367900  14.723  29.218  16.315  0.2962 -0.0137 -0.1617
35160POPC   PO467901  14.745  29.559  16.488 -0.0888 -0.0337 -0.1503
35160POPC   GL167902  14.499  29.344  16.777 -0.3843 -0.2233 -0.0662
35160POPC   GL267903  14.521  29.555  16.997  0.2561 -0.2259 -0.0552
35160POPC   C1A67904  14.518  29.154  17.259 -0.0079 -0.2335  0.1201
35160POPC   D2A67905  14.448  29.322  17.668  0.0705  0.1636 -0.0683
35160POPC   C3A67906  14.162  29.012  17.915 -0.0595 -0.0306  0.1885
35160POPC   C4A67907  14.026  28.719  18.214 -0.2270 -0.0799 -0.0576
35160POPC   C1B67908  14.110  29.496  17.242 -0.0593 -0.0004 -0.1515
35160POPC   C2B67909  13.940  29.470  17.655 -0.2999 -0.2257 -0.0626
35160POPC   C3B67910  13.781  29.298  18.055 -0.0542 -0.1339 -0.1392
35160POPC   C4B67911  13.505  29.065  18.251  0.0851 -0.3044 -0.1309
35161POPC   NC367912   2.252  19.260  15.658 -0.2209  0.3819 -0.0159
35161POPC   PO467913   2.591  19.415  15.885  0.0935  0.0400 -0.0781
35161POPC   GL167914   2.704  19.357  16.257 -0.5300  0.1947  0.2810
35161POPC   GL267915   2.995  19.312  16.165  0.1773  0.0212 -0.0040
35161POPC   C1A67916   2.431  19.477  16.609  0.1399 -0.2798  0.3254
35161POPC   D2A67917   2.218  19.283  16.962 -0.0598  0.1562 -0.2846
35161POPC   C3A67918   2.301  19.552  17.307  0.4200 -0.0090 -0.0108
35161POPC   C4A67919   2.413  19.853  17.630  0.0843 -0.0084 -0.0462
35161POPC   C1B67920   3.190  19.275  16.594 -0.1059  0.0405  0.2484
35161POPC   C2B67921   3.362  19.262  17.031  0.0411 -0.1788 -0.4332
35161POPC   C3B67922   3.726  19.062  17.273 -0.3221  0.1482 -0.0425
35161POPC   C4B67923   4.065  19.109  17.596 -0.1230 -0.2157  0.2846
35162POPC   NC367924   7.037  27.904   9.757 -0.0268 -0.1578  0.2850
35162POPC   PO467925   6.854  27.544   9.649  0.3893 -0.1756  0.0814
35162POPC   GL167926   7.041  27.416   9.266  0.0859 -0.0626 -0.4685
35162POPC   GL267927   6.844  27.150   9.345  0.0827  0.1456  0.1422
35162POPC   C1A67928   7.136  27.527   8.810 -0.1175  0.0301  0.0719
35162POPC   D2A67929   7.451  27.592   8.436 -0.1535 -0.0315 -0.0644
35162POPC   C3A67930   7.556  28.043   8.207 -0.1571 -0.0818 -0.2363
35162POPC   C4A67931   7.291  28.157   7.841  0.0620  0.1156  0.0876
35162POPC   C1B67932   7.234  27.072   9.016  0.0772  0.0762 -0.2363
35162POPC   C2B67933   7.327  26.759   8.631  0.2014  0.0915  0.3253
35162POPC   C3B67934   7.218  26.321   8.553 -0.1078 -0.1064 -0.2490
35162POPC   C4B67935   6.958  25.977   8.479  0.1642 -0.1846 -0.1376
35163POPC   NC367936   3.604  18.099  15.525  0.1907 -0.3216  0.1565
35163POPC   PO467937   3.284  18.350  15.523 -0.0584 -0.0413  0.0602
35163POPC   GL167938   3.599  18.334  15.918  0.2320  0.1715 -0.1337
35163POPC   GL267939   3.388  18.352  16.172 -0.4453  0.0512 -0.0266
35163POPC   C1A67940   3.727  18.726  16.099  0.0477  0.1349  0.0778
35163POPC   D2A67941   3.597  19.007  16.422 -0.1227 -0.1821  0.1108
35163POPC   C3A67942   3.778  19.188  16.786  0.0953  0.0856  0.1901
35163POPC   C4A67943   4.023  19.495  17.049  0.2821 -0.2760  0.1426
35163POPC   C1B67944   3.579  18.491  16.587 -0.0068  0.1520 -0.3215
35163POPC   C2B67945   3.837  18.686  16.960 -0.1063  0.0957 -0.1076
35163POPC   C3B67946   4.116  18.653  17.346 -0.1886  0.0570  0.0779
35163POPC   C4B67947   4.336  18.200  17.450 -0.0869 -0.2044 -0.0016
35164POPC   NC367948  11.830  17.854  11.553  0.2461  0.0680 -0.0648
35164POPC   PO467949  12.193  18.048  11.494 -0.0547 -0.0361 -0.3211
35164POPC   GL167950  12.410  18.264  11.119  0.0527 -0.2001 -0.0956
35164POPC   GL267951  12.149  18.349  10.983 -0.1956  0.2173  0.0549
35164POPC   C1A67952  12.572  18.694  11.053 -0.0298  0.0902 -0.1140
35164POPC   D2A67953  12.881  19.027  11.006 -0.2056 -0.0786  0.0473
35164POPC   C3A67954  12.948  19.359  10.655  0.1070 -0.0529 -0.2396
35164POPC   C4A67955  12.811  19.767  10.664  0.1302  0.2787  0.3789
35164POPC   C1B67956  11.826  18.642  10.839 -0.0235  0.2051  0.1425
35164POPC   C2B67957  11.623  19.014  10.609  0.1073 -0.1931 -0.0298
35164POPC   C3B67958  11.408  19.392  10.815 -0.2365  0.2358  0.0827
35164POPC   C4B67959  11.176  19.723  11.042  0.0585  0.2429  0.2317
35165POPC   NC367960   0.581  16.717  16.176 -0.0669  0.1712 -0.0403
35165POPC   PO467961   0.806  16.889  15.915  0.2468  0.0395 -0.2252
35165POPC   GL167962   0.921  16.956  16.323  0.0719  0.2128 -0.0221
35165POPC   GL267963   1.141  16.708  16.424  0.1571  0.1108 -0.1629
35165POPC   C1A67964   0.573  16.884  16.628  0.1687 -0.1680 -0.0438
35165POPC   D2A67965   0.581  16.846  17.101 -0.1882 -0.0693 -0.0598
35165POPC   C3A67966   0.536  16.846  17.544  0.1504  0.3320  0.1625
35165POPC   C4A67967   0.410  16.655  17.915  0.1171 -0.0397  0.2365
35165POPC   C1B67968   1.012  16.998  16.761 -0.1812  0.2408 -0.3708
35165POPC   C2B67969   1.118  17.394  16.980 -0.1156 -0.2043  0.1893
35165POPC   C3B67970   1.180  17.565  17.453  0.3900  0.0270  0.0174
35165POPC   C4B67971   1.223  17.804  17.849 -0.1248 -0.0212  0.1337
35166POPC   NC367972  10.842  27.970  15.462 -0.1964 -0.1702 -0.0169
35166POPC   PO467973  10.829  27.947  15.835  0.1658  0.2394  0.2518
35166POPC   GL167974  10.799  28.000  16.270  0.3206 -0.3069 -0.3559
35166POPC   GL267975  10.720  27.729  16.292 -0.0778  0.0778  0.4324
35166POPC   C1A67976  10.864  27.971  16.734 -0.0542  0.0965 -0.0171
35166POPC   D2A67977  10.690  27.689  17.155 -0.1026 -0.2908 -0.0215
35166POPC   C3A67978  10.318  27.607  17.454 -0.2590 -0.0249  0.2624
35166POPC   C4A67979  10.002  27.686  17.753  0.2812  0.1132 -0.0567
35166POPC   C1B67980  10.622  27.515  16.691  0.0019 -0.2077 -0.0184
35166POPC   C2B67981  10.320  27.352  17.018 -0.1006  0.1260 -0.0383
35166POPC   C3B67982  10.259  27.088  17.387  0.1220  0.0929  0.0382
35166POPC   C4B67983  10.288  27.262  17.792 -0.3344  0.4058  0.0959
35167POPC   NC367984  14.449  25.233  15.668  0.0678 -0.0525  0.0026
35167POPC   PO467985  14.149  25.343  15.471 -0.0659  0.2404  0.0010
35167POPC   GL167986  13.807  25.276  15.542 -0.0093 -0.0760 -0.2720
35167POPC   GL267987  13.738  25.478  15.837 -0.1220 -0.0407  0.1744
35167POPC   C1A67988  13.646  24.903  15.314  0.3659 -0.1036  0.1175
35167POPC   D2A67989  13.252  24.614  15.308  0.1127 -0.0413 -0.1667
35167POPC   C3A67990  12.939  24.285  15.307  0.1988  0.0880 -0.1773
35167POPC   C4A67991  12.740  24.020  15.621  0.1661  0.2427 -0.1066
35167POPC   C1B67992  13.391  25.644  16.097  0.0242  0.0924  0.0655
35167POPC   C2B67993  13.262  25.705  16.551 -0.2152  0.1561  0.1959
35167POPC   C3B67994  13.292  25.686  16.971  0.1140 -0.2823 -0.0671
35167POPC   C4B67995  13.316  25.788  17.385  0.3781 -0.0980 -0.4386
35168POPC   NC367996   4.682  30.069  16.742  0.1155 -0.1985 -0.1020
35168POPC   PO467997   5.006  29.838  16.558 -0.3443 -0.2875  0.0236
35168POPC   GL167998   4.998  29.768  16.980  0.2764  0.2206 -0.1642
35168POPC   GL267999   5.060  29.969  17.095 -0.3632  0.0080 -0.1246
35168POPC   C1A68000   4.764  29.694  17.378  0.1402 -0.1222 -0.0921
35168POPC   D2A68001   4.596  29.653  17.828  0.0382  0.1261 -0.2594
35168POPC   C3A68002   4.768  29.526  18.249 -0.0370 -0.0134 -0.2908
35168POPC   C4A68003   4.621  29.490  18.703 -0.1473  0.3062  0.0385
35168POPC   C1B68004   5.336  29.915  17.448 -0.0841  0.0482 -0.0832
35168POPC   C2B68005   5.581  29.752  17.799  0.0624 -0.2222  0.0840
35168POPC   C3B68006   5.812  29.451  18.083  0.0020 -0.1972  0.0758
35168POPC   C4B68007   6.048  29.309  18.413  0.0144 -0.1889  0.1731
35169POPC   NC368008  12.805  28.905  16.035  0.1189 -0.1389  0.1060
35169POPC   PO468009  12.559  29.191  16.251 -0.0107 -0.1288  0.2500
35169POPC   GL168010  12.558  29.177  16.698  0.1535  0.0451 -0.1244
35169POPC   GL268011  12.385  28.972  16.687 -0.2431 -0.3378 -0.1881
35169POPC   C1A68012  12.742  28.923  17.039 -0.0008  0.0035 -0.2263
35169POPC   D2A68013  12.754  28.807  17.477  0.1916  0.0065  0.1195
35169POPC   C3A68014  12.564  28.815  17.878 -0.2095 -0.0803  0.0089
35169POPC   C4A68015  12.583  28.942  18.307  0.0437  0.2523 -0.2078
35169POPC   C1B68016  12.181  29.038  17.113  0.1413  0.0993  0.2658
35169POPC   C2B68017  12.201  28.843  17.554 -0.2092 -0.1063  0.0244
35169POPC   C3B68018  12.096  29.025  18.004 -0.3843  0.2708 -0.0504
35169POPC   C4B68019  12.067  28.939  18.442 -0.0984 -0.1219  0.2318
35170POPC   NC368020   9.816  27.234  15.430  0.1731  0.2460  0.1003
35170POPC   PO468021  10.190  27.296  15.397  0.0812  0.0874 -0.2593
35170POPC   GL168022  10.295  27.067  15.754 -0.1630 -0.2858  0.0380
35170POPC   GL268023  10.105  26.863  15.631 -0.1814  0.0079 -0.1225
35170POPC   C1A68024  10.150  26.954  16.163 -0.3081 -0.2431  0.0404
35170POPC   D2A68025  10.360  26.883  16.548 -0.0100  0.1538 -0.0987
35170POPC   C3A68026  10.386  26.859  16.973  0.2395  0.0079  0.0342
35170POPC   C4A68027  10.097  26.595  17.184 -0.0962  0.0786  0.0888
35170POPC   C1B68028  10.198  26.392  15.743  0.1900 -0.0647  0.3807
35170POPC   C2B68029  10.272  25.994  15.629 -0.0884 -0.2530 -0.0993
35170POPC   C3B68030  10.428  25.567  15.629  0.0194 -0.1592  0.1915
35170POPC   C4B68031  10.261  25.114  15.564 -0.1792 -0.1222 -0.2450
35171POPC   NC368032  14.178  23.856  14.504 -0.0306  0.0807  0.2075
35171POPC   PO468033  14.374  23.683  14.795 -0.3488  0.0119  0.1104
35171POPC   GL168034  13.979  23.573  14.840  0.1250  0.2071 -0.0242
35171POPC   GL268035  14.076  23.397  15.087 -0.1281  0.3452  0.0079
35171POPC   C1A68036  13.656  23.738  15.167 -0.0082  0.0400  0.1503
35171POPC   D2A68037  13.249  23.905  15.320 -0.0473 -0.0536  0.4074
35171POPC   C3A68038  13.071  23.621  15.623 -0.0548 -0.2168 -0.1778
35171POPC   C4A68039  13.074  23.215  15.856 -0.2068  0.0397  0.5173
35171POPC   C1B68040  13.706  23.140  15.042 -0.3870 -0.3381 -0.2050
35171POPC   C2B68041  13.475  22.824  14.815  0.1788  0.0137  0.0753
35171POPC   C3B68042  13.239  22.470  14.763  0.0126 -0.2624  0.2274
35171POPC   C4B68043  12.972  22.076  14.755  0.0313  0.3057  0.1579
35172POPC   NC368044   1.240  32.054  16.189  0.1057  0.1345 -0.0208
35172POPC   PO468045   1.104  31.956  16.521 -0.0124  0.1891 -0.0373
35172POPC   GL168046   1.261  31.906  16.815 -0.1686 -0.6056  0.3981
35172POPC   GL268047   1.159  31.980  17.065  0.3286  0.0677  0.1353
35172POPC   C1A68048   1.492  31.628  17.105 -0.0472  0.0110 -0.1376
35172POPC   D2A68049   1.599  31.605  17.582 -0.1252 -0.1964  0.0108
35172POPC   C3A68050   1.466  31.831  17.917  0.1086 -0.2048  0.1254
35172POPC   C4A68051   1.281  31.613  18.339  0.2709  0.0508  0.0642
35172POPC   C1B68052   1.208  32.176  17.452  0.3836 -0.0185  0.3047
35172POPC   C2B68053   1.343  32.383  17.825  0.1966  0.1670 -0.0967
35172POPC   C3B68054   1.388  32.330  18.239 -0.2579 -0.1555 -0.1600
35172POPC   C4B68055   1.260  32.439  18.637  0.2871 -0.1044  0.0478
35173POPC   NC368056  10.602  16.747  10.126  0.4220 -0.0683 -0.1520
35173POPC   PO468057  10.529  16.852   9.741  0.4017  0.2427  0.0482
35173POPC   GL168058  10.303  17.124   9.706 -0.1785 -0.1819  0.0444
35173POPC   GL268059  10.404  17.367   9.606 -0.0839  0.0296 -0.0272
35173POPC   C1A68060  10.017  17.291   9.337  0.1519 -0.1462 -0.0174
35173POPC   D2A68061   9.797  17.311   8.932 -0.0862  0.0961  0.0966
35173POPC   C3A68062   9.307  17.352   8.822  0.1637 -0.1776 -0.0404
35173POPC   C4A68063   8.917  17.504   8.774  0.1257  0.0312  0.2663
35173POPC   C1B68064  10.469  17.573   9.223  0.0241  0.3694  0.0682
35173POPC   C2B68065  10.482  17.987   9.007 -0.1090 -0.1548  0.0660
35173POPC   C3B68066  10.402  18.235   8.625 -0.0451 -0.1492  0.0119
35173POPC   C4B68067  10.036  18.502   8.560  0.1233 -0.1008  0.1367
35174POPC   NC368068  15.413  27.841  16.004 -0.3046  0.2923  0.0674
35174POPC   PO468069  15.181  27.932  16.290  0.1407 -0.0072 -0.0867
35174POPC   GL168070  15.100  27.934  16.703 -0.1785  0.1788 -0.3115
35174POPC   GL268071  14.858  28.088  16.749 -0.1750 -0.1180  0.2852
35174POPC   C1A68072  14.959  27.704  17.163  0.1005 -0.1199 -0.2783
35174POPC   D2A68073  15.094  27.468  17.558 -0.2139  0.0079  0.1432
35174POPC   C3A68074  14.791  27.438  17.968  0.0946 -0.1426  0.0578
35174POPC   C4A68075  14.682  27.576  18.379 -0.0333  0.0797 -0.1412
35174POPC   C1B68076  14.963  28.246  17.212  0.1603 -0.1091  0.1276
35174POPC   C2B68077  14.941  28.415  17.617 -0.1926  0.1668  0.0002
35174POPC   C3B68078  14.748  28.345  18.045 -0.0137 -0.3077  0.0719
35174POPC   C4B68079  14.513  28.649  18.273 -0.2580  0.3041  0.0424
35175POPC   NC368080   9.806  32.255  15.469  0.2209  0.2331  0.2357
35175POPC   PO468081   9.687  32.412  15.151  0.1234  0.0038 -0.1188
35175POPC   GL168082   9.345  32.626  15.273 -0.0552  0.2547 -0.5922
35175POPC   GL268083   9.397  32.561  15.532 -0.3347 -0.2731 -0.2826
35175POPC   C1A68084   9.159  33.044  15.472 -0.1156  0.1674  0.0863
35175POPC   D2A68085   8.825  33.253  15.778  0.2014 -0.1297  0.0651
35175POPC   C3A68086   8.857  33.476  16.157 -0.0494  0.1347  0.5718
35175POPC   C4A68087   8.739  33.559  16.598  0.0079  0.1639 -0.1993
35175POPC   C1B68088   9.425  32.765  15.873 -0.2958 -0.1134 -0.1666
35175POPC   C2B68089   9.712  32.865  16.235  0.1658 -0.0870  0.0738
35175POPC   C3B68090   9.716  33.139  16.583 -0.0415  0.0319 -0.0012
35175POPC   C4B68091   9.638  33.317  16.990  0.0134 -0.1461  0.0301
35176POPC   NC368092  14.924  23.194  15.237 -0.1200 -0.1636  0.2326
35176POPC   PO468093  14.659  23.272  14.946 -0.3209  0.0825  0.1016
35176POPC   GL168094  14.417  22.991  14.976  0.1491  0.1452 -0.5224
35176POPC   GL268095  14.146  23.035  14.811  0.2133 -0.0764 -0.1317
35176POPC   C1A68096  14.111  22.862  15.289 -0.5786  0.4101 -0.1126
35176POPC   D2A68097  13.849  22.667  15.564  0.3718  0.1782  0.0284
35176POPC   C3A68098  13.586  22.766  15.886  0.3358 -0.3896 -0.1085
35176POPC   C4A68099  13.302  22.891  16.250 -0.2716  0.1946  0.1489
35176POPC   C1B68100  14.006  22.815  14.452 -0.0599  0.2638  0.1735
35176POPC   C2B68101  13.955  22.550  14.120 -0.0986 -0.1048  0.2615
35176POPC   C3B68102  13.836  22.085  14.145  0.1909  0.0414 -0.1362
35176POPC   C4B68103  13.825  21.770  13.858  0.2066  0.1776  0.0753
35177POPC   NC368104  15.041  22.987  11.505 -0.2772  0.1396 -0.0342
35177POPC   PO468105  15.181  23.124  11.156 -0.0211 -0.1057  0.1965
35177POPC   GL168106  14.887  23.295  11.183 -0.0771 -0.0911 -0.0926
35177POPC   GL268107  14.678  23.483  11.205  0.3025 -0.3867 -0.2171
35177POPC   C1A68108  14.555  23.062  11.437  0.0398 -0.0442 -0.1553
35177POPC   D2A68109  14.124  22.957  11.562 -0.1795  0.1026 -0.0449
35177POPC   C3A68110  13.844  22.714  11.890 -0.0252  0.1317  0.2330
35177POPC   C4A68111  13.776  22.585  12.304 -0.1261 -0.2724  0.1538
35177POPC   C1B68112  14.348  23.324  10.927  0.2314  0.0358  0.0015
35177POPC   C2B68113  14.011  23.137  10.635 -0.3670  0.0039 -0.3440
35177POPC   C3B68114  13.698  22.976  10.389 -0.3552  0.4351  0.1493
35177POPC   C4B68115  13.283  23.047  10.390  0.0346  0.2111  0.2306
35178POPC   NC368116   0.102  15.246  16.182  0.1078  0.0266  0.0117
35178POPC   PO468117  -0.204  15.131  15.938  0.0203  0.3747  0.0316
35178POPC   GL168118  -0.370  15.211  16.359  0.1603  0.3663 -0.2948
35178POPC   GL268119  -0.233  14.957  16.431 -0.0098  0.3164  0.0142
35178POPC   C1A68120  -0.591  15.415  16.719  0.2476 -0.0244 -0.1038
35178POPC   D2A68121  -0.673  15.782  17.006 -0.1464  0.0676  0.0515
35178POPC   C3A68122  -0.862  16.062  17.275  0.2443 -0.2856 -0.0688
35178POPC   C4A68123  -0.675  16.286  17.642 -0.0258  0.1817 -0.3098
35178POPC   C1B68124  -0.132  15.246  16.781 -0.2016  0.2811 -0.0257
35178POPC   C2B68125  -0.156  15.090  17.214 -0.0602  0.3695 -0.0361
35178POPC   C3B68126  -0.390  15.185  17.543  0.2561 -0.0625 -0.0732
35178POPC   C4B68127  -0.678  15.353  17.842  0.1352  0.0727  0.2215
35179POPC   NC368128   4.080  27.035  16.165  0.0216 -0.2415 -0.0265
35179POPC   PO468129   4.149  26.637  16.057  0.1436  0.0790  0.0901
35179POPC   GL168130   4.123  26.712  16.516 -0.1087  0.1113 -0.0082
35179POPC   GL268131   3.891  26.905  16.626 -0.2701 -0.0301 -0.0894
35179POPC   C1A68132   4.506  26.696  16.808  0.0159  0.2053 -0.1440
35179POPC   D2A68133   4.717  26.599  17.208  0.1282  0.0397 -0.1883
35179POPC   C3A68134   4.866  26.489  17.624 -0.0459 -0.1195  0.0790
35179POPC   C4A68135   4.918  26.492  18.075 -0.1630 -0.1312 -0.3396
35179POPC   C1B68136   3.695  26.824  17.086  0.2417  0.0433  0.0171
35179POPC   C2B68137   3.556  27.159  17.382  0.3583 -0.0268 -0.3557
35179POPC   C3B68138   3.718  27.377  17.731 -0.0467 -0.0064  0.0601
35179POPC   C4B68139   3.799  27.338  18.182 -0.0448 -0.2823  0.2345
35180POPC   NC368140   3.551  18.754  15.596 -0.1394 -0.5970  0.1813
35180POPC   PO468141   3.168  18.925  15.509  0.2962  0.3264 -0.0462
35180POPC   GL168142   3.241  19.010  15.906  0.1341  0.2201 -0.0729
35180POPC   GL268143   3.511  19.092  15.946  0.1662 -0.1041 -0.0253
35180POPC   C1A68144   3.184  18.775  16.298  0.0294  0.0474 -0.0702
35180POPC   D2A68145   3.234  18.835  16.737 -0.2775  0.3287  0.1735
35180POPC   C3A68146   2.897  18.552  17.019 -0.1291  0.1702  0.1179
35180POPC   C4A68147   2.668  18.303  17.302  0.0838 -0.1599  0.0555
35180POPC   C1B68148   3.491  19.465  16.262 -0.3349 -0.2074  0.0582
35180POPC   C2B68149   3.629  19.645  16.683  0.2339  0.1844 -0.1305
35180POPC   C3B68150   3.590  19.750  17.155  0.0416 -0.0208 -0.0799
35180POPC   C4B68151   3.462  19.919  17.514  0.1555 -0.1093  0.2000
35181POPC   NC368152  13.681  30.130  16.677  0.2604  0.1884  0.3032
35181POPC   PO468153  13.708  29.768  16.835 -0.2471 -0.2086 -0.0913
35181POPC   GL168154  13.480  29.789  17.161  0.0404 -0.1411  0.0301
35181POPC   GL268155  13.597  29.547  17.329  0.1628 -0.0859 -0.1548
35181POPC   C1A68156  13.063  29.687  17.375 -0.1492 -0.4100  0.2161
35181POPC   D2A68157  12.816  29.626  17.791  0.0220  0.1521  0.0183
35181POPC   C3A68158  13.034  29.789  18.152  0.1048 -0.1780  0.3818
35181POPC   C4A68159  13.158  30.159  18.401 -0.0952  0.2532  0.1687
35181POPC   C1B68160  13.514  29.188  17.620  0.0642  0.0483  0.0641
35181POPC   C2B68161  13.555  28.787  17.828 -0.1391 -0.3034  0.0046
35181POPC   C3B68162  13.477  28.458  18.092  0.1564 -0.2269  0.0449
35181POPC   C4B68163  13.223  28.327  18.416  0.1350 -0.1108 -0.1062
35182POPC   NC368164   8.103  26.538  13.284 -0.4477  0.0988 -0.0678
35182POPC   PO468165   7.833  26.428  13.053  0.0895 -0.2446  0.2479
35182POPC   GL168166   7.995  26.061  13.151  0.2603  0.0171 -0.3291
35182POPC   GL268167   8.295  25.997  13.111  0.0579  0.1317 -0.0351
35182POPC   C1A68168   8.066  25.572  13.134 -0.1259 -0.2421  0.0965
35182POPC   D2A68169   8.317  25.190  13.015 -0.1239  0.0554  0.0383
35182POPC   C3A68170   8.750  25.222  12.877 -0.2365 -0.1053 -0.0081
35182POPC   C4A68171   9.145  25.126  12.631  0.0612 -0.1247 -0.4518
35182POPC   C1B68172   8.563  25.621  13.192 -0.2391 -0.1802  0.0290
35182POPC   C2B68173   8.910  25.336  13.345  0.1400  0.1023 -0.1648
35182POPC   C3B68174   9.105  24.909  13.297  0.3118 -0.1371  0.1158
35182POPC   C4B68175   9.359  24.585  13.265  0.0133 -0.0554 -0.1946
35183POPC   NC368176   1.526  26.235  15.512 -0.0842 -0.0640 -0.1073
35183POPC   PO468177   1.515  26.069  15.868  0.3627 -0.2063 -0.1911
35183POPC   GL168178   1.580  25.959  16.287  0.0447 -0.0437 -0.1429
35183POPC   GL268179   1.816  25.865  16.425  0.3503  0.0924 -0.0199
35183POPC   C1A68180   1.427  25.651  16.584 -0.0299  0.1766  0.2607
35183POPC   D2A68181   1.272  25.502  16.987 -0.4532  0.0131 -0.1791
35183POPC   C3A68182   1.176  25.650  17.388  0.1032  0.2229 -0.2633
35183POPC   C4A68183   1.346  25.889  17.758 -0.1174 -0.0387  0.2261
35183POPC   C1B68184   2.061  25.633  16.687  0.1599 -0.2082  0.0356
35183POPC   C2B68185   2.238  25.245  16.828 -0.0670 -0.1340 -0.1299
35183POPC   C3B68186   2.391  24.964  17.160  0.0138 -0.1128 -0.0089
35183POPC   C4B68187   2.623  24.576  17.275  0.1652  0.1457 -0.3528
35184POPC   NC368188   8.559  26.806  12.554 -0.0488 -0.0261  0.2733
35184POPC   PO468189   8.932  26.964  12.521  0.1440 -0.0353  0.1042
35184POPC   GL168190   9.211  26.677  12.620 -0.3934  0.3022  0.1351
35184POPC   GL268191   9.247  26.617  12.333  0.0439  0.3014 -0.1892
35184POPC   C1A68192   9.589  26.395  12.674 -0.1182 -0.1896 -0.0912
35184POPC   D2A68193   9.991  26.346  12.862  0.0329  0.0987 -0.2935
35184POPC   C3A68194   9.968  25.835  12.844  0.1486 -0.2414 -0.2232
35184POPC   C4A68195  10.080  25.436  12.636 -0.0173 -0.0506 -0.1526
35184POPC   C1B68196   9.373  26.129  12.350  0.3686 -0.0133  0.4038
35184POPC   C2B68197   9.623  25.703  12.462 -0.1862 -0.1276 -0.1261
35184POPC   C3B68198   9.660  25.249  12.417 -0.0352 -0.3120  0.2096
35184POPC   C4B68199   9.644  24.841  12.448  0.0503 -0.0811 -0.2918
35185POPC   NC368200   4.503  25.519  15.068 -0.0203  0.2034 -0.1457
35185POPC   PO468201   4.759  25.587  15.378  0.3793  0.0894 -0.0227
35185POPC   GL168202   4.719  25.343  15.719  0.1719  0.3792 -0.4111
35185POPC   GL268203   4.774  25.096  15.769 -0.0023  0.0290  0.1709
35185POPC   C1A68204   4.674  25.481  16.150 -0.1371  0.3996 -0.3791
35185POPC   D2A68205   4.683  25.275  16.541 -0.0452  0.2284  0.0251
35185POPC   C3A68206   4.596  25.236  17.030  0.3127  0.0880  0.2035
35185POPC   C4A68207   4.520  25.047  17.424  0.2575 -0.0310 -0.1154
35185POPC   C1B68208   4.995  25.107  16.184  0.2035  0.2057 -0.4185
35185POPC   C2B68209   5.067  24.992  16.591 -0.1893  0.2418 -0.0098
35185POPC   C3B68210   4.949  24.859  17.016 -0.1622  0.1019 -0.0660
35185POPC   C4B68211   5.012  24.536  17.381  0.1937  0.3470 -0.2540
35186POPC   NC368212   1.843  25.559  16.039 -0.0186  0.1812 -0.1746
35186POPC   PO468213   2.031  25.951  15.921 -0.0614  0.1366 -0.0004
35186POPC   GL168214   2.205  25.846  16.213 -0.1242  0.0338 -0.2939
35186POPC   GL268215   2.429  25.620  16.099 -0.2739  0.0456  0.2055
35186POPC   C1A68216   2.479  26.009  16.582 -0.1132 -0.3491  0.0632
35186POPC   D2A68217   2.538  26.047  17.041  0.2185 -0.1932  0.0311
35186POPC   C3A68218   2.295  25.658  17.236 -0.1901 -0.1753  0.0262
35186POPC   C4A68219   2.191  25.308  17.544 -0.1696 -0.3834 -0.2332
35186POPC   C1B68220   2.478  25.458  16.511  0.0132  0.3003  0.0656
35186POPC   C2B68221   2.714  25.492  16.946 -0.0557  0.1062 -0.1759
35186POPC   C3B68222   2.645  25.418  17.437 -0.3186 -0.3044 -0.0425
35186POPC   C4B68223   2.694  25.031  17.621  0.0577  0.0584 -0.0814
35187POPC   NC368224  15.190  31.354  16.678 -0.0108 -0.0138 -0.0786
35187POPC   PO468225  15.114  30.997  16.586 -0.0965 -0.1142  0.1242
35187POPC   GL168226  15.133  31.018  16.977 -0.2053 -0.1274 -0.1410
35187POPC   GL268227  15.439  31.136  17.039 -0.1177 -0.3356 -0.0445
35187POPC   C1A68228  14.951  31.343  17.268 -0.1221  0.1782 -0.0699
35187POPC   D2A68229  14.840  31.282  17.736 -0.0929  0.2600 -0.1131
35187POPC   C3A68230  14.864  31.574  18.036  0.2223 -0.5662  0.0101
35187POPC   C4A68231  14.892  32.030  18.182 -0.0442 -0.4585 -0.4909
35187POPC   C1B68232  15.337  31.094  17.456 -0.1712 -0.1088 -0.0791
35187POPC   C2B68233  15.660  31.019  17.770 -0.2105  0.1946 -0.5519
35187POPC   C3B68234  16.119  31.176  17.828 -0.2496  0.2062  0.3578
35187POPC   C4B68235  16.533  31.106  17.686 -0.0473 -0.0771 -0.0652
35188POPC   NC368236  11.788  26.679  12.916 -0.1872  0.1864 -0.0961
35188POPC   PO468237  12.219  26.628  12.883  0.3594 -0.0165 -0.1536
35188POPC   GL168238  11.997  26.150  13.042  0.0491  0.0970  0.1309
35188POPC   GL268239  11.993  25.988  13.378 -0.1882  0.0833  0.0914
35188POPC   C1A68240  11.633  26.114  12.732  0.0268  0.2063 -0.0298
35188POPC   D2A68241  11.268  26.042  12.448 -0.0433 -0.0043 -0.0197
35188POPC   C3A68242  11.263  25.831  11.987  0.0574 -0.2567  0.1599
35188POPC   C4A68243  11.329  25.366  11.887  0.1838 -0.4043 -0.0770
35188POPC   C1B68244  12.033  25.501  13.549  0.3231  0.0465 -0.0888
35188POPC   C2B68245  11.873  25.050  13.552 -0.1078  0.2725 -0.1827
35188POPC   C3B68246  11.467  24.882  13.677 -0.1955  0.2575  0.0447
35188POPC   C4B68247  11.025  24.677  13.727 -0.2963 -0.1241 -0.3100
35189POPC   NC368248  12.676  32.801  15.747  0.2430 -0.0508  0.1585
35189POPC   PO468249  12.716  32.429  15.993  0.3111  0.2521 -0.0784
35189POPC   GL168250  12.456  32.587  16.269  0.1685  0.1862 -0.0643
35189POPC   GL268251  12.282  32.661  16.067  0.1059 -0.0575  0.0324
35189POPC   C1A68252  12.372  32.641  16.725  0.0252 -0.3792 -0.1959
35189POPC   D2A68253  12.202  32.652  17.198 -0.0582  0.0904 -0.0355
35189POPC   C3A68254  12.246  33.108  17.349 -0.0494  0.0187  0.3395
35189POPC   C4A68255  12.304  33.469  17.056  0.0221 -0.1504  0.0342
35189POPC   C1B68256  12.138  32.957  16.393  0.1219  0.0368  0.0568
35189POPC   C2B68257  12.005  33.142  16.819 -0.1991 -0.0753 -0.1269
35189POPC   C3B68258  11.820  33.362  17.201  0.0200 -0.1322 -0.2350
35189POPC   C4B68259  11.782  33.765  17.455 -0.0971 -0.3321  0.1589
35190POPC   NC368260  14.272  32.350  16.476  0.0183  0.1119 -0.3313
35190POPC   PO468261  14.086  31.981  16.503  0.0741  0.2462  0.4082
35190POPC   GL168262  14.312  31.963  16.817 -0.3552 -0.0227 -0.1734
35190POPC   GL268263  14.601  32.067  16.740  0.3199 -0.0983 -0.2489
35190POPC   C1A68264  14.211  32.361  17.043 -0.0538  0.0258  0.1367
35190POPC   D2A68265  14.134  32.515  17.491 -0.2785  0.0344 -0.2323
35190POPC   C3A68266  14.001  32.321  17.902 -0.0445  0.1628 -0.1777
35190POPC   C4A68267  13.913  32.242  18.315  0.2291 -0.1057 -0.1896
35190POPC   C1B68268  14.720  31.791  17.079 -0.1113  0.2833 -0.1914
35190POPC   C2B68269  14.587  31.599  17.456  0.1829  0.0457 -0.0750
35190POPC   C3B68270  14.461  31.882  17.801 -0.3002 -0.1918 -0.2900
35190POPC   C4B68271  14.379  32.089  18.237  0.0785  0.2885  0.0658
35191POPC   NC368272   0.132  28.163  16.746  0.0628 -0.0435  0.0016
35191POPC   PO468273   0.469  28.040  16.645 -0.0160  0.1054  0.2489
35191POPC   GL168274   0.656  27.985  17.024  0.2895  0.0180 -0.0569
35191POPC   GL268275   0.468  28.204  17.219  0.2342 -0.0960 -0.1065
35191POPC   C1A68276   0.833  27.602  17.122  0.3916  0.0154  0.1682
35191POPC   D2A68277   0.858  27.106  17.226 -0.0649  0.0532 -0.3108
35191POPC   C3A68278   0.912  27.065  17.694 -0.1275  0.0970 -0.0772
35191POPC   C4A68279   0.654  27.068  18.069  0.1478 -0.3719  0.1637
35191POPC   C1B68280   0.693  27.880  17.507  0.0718 -0.1162  0.2043
35191POPC   C2B68281   0.807  27.932  17.957 -0.0411  0.1526 -0.0745
35191POPC   C3B68282   0.706  28.033  18.402 -0.1186 -0.0985  0.0073
35191POPC   C4B68283   0.397  28.072  18.748 -0.2012  0.0027  0.2597
35192POPC   NC368284   1.825  24.838  16.132 -0.0102 -0.1230  0.0659
35192POPC   PO468285   2.060  25.083  15.892 -0.1682 -0.1809 -0.1292
35192POPC   GL168286   2.108  25.210  16.288 -0.1059  0.1947 -0.1092
35192POPC   GL268287   1.898  25.255  16.487 -0.1308  0.1413 -0.0776
35192POPC   C1A68288   2.243  24.823  16.553  0.0712  0.0924  0.2226
35192POPC   D2A68289   2.229  24.540  16.861 -0.0420  0.1901 -0.2453
35192POPC   C3A68290   2.153  24.351  17.295 -0.1776  0.4613  0.0761
35192POPC   C4A68291   2.063  24.292  17.749  0.0845 -0.1565 -0.3229
35192POPC   C1B68292   1.737  25.271  16.939 -0.1494 -0.2089 -0.0580
35192POPC   C2B68293   1.432  25.057  17.218  0.1120  0.1330 -0.3636
35192POPC   C3B68294   1.167  24.995  17.596 -0.0131  0.0860  0.2374
35192POPC   C4B68295   1.030  24.871  17.989  0.0689 -0.3251  0.1500
35193POPC   NC368296  10.362  29.172  15.969 -0.0152  0.1302  0.0975
35193POPC   PO468297  10.419  28.776  15.935 -0.1375 -0.0663  0.0471
35193POPC   GL168298  10.432  28.769  16.287  0.0596  0.5797 -0.2281
35193POPC   GL268299  10.270  28.943  16.422  0.3889  0.1993 -0.2183
35193POPC   C1A68300  10.108  28.543  16.612 -0.1556  0.0537  0.1808
35193POPC   D2A68301   9.796  28.280  16.837 -0.2187 -0.0654 -0.1456
35193POPC   C3A68302   9.860  28.079  17.303  0.1376  0.1252  0.1314
35193POPC   C4A68303   9.606  27.966  17.640 -0.1687 -0.0011  0.0402
35193POPC   C1B68304  10.433  28.834  16.906 -0.1733  0.1150 -0.1921
35193POPC   C2B68305  10.492  28.814  17.371 -0.0776  0.2029  0.2916
35193POPC   C3B68306  10.413  28.665  17.792  0.2682  0.2246  0.1887
35193POPC   C4B68307   9.998  28.707  18.081 -0.2768 -0.2485  0.0666
35194POPC   NC368308   2.646  27.834  16.177 -0.0824 -0.3106 -0.1763
35194POPC   PO468309   2.444  27.584  16.413 -0.3945  0.2421  0.5611
35194POPC   GL168310   2.525  27.443  16.774 -0.0002 -0.1113  0.1467
35194POPC   GL268311   2.547  27.747  16.931 -0.0839 -0.2995  0.1067
35194POPC   C1A68312   2.790  27.163  16.995  0.1184  0.0965 -0.0136
35194POPC   D2A68313   3.164  26.888  17.009  0.2602 -0.1799 -0.2026
35194POPC   C3A68314   3.255  26.773  17.454  0.3382  0.1850  0.1379
35194POPC   C4A68315   3.310  26.538  17.847 -0.0187  0.0670  0.0274
35194POPC   C1B68316   2.495  27.558  17.354  0.1634 -0.1486 -0.0067
35194POPC   C2B68317   2.518  27.297  17.719 -0.1484 -0.4462 -0.1761
35194POPC   C3B68318   2.416  27.038  18.015 -0.1031 -0.1095 -0.2303
35194POPC   C4B68319   2.123  26.933  18.327  0.0181 -0.0711 -0.1473
35195POPC   NC368320   7.711  18.289  12.281 -0.1468 -0.1847  0.1177
35195POPC   PO468321   7.342  18.334  12.183 -0.3073  0.0376  0.1106
35195POPC   GL168322   7.665  18.749  12.176  0.1700 -0.0270 -0.0151
35195POPC   GL268323   7.813  18.703  11.938 -0.0114 -0.1653  0.0899
35195POPC   C1A68324   8.009  18.687  12.434 -0.0550  0.1138 -0.1982
35195POPC   D2A68325   8.299  18.718  12.818 -0.0778  0.2005  0.0149
35195POPC   C3A68326   8.684  18.472  12.925 -0.3151 -0.3135  0.1436
35195POPC   C4A68327   9.113  18.398  13.027 -0.0168  0.0678  0.1698
35195POPC   C1B68328   8.020  19.082  12.154 -0.0981  0.1380 -0.0539
35195POPC   C2B68329   8.280  19.480  12.052 -0.2635 -0.0911 -0.1583
35195POPC   C3B68330   8.321  19.934  12.009 -0.0469 -0.0121 -0.0683
35195POPC   C4B68331   8.680  20.202  12.079  0.5352  0.0378 -0.0975
35196POPC   NC368332   7.636  28.724  15.624 -0.2595  0.0009 -0.2522
35196POPC   PO468333   7.882  28.581  15.911  0.3576 -0.0887  0.4578
35196POPC   GL168334   7.885  28.440  16.315  0.2257  0.1686 -0.2709
35196POPC   GL268335   8.130  28.268  16.353 -0.0766  0.0816  0.1442
35196POPC   C1A68336   8.014  28.744  16.650  0.0028 -0.1151  0.1595
35196POPC   D2A68337   7.988  28.849  17.108  0.2724 -0.1024 -0.2457
35196POPC   C3A68338   7.792  28.781  17.552  0.0341  0.1088  0.4823
35196POPC   C4A68339   7.909  28.736  18.020  0.1842  0.2861 -0.0359
35196POPC   C1B68340   8.379  27.911  16.532 -0.0715 -0.2705 -0.0988
35196POPC   C2B68341   8.523  27.583  16.846  0.3521 -0.1457  0.0931
35196POPC   C3B68342   8.566  27.366  17.241 -0.0618  0.1994  0.2851
35196POPC   C4B68343   8.771  27.166  17.581  0.1341  0.1418  0.1760
35197POPC   NC368344   3.128  19.580  15.329 -0.1187  0.1094 -0.1787
35197POPC   PO468345   3.221  19.420  15.689 -0.1010  0.2038 -0.2032
35197POPC   GL168346   2.984  19.725  15.869 -0.2867  0.0216  0.0067
35197POPC   GL268347   3.043  20.003  15.798  0.0423  0.0357  0.0330
35197POPC   C1A68348   3.114  19.751  16.313 -0.0849  0.3557  0.0500
35197POPC   D2A68349   3.250  19.891  16.710  0.1013 -0.1814  0.0021
35197POPC   C3A68350   2.904  20.194  16.806 -0.1971  0.0758  0.2506
35197POPC   C4A68351   2.706  20.302  17.213 -0.3312  0.2852  0.2363
35197POPC   C1B68352   2.913  20.237  16.251 -0.2098  0.2512 -0.1612
35197POPC   C2B68353   2.617  20.453  16.495  0.0036 -0.0514  0.0995
35197POPC   C3B68354   2.313  20.690  16.842  0.0924 -0.0877 -0.4081
35197POPC   C4B68355   1.894  20.865  16.769  0.0401 -0.1424 -0.0699
35198POPC   NC368356  10.976  27.137  13.367  0.0364 -0.1211 -0.1735
35198POPC   PO468357  11.252  27.108  13.094  0.1985  0.0548 -0.1595
35198POPC   GL168358  11.320  26.751  13.010 -0.3104 -0.2211 -0.0259
35198POPC   GL268359  11.188  26.544  12.768 -0.1359 -0.0810 -0.0153
35198POPC   C1A68360  11.390  26.339  13.165 -0.3017  0.0236  0.1210
35198POPC   D2A68361  11.401  25.922  13.350 -0.5862  0.4171  0.2897
35198POPC   C3A68362  11.116  25.626  13.218 -0.0894 -0.1984  0.2699
35198POPC   C4A68363  10.976  25.252  12.951  0.0894  0.1841  0.1562
35198POPC   C1B68364  10.863  26.335  12.533 -0.2596  0.2549  0.1273
35198POPC   C2B68365  10.784  25.956  12.242 -0.2890  0.0554 -0.0532
35198POPC   C3B68366  10.760  25.485  12.147 -0.1380 -0.0047 -0.0436
35198POPC   C4B68367  10.881  25.009  12.203  0.1855 -0.2537  0.2295
35199POPC   NC368368   0.549  19.705  15.574 -0.0600  0.0144 -0.0055
35199POPC   PO468369   0.695  20.061  15.624 -0.3331  0.4733  0.2884
35199POPC   GL168370   0.639  20.331  16.031  0.2156  0.1834  0.1463
35199POPC   GL268371   0.812  20.542  16.041  0.0448 -0.2761 -0.1063
35199POPC   C1A68372   0.407  20.406  16.394 -0.1373 -0.1491  0.1563
35199POPC   D2A68373   0.289  20.430  16.847  0.1608  0.0860  0.0375
35199POPC   C3A68374   0.551  20.339  17.226 -0.0951  0.1212 -0.2270
35199POPC   C4A68375   0.414  20.194  17.690  0.0334  0.0047  0.1902
35199POPC   C1B68376   0.866  20.576  16.484 -0.0568 -0.3235 -0.0622
35199POPC   C2B68377   0.765  20.679  16.908 -0.1630  0.1463 -0.1736
35199POPC   C3B68378   0.858  20.754  17.338 -0.0609 -0.1930 -0.3837
35199POPC   C4B68379   0.744  20.493  17.707  0.0628 -0.0293 -0.2616
35200POPC   NC368380  14.541  24.621  14.988 -0.1105 -0.1448 -0.2882
35200POPC   PO468381  14.597  24.210  15.112  0.0845 -0.1730 -0.0769
35200POPC   GL168382  14.423  24.117  15.509 -0.1393 -0.1710 -0.3854
35200POPC   GL268383  14.372  24.364  15.634 -0.1278  0.3137  0.0326
35200POPC   C1A68384  13.962  24.085  15.646 -0.1453  0.2186  0.2676
35200POPC   D2A68385  13.574  23.791  15.663  0.1534  0.1825  0.1182
35200POPC   C3A68386  13.526  23.408  15.510  0.1407  0.1382  0.0214
35200POPC   C4A68387  13.371  22.922  15.424 -0.0301 -0.1647 -0.1512
35200POPC   C1B68388  14.208  24.271  16.027 -0.1241 -0.0073 -0.2718
35200POPC   C2B68389  14.072  24.213  16.432 -0.2342  0.0230  0.3319
35200POPC   C3B68390  13.998  24.110  16.905 -0.2200 -0.0141 -0.0484
35200POPC   C4B68391  13.876  24.225  17.356 -0.3881  0.1952 -0.0503
35201POPC   NC368392   8.460  31.191   9.529  0.0749 -0.0851 -0.1314
35201POPC   PO468393   8.566  31.316   9.176  0.1037  0.0753  0.1686
35201POPC   GL168394   8.507  31.276   8.771 -0.0559  0.2342  0.0895
35201POPC   GL268395   8.737  31.289   8.659 -0.0496  0.3328 -0.0278
35201POPC   C1A68396   8.225  31.025   8.468  0.0826 -0.1447 -0.1643
35201POPC   D2A68397   7.919  31.157   8.166  0.0776  0.1586  0.0513
35201POPC   C3A68398   7.965  30.969   7.752  0.1664 -0.4187  0.0077
35201POPC   C4A68399   7.893  30.728   7.354 -0.0946  0.2154 -0.0301
35201POPC   C1B68400   8.624  31.308   8.215  0.4234 -0.0622  0.0598
35201POPC   C2B68401   8.803  31.416   7.786 -0.1966  0.0158 -0.0160
35201POPC   C3B68402   8.862  31.730   7.412  0.0131  0.0760  0.1353
35201POPC   C4B68403   8.591  32.040   7.150 -0.1243 -0.2206 -0.0373
35202POPC   NC368404   1.205  26.221  16.265  0.0237 -0.2166  0.0380
35202POPC   PO468405   1.005  25.934  16.055 -0.3146 -0.0982 -0.2124
35202POPC   GL168406   0.953  25.803  16.495  0.0649  0.1143  0.0726
35202POPC   GL268407   0.952  25.531  16.647 -0.0389 -0.5808 -0.2609
35202POPC   C1A68408   1.194  25.977  16.869 -0.0949  0.0793  0.0556
35202POPC   D2A68409   1.229  26.242  17.257 -0.0744 -0.1427  0.0717
35202POPC   C3A68410   0.964  26.389  17.596  0.3155  0.0840 -0.2551
35202POPC   C4A68411   0.625  26.599  17.828 -0.0072  0.1669 -0.1589
35202POPC   C1B68412   0.712  25.546  17.021 -0.1894  0.0568 -0.0802
35202POPC   C2B68413   0.630  25.406  17.408 -0.0571 -0.2138 -0.0082
35202POPC   C3B68414   0.690  25.242  17.804  0.0127  0.0498  0.2866
35202POPC   C4B68415   0.830  25.325  18.239 -0.0266  0.3453 -0.2217
35203POPC   NC368416   2.281  16.858  15.827  0.0243 -0.2450 -0.0650
35203POPC   PO468417   2.557  16.840  16.123 -0.2549 -0.0108 -0.1058
35203POPC   GL168418   2.292  17.094  16.278 -0.1070 -0.0463  0.0315
35203POPC   GL268419   2.272  17.074  16.567  0.0231 -0.0534 -0.4348
35203POPC   C1A68420   2.214  17.538  16.329  0.3538 -0.3979  0.0474
35203POPC   D2A68421   2.241  17.953  16.553 -0.0746  0.0555 -0.1762
35203POPC   C3A68422   2.617  18.172  16.765 -0.0552 -0.2257  0.2697
35203POPC   C4A68423   2.860  18.401  16.479  0.3553  0.1896 -0.0540
35203POPC   C1B68424   2.145  17.090  17.016 -0.2956 -0.1074 -0.2191
35203POPC   C2B68425   2.285  17.305  17.396 -0.2057 -0.0232 -0.3784
35203POPC   C3B68426   2.061  17.578  17.772 -0.0475  0.1311 -0.1937
35203POPC   C4B68427   2.071  18.050  17.883  0.1493 -0.3462 -0.0539
35204POPC   NC368428  11.684  26.355  13.727  0.1688 -0.1805 -0.1153
35204POPC   PO468429  11.415  26.553  13.908 -0.1487  0.0392 -0.0129
35204POPC   GL168430  11.353  26.266  14.228  0.0217 -0.0597  0.1729
35204POPC   GL268431  11.277  26.049  14.045  0.3368 -0.1462  0.1973
35204POPC   C1A68432  11.375  25.889  14.533 -0.0943 -0.2549 -0.0128
35204POPC   D2A68433  11.078  25.634  14.780  0.2919 -0.0863 -0.2852
35204POPC   C3A68434  11.279  25.287  15.065 -0.2370  0.0752  0.2688
35204POPC   C4A68435  11.496  25.234  15.424 -0.1029 -0.2434 -0.3704
35204POPC   C1B68436  11.146  25.663  13.768 -0.2936 -0.1856 -0.3105
35204POPC   C2B68437  11.025  25.267  13.589  0.1532 -0.0080  0.0251
35204POPC   C3B68438  11.187  24.953  13.295 -0.2330 -0.0929  0.0831
35204POPC   C4B68439  11.216  24.794  12.874 -0.0419 -0.1950 -0.0429
35205POPC   NC368440  15.625  22.581  12.755  0.0705 -0.0478 -0.1227
35205POPC   PO468441  15.370  22.379  12.537 -0.3740 -0.1123 -0.1593
35205POPC   GL168442  14.974  22.449  12.457 -0.5841 -0.2059  0.0167
35205POPC   GL268443  14.902  22.199  12.283 -0.0669 -0.0104  0.0399
35205POPC   C1A68444  14.534  22.422  12.620  0.0207  0.0924  0.2936
35205POPC   D2A68445  14.148  22.169  12.516 -0.0199  0.2597 -0.0986
35205POPC   C3A68446  14.031  21.787  12.783 -0.2587 -0.0271 -0.0106
35205POPC   C4A68447  13.958  21.329  12.976 -0.0174  0.2293  0.1557
35205POPC   C1B68448  14.463  22.159  12.136  0.3159 -0.3154  0.0231
35205POPC   C2B68449  14.057  22.250  11.984 -0.0423  0.3415 -0.0143
35205POPC   C3B68450  13.665  22.175  11.645 -0.0163 -0.0626 -0.3057
35205POPC   C4B68451  13.442  21.911  11.410 -0.4392  0.4175  0.0444
35206POPC   NC368452  11.190  29.984  16.843  0.1129  0.1584 -0.0442
35206POPC   PO468453  10.848  29.990  16.650 -0.0626  0.2155  0.1942
35206POPC   GL168454  10.668  30.154  16.958  0.2565 -0.1160  0.0625
35206POPC   GL268455  10.349  30.218  16.979  0.4258  0.1656  0.0059
35206POPC   C1A68456  10.833  30.294  17.351  0.0157  0.0509 -0.1182
35206POPC   D2A68457  11.110  30.297  17.729  0.0011  0.0330  0.1053
35206POPC   C3A68458  11.323  30.216  18.184  0.0047 -0.1153 -0.0431
35206POPC   C4A68459  11.610  29.995  18.414  0.0405  0.2988  0.0707
35206POPC   C1B68460  10.357  30.200  17.438 -0.1007 -0.1274 -0.1312
35206POPC   C2B68461  10.150  30.065  17.857 -0.0151  0.1808  0.1917
35206POPC   C3B68462  10.169  30.064  18.317  0.2931 -0.2172 -0.0174
35206POPC   C4B68463  10.057  29.821  18.717  0.3466  0.1167 -0.6365
35207POPC   NC368464  15.279  21.644  15.481  0.0078  0.0804  0.1942
35207POPC   PO468465  15.541  21.343  15.322  0.1764  0.3041  0.2540
35207POPC   GL168466  15.476  21.287  15.669 -0.1110 -0.0515  0.0561
35207POPC   GL268467  15.503  21.481  15.958 -0.0540  0.0337  0.1390
35207POPC   C1A68468  15.067  21.216  15.895  0.0394 -0.0378 -0.0146
35207POPC   D2A68469  14.662  20.996  15.798 -0.0869  0.0735 -0.2911
35207POPC   C3A68470  14.284  20.992  16.108 -0.1312 -0.1324  0.1171
35207POPC   C4A68471  14.254  21.313  16.433  0.0279  0.0293 -0.1081
35207POPC   C1B68472  15.479  21.050  16.078  0.0398 -0.1956 -0.4205
35207POPC   C2B68473  15.444  20.694  16.402 -0.2024 -0.0365 -0.3169
35207POPC   C3B68474  15.226  20.270  16.488  0.1271 -0.1024  0.1997
35207POPC   C4B68475  14.931  19.973  16.701  0.1283 -0.3451 -0.0902
35208POPC   NC368476  16.238  32.220  16.698 -0.0714 -0.3708 -0.4012
35208POPC   PO468477  16.355  32.581  16.552  0.1606  0.1130  0.2595
35208POPC   GL168478  16.205  32.619  16.923 -0.1903 -0.1293  0.1649
35208POPC   GL268479  16.427  32.845  16.985 -0.0228  0.1789 -0.3474
35208POPC   C1A68480  16.099  32.357  17.274  0.2453  0.4398  0.1462
35208POPC   D2A68481  15.829  32.335  17.647 -0.0161 -0.0881 -0.1122
35208POPC   C3A68482  15.699  32.039  17.938  0.1124 -0.2960 -0.0383
35208POPC   C4A68483  15.345  31.767  18.113 -0.1324  0.0604  0.3741
35208POPC   C1B68484  16.252  32.937  17.367  0.2852 -0.1257 -0.2113
35208POPC   C2B68485  16.387  33.134  17.767 -0.0479 -0.1553  0.0286
35208POPC   C3B68486  16.257  33.403  18.115 -0.0189  0.2147 -0.1126
35208POPC   C4B68487  16.272  33.784  18.390 -0.2176  0.3281  0.0685
35209POPC   NC368488   4.272  29.412  16.240  0.1401 -0.0656  0.0836
35209POPC   PO468489   4.478  29.643  16.440  0.3262  0.0033  0.0631
35209POPC   GL168490   4.522  29.389  16.832 -0.0718  0.1744  0.1824
35209POPC   GL268491   4.694  29.525  16.827  0.0126  0.2831 -0.1495
35209POPC   C1A68492   4.641  29.240  17.290 -0.0778 -0.1093  0.1436
35209POPC   D2A68493   4.657  29.141  17.696 -0.0428  0.1240  0.0255
35209POPC   C3A68494   5.016  29.188  18.001  0.3766  0.1941 -0.2519
35209POPC   C4A68495   5.296  28.970  18.239  0.1189  0.1722 -0.1964
35209POPC   C1B68496   4.316  29.599  17.151 -0.1386  0.1153  0.2104
35209POPC   C2B68497   4.129  29.318  17.486 -0.1219 -0.2058  0.0092
35209POPC   C3B68498   3.815  29.399  17.854 -0.0382  0.0740 -0.2570
35209POPC   C4B68499   3.377  29.304  17.897 -0.1785  0.1270 -0.0905
35210POPC   NC368500  13.773  27.380  16.727 -0.0087  0.1296  0.1755
35210POPC   PO468501  13.776  27.661  16.475 -0.0153 -0.2296  0.0655
35210POPC   GL168502  13.433  27.722  16.750 -0.1548 -0.2716  0.1281
35210POPC   GL268503  13.263  27.990  16.891  0.0147  0.2909  0.2525
35210POPC   C1A68504  13.373  27.582  17.218 -0.0875 -0.2713  0.0454
35210POPC   D2A68505  13.496  27.591  17.681 -0.0273  0.0414  0.2801
35210POPC   C3A68506  13.508  27.857  18.072  0.2415  0.1727  0.0876
35210POPC   C4A68507  13.691  27.885  18.476  0.0608  0.0855  0.1574
35210POPC   C1B68508  13.166  28.110  17.333  0.2674 -0.2031 -0.2385
35210POPC   C2B68509  13.044  28.088  17.804  0.2744  0.1959  0.3959
35210POPC   C3B68510  12.809  28.318  18.071 -0.3667 -0.1132  0.1201
35210POPC   C4B68511  12.665  28.258  18.535 -0.0585 -0.0761 -0.1472
35211POPC   NC368512   5.056  17.290  15.332 -0.0717 -0.2173  0.1869
35211POPC   PO468513   5.260  16.958  15.397  0.1240  0.1450  0.0281
35211POPC   GL168514   5.403  17.161  15.691  0.0991  0.0261  0.3139
35211POPC   GL268515   5.159  17.156  15.823  0.0281  0.1215  0.0981
35211POPC   C1A68516   5.732  17.362  15.950  0.3091  0.1957  0.1605
35211POPC   D2A68517   6.170  17.552  15.950  0.1247  0.1502  0.0912
35211POPC   C3A68518   6.444  17.612  16.303 -0.0119 -0.0781 -0.2856
35211POPC   C4A68519   6.741  17.725  16.652  0.1652 -0.0815  0.4221
35211POPC   C1B68520   5.387  17.152  16.227 -0.2038 -0.1950  0.3045
35211POPC   C2B68521   5.211  17.177  16.659  0.0742 -0.1200  0.2502
35211POPC   C3B68522   5.032  17.179  17.075  0.1061  0.1043  0.1945
35211POPC   C4B68523   4.605  17.237  17.245  0.0099 -0.0464  0.0114
35212POPC   NC368524  12.064  28.312  16.038 -0.3153  0.3792  0.1128
35212POPC   PO468525  12.182  28.168  16.370  0.1798  0.0569 -0.1276
35212POPC   GL168526  12.027  28.057  16.762 -0.0367 -0.0391  0.2627
35212POPC   GL268527  12.259  27.971  16.862 -0.2213 -0.0197 -0.2896
35212POPC   C1A68528  11.766  27.700  16.836  0.2612 -0.2713  0.1213
35212POPC   D2A68529  11.568  27.374  17.085  0.0478  0.1585  0.0004
35212POPC   C3A68530  11.296  27.660  17.394  0.1358  0.1082  0.1482
35212POPC   C4A68531  10.914  27.531  17.569 -0.2357 -0.1028  0.1932
35212POPC   C1B68532  12.083  28.096  17.282  0.1190 -0.1102  0.2515
35212POPC   C2B68533  12.138  27.971  17.726 -0.0707 -0.2964 -0.2123
35212POPC   C3B68534  12.127  27.634  18.084  0.0397  0.0837 -0.1266
35212POPC   C4B68535  12.216  27.310  18.409 -0.0226  0.3425  0.0243
35213POPC   NC368536   6.510   0.192  14.780 -0.2302  0.1420  0.2886
35213POPC   PO468537   6.665   0.174  15.169  0.0268 -0.0531 -0.3297
35213POPC   GL168538   6.894   0.266  15.462  0.3109  0.4151 -0.1242
35213POPC   GL268539   7.120   0.343  15.318 -0.0433 -0.2467  0.1266
35213POPC   C1A68540   6.953   0.314  15.923  0.0443 -0.1305  0.0711
35213POPC   D2A68541   6.966   0.527  16.271  0.1496 -0.0211 -0.3663
35213POPC   C3A68542   7.251   0.866  16.447 -0.1935 -0.0431 -0.0994
35213POPC   C4A68543   7.402   1.251  16.697 -0.0564  0.0859  0.0534
35213POPC   C1B68544   7.347   0.766  15.336 -0.1166  0.0668  0.1730
35213POPC   C2B68545   7.572   0.978  15.659 -0.0521 -0.0761  0.2711
35213POPC   C3B68546   7.781   1.283  15.874  0.3773 -0.0606  0.0551
35213POPC   C4B68547   8.071   1.335  16.190  0.1112  0.0864 -0.2711
35214POPC   NC368548   4.482  17.124  15.878  0.2711 -0.1362 -0.2543
35214POPC   PO468549   4.632  17.333  15.594  0.0147  0.4381  0.1076
35214POPC   GL168550   4.747  17.486  15.869  0.1676 -0.2648  0.4066
35214POPC   GL268551   4.925  17.666  15.895 -0.2809  0.1691  0.2532
35214POPC   C1A68552   4.822  17.278  16.252 -0.1907 -0.0015  0.0034
35214POPC   D2A68553   4.734  17.277  16.691 -0.1384  0.2015 -0.1887
35214POPC   C3A68554   4.814  17.628  17.014 -0.2108  0.0923 -0.1642
35214POPC   C4A68555   4.769  18.036  17.228  0.1591 -0.2038 -0.0828
35214POPC   C1B68556   5.270  17.708  16.215 -0.0972  0.0483 -0.1300
35214POPC   C2B68557   5.281  17.838  16.681  0.3543 -0.1051 -0.0670
35214POPC   C3B68558   5.238  17.955  17.172 -0.0217  0.0161  0.1161
35214POPC   C4B68559   5.566  17.864  17.519  0.2222 -0.2360 -0.1406
35215POPC   NC368560  11.821  26.999  11.872 -0.0233 -0.1108 -0.1090
35215POPC   PO468561  11.619  27.204  11.607  0.0505  0.0911 -0.0543
35215POPC   GL168562  11.451  26.914  11.364  0.1133 -0.1652 -0.2696
35215POPC   GL268563  11.200  26.830  11.591 -0.0661 -0.1021  0.1591
35215POPC   C1A68564  11.288  26.771  10.961  0.0905 -0.1728 -0.0420
35215POPC   D2A68565  11.183  26.406  10.640  0.1839 -0.1282  0.0171
35215POPC   C3A68566  10.829  26.286  10.436  0.2336  0.1789  0.0590
35215POPC   C4A68567  10.753  25.842  10.337  0.2277 -0.2206 -0.1763
35215POPC   C1B68568  10.985  26.521  11.307 -0.0423  0.0639  0.1481
35215POPC   C2B68569  11.009  26.088  11.018  0.0552  0.1990 -0.1107
35215POPC   C3B68570  11.030  25.630  10.886  0.0368  0.3810  0.1506
35215POPC   C4B68571  10.797  25.289  10.677 -0.1963  0.0542  0.0712
35216POPC   NC368572  12.218  27.592  16.485  0.0307  0.1500  0.0749
35216POPC   PO468573  12.459  27.295  16.369  0.0567 -0.0219  0.0533
35216POPC   GL168574  12.422  26.994  16.555  0.1623 -0.0485  0.2020
35216POPC   GL268575  12.218  27.102  16.783  0.2863 -0.3008 -0.1274
35216POPC   C1A68576  12.414  26.575  16.712  0.0959  0.3587 -0.0368
35216POPC   D2A68577  12.342  26.255  17.056  0.0599  0.0629 -0.0725
35216POPC   C3A68578  12.365  25.781  17.111  0.2372  0.3275  0.0096
35216POPC   C4A68579  12.647  25.503  16.833  0.1298 -0.1709 -0.0517
35216POPC   C1B68580  12.400  27.191  17.148 -0.0323  0.3728 -0.2733
35216POPC   C2B68581  12.386  27.447  17.543  0.0616 -0.0648 -0.3634
35216POPC   C3B68582  12.606  27.437  17.924  0.0981  0.3110  0.0268
35216POPC   C4B68583  12.704  27.524  18.426 -0.0285  0.2574  0.1208
35217POPC   NC368584   9.343  26.651  14.785  0.2658  0.2705  0.1174
35217POPC   PO468585   9.369  26.485  14.481 -0.0332  0.2977  0.1374
35217POPC   GL168586   9.627  26.228  14.403  0.2664  0.0124 -0.0614
35217POPC   GL268587   9.930  26.287  14.338 -0.2374  0.2775 -0.0778
35217POPC   C1A68588   9.606  25.788  14.597 -0.1045 -0.0268 -0.0978
35217POPC   D2A68589   9.964  25.597  14.873  0.1028  0.4657 -0.1923
35217POPC   C3A68590   9.835  25.188  15.116 -0.1010 -0.1910  0.0284
35217POPC   C4A68591   9.397  25.161  15.256  0.1104  0.0406  0.1035
35217POPC   C1B68592  10.294  26.144  14.611 -0.2265 -0.0346  0.0029
35217POPC   C2B68593  10.597  25.749  14.659  0.1027 -0.2214 -0.1379
35217POPC   C3B68594  10.741  25.330  14.839 -0.1540  0.2292  0.2905
35217POPC   C4B68595  10.995  24.924  14.784  0.2824 -0.1854 -0.0651
35218POPC   NC368596  14.890  27.552  16.703  0.3464  0.1015 -0.0234
35218POPC   PO468597  14.771  27.508  16.320  0.1189  0.1430  0.1753
35218POPC   GL168598  14.458  27.262  16.544  0.1804 -0.0383  0.4833
35218POPC   GL268599  14.272  27.460  16.724  0.2259 -0.1903 -0.0235
35218POPC   C1A68600  14.464  27.109  17.000 -0.1135  0.2069 -0.2004
35218POPC   D2A68601  14.675  26.763  17.251  0.0002  0.0781  0.1891
35218POPC   C3A68602  14.756  26.459  17.600 -0.0937 -0.1891 -0.5089
35218POPC   C4A68603  14.574  26.311  18.013 -0.2129 -0.0858  0.1995
35218POPC   C1B68604  14.427  27.587  17.202  0.1447 -0.0749 -0.2551
35218POPC   C2B68605  14.461  27.446  17.612  0.0182  0.6081  0.1587
35218POPC   C3B68606  14.330  27.322  18.060 -0.1948  0.0758 -0.1700
35218POPC   C4B68607  14.297  27.234  18.504 -0.1947  0.1045  0.0794
35219POPC   NC368608  10.912  26.843  14.144 -0.2220 -0.1032 -0.2416
35219POPC   PO468609  10.629  26.812  13.882  0.0306 -0.1374  0.3198
35219POPC   GL168610  10.674  26.409  13.795 -0.1566  0.1043 -0.1812
35219POPC   GL268611  10.913  26.392  13.975 -0.0094  0.0134  0.0698
35219POPC   C1A68612  10.372  26.179  14.102  0.0888  0.2732 -0.0815
35219POPC   D2A68613  10.187  25.821  14.304  0.0153  0.3359 -0.4174
35219POPC   C3A68614  10.255  25.416  14.345 -0.1487 -0.4504 -0.0125
35219POPC   C4A68615  10.215  25.186  14.720  0.1920 -0.0861  0.1248
35219POPC   C1B68616  10.743  25.902  13.945 -0.0256 -0.0256  0.1014
35219POPC   C2B68617  10.556  25.487  13.946 -0.1007 -0.2441 -0.3505
35219POPC   C3B68618  10.588  25.038  13.938 -0.1410 -0.2484 -0.1018
35219POPC   C4B68619  10.353  24.597  14.047 -0.2813 -0.0539 -0.0016
35220POPC   NC368620   4.555  24.097  14.893 -0.1681  0.1164  0.0251
35220POPC   PO468621   4.890  23.918  14.819 -0.5398  0.0920  0.1446
35220POPC   GL168622   4.910  23.834  15.212  0.1170  0.3586 -0.0968
35220POPC   GL268623   4.859  23.560  15.272  0.1346  0.1742  0.0495
35220POPC   C1A68624   5.315  23.686  15.429  0.0351  0.0930 -0.0520
35220POPC   D2A68625   5.662  23.494  15.647 -0.0855  0.1060 -0.0606
35220POPC   C3A68626   5.838  23.544  16.097  0.0942 -0.1535  0.1467
35220POPC   C4A68627   5.538  23.637  16.467 -0.0354 -0.4758 -0.1487
35220POPC   C1B68628   4.927  23.250  15.642 -0.0775 -0.2650  0.0758
35220POPC   C2B68629   4.928  23.391  16.099 -0.0125 -0.2243 -0.5471
35220POPC   C3B68630   5.158  23.270  16.504 -0.1685 -0.0108 -0.0642
35220POPC   C4B68631   5.355  23.313  16.934  0.0204 -0.0056 -0.3069
35221POPC   NC368632   8.533  28.269  10.108 -0.1704 -0.1848 -0.1472
35221POPC   PO468633   8.144  28.385  10.088 -0.1907  0.0615  0.2583
35221POPC   GL168634   8.154  28.158   9.782  0.0915 -0.1422 -0.1419
35221POPC   GL268635   8.297  28.333   9.592 -0.3474 -0.0400  0.4203
35221POPC   C1A68636   8.187  27.811   9.495 -0.1891  0.2111 -0.1001
35221POPC   D2A68637   8.419  27.550   9.252  0.1585  0.0348  0.0309
35221POPC   C3A68638   8.493  27.179   9.104 -0.1827 -0.2072  0.0059
35221POPC   C4A68639   8.496  26.846   9.378  0.0438  0.0662  0.0189
35221POPC   C1B68640   8.527  28.026   9.271 -0.1670  0.0345 -0.0436
35221POPC   C2B68641   8.586  27.814   8.865  0.0197  0.1023  0.1179
35221POPC   C3B68642   8.426  27.453   8.661  0.0940 -0.0409 -0.0342
35221POPC   C4B68643   8.193  27.073   8.667  0.2504  0.0629 -0.0414
35222POPC   NC368644  16.360  22.658  15.277  0.5989 -0.0341  0.1056
35222POPC   PO468645  16.202  22.939  15.447  0.0708  0.3700  0.2327
35222POPC   GL168646  16.087  22.844  15.854  0.2528 -0.0673  0.0043
35222POPC   GL268647  15.813  22.776  15.746 -0.2108  0.1009  0.2104
35222POPC   C1A68648  16.122  22.967  16.328 -0.0525 -0.1732  0.0538
35222POPC   D2A68649  15.803  22.957  16.670  0.1738 -0.0078 -0.1138
35222POPC   C3A68650  15.617  22.510  16.747 -0.1053 -0.0616  0.0304
35222POPC   C4A68651  15.511  22.082  16.698 -0.0798 -0.0313  0.0743
35222POPC   C1B68652  15.636  22.758  16.171 -0.1480  0.0287 -0.2839
35222POPC   C2B68653  15.296  22.654  16.443  0.2315 -0.2020 -0.0963
35222POPC   C3B68654  15.123  22.489  16.851 -0.0205 -0.1700  0.1047
35222POPC   C4B68655  15.367  22.259  17.202  0.1426 -0.0113 -0.2513
35223POPC   NC368656   2.910  20.498  15.160 -0.2013 -0.3042 -0.0863
35223POPC   PO468657   3.055  20.825  15.294  0.0728 -0.0583 -0.0478
35223POPC   GL168658   2.950  20.985  15.682 -0.1522 -0.2553  0.2530
35223POPC   GL268659   3.107  20.889  15.874  0.0696  0.3427 -0.0032
35223POPC   C1A68660   2.631  20.827  15.973  0.1671  0.4854 -0.0571
35223POPC   D2A68661   2.286  20.550  16.119  0.0271  0.0963 -0.2809
35223POPC   C3A68662   1.839  20.721  16.113 -0.2594  0.1520 -0.0307
35223POPC   C4A68663   1.405  20.674  16.274 -0.2846 -0.1684  0.1946
35223POPC   C1B68664   3.019  20.753  16.314  0.0241 -0.4448  0.1451
35223POPC   C2B68665   3.097  20.700  16.819 -0.1723 -0.1425  0.0213
35223POPC   C3B68666   3.219  20.584  17.251  0.2329 -0.0041 -0.0214
35223POPC   C4B68667   3.141  20.418  17.638  0.2233 -0.0937  0.0427
35224POPC   NC368668   9.284  30.594  15.941  0.0757 -0.0542 -0.2283
35224POPC   PO468669   9.399  30.943  16.083  0.1339 -0.4332 -0.1167
35224POPC   GL168670   9.284  31.267  16.410 -0.1381 -0.2627 -0.1496
35224POPC   GL268671   9.020  31.110  16.517 -0.0479 -0.1605 -0.1497
35224POPC   C1A68672   9.364  31.443  16.794  0.3751 -0.1002 -0.0812
35224POPC   D2A68673   9.512  31.306  17.240  0.0728  0.0493  0.1076
35224POPC   C3A68674   9.383  31.293  17.640 -0.3235  0.0865  0.2189
35224POPC   C4A68675   9.132  31.596  17.932 -0.1681 -0.3150 -0.1366
35224POPC   C1B68676   9.066  30.897  16.912  0.1376  0.1139 -0.2803
35224POPC   C2B68677   9.069  30.902  17.378  0.0142 -0.1225  0.0250
35224POPC   C3B68678   9.095  30.912  17.864 -0.2815  0.1868 -0.2540
35224POPC   C4B68679   8.883  31.182  18.125 -0.1023 -0.1383  0.2329
35225POPC   NC368680  14.459  22.624  14.093 -0.1266  0.0079 -0.1578
35225POPC   PO468681  14.632  22.350  14.318  0.4150 -0.2019  0.1406
35225POPC   GL168682  14.353  22.087  14.268 -0.1655 -0.1178 -0.4288
35225POPC   GL268683  14.173  22.261  14.514  0.0993  0.0289 -0.4456
35225POPC   C1A68684  14.184  22.134  13.817 -0.1544  0.1759  0.3241
35225POPC   D2A68685  13.804  22.323  13.673  0.0703 -0.1981 -0.1459
35225POPC   C3A68686  13.410  22.413  13.878  0.3084  0.1047  0.4735
35225POPC   C4A68687  13.043  22.564  13.685 -0.0929 -0.0015 -0.0905
35225POPC   C1B68688  13.720  22.143  14.720 -0.2616 -0.1823 -0.0519
35225POPC   C2B68689  13.461  21.795  14.782  0.1378  0.0099  0.0043
35225POPC   C3B68690  13.060  21.623  14.936  0.1416  0.1466  0.1999
35225POPC   C4B68691  12.729  21.639  15.216 -0.0928 -0.3218 -0.2712
35226POPC   NC368692   5.859  23.670  12.749  0.1565 -0.1263  0.2603
35226POPC   PO468693   5.797  23.295  12.728  0.1092 -0.1381 -0.1408
35226POPC   GL168694   5.928  23.355  12.326 -0.1033  0.0426 -0.3862
35226POPC   GL268695   6.179  23.410  12.402  0.1896  0.2646 -0.1512
35226POPC   C1A68696   6.185  23.265  11.925  0.2513 -0.1399 -0.0259
35226POPC   D2A68697   6.531  23.326  11.603 -0.4477 -0.2166 -0.0376
35226POPC   C3A68698   6.976  23.240  11.754 -0.1381 -0.1249  0.2304
35226POPC   C4A68699   7.336  23.165  12.009 -0.1136  0.3180 -0.1595
35226POPC   C1B68700   6.580  23.196  12.294 -0.2305  0.0344  0.1807
35226POPC   C2B68701   6.588  22.953  11.903  0.1604 -0.0344  0.0143
35226POPC   C3B68702   6.876  22.775  11.598 -0.0246  0.0193 -0.0226
35226POPC   C4B68703   7.142  22.529  11.345  0.2651 -0.2765  0.1463
35227POPC   NC368704  13.273  25.821  14.003  0.0613 -0.3361 -0.0391
35227POPC   PO468705  13.324  25.814  13.611 -0.2461 -0.0633  0.1892
35227POPC   GL168706  12.962  25.696  13.691  0.4005 -0.1440  0.1826
35227POPC   GL268707  12.899  25.490  13.884 -0.0261  0.0831  0.0998
35227POPC   C1A68708  12.860  25.356  13.395  0.2661  0.2086 -0.3905
35227POPC   D2A68709  13.015  24.998  13.289 -0.1306 -0.0045 -0.0951
35227POPC   C3A68710  12.697  24.719  13.088 -0.0540  0.0274  0.0616
35227POPC   C4A68711  12.432  24.480  12.784  0.0636  0.2545 -0.2441
35227POPC   C1B68712  12.861  25.029  13.845 -0.1261 -0.0396 -0.1568
35227POPC   C2B68713  12.634  24.654  13.909 -0.2005  0.2049  0.5286
35227POPC   C3B68714  12.350  24.260  13.992 -0.2884 -0.0253  0.1492
35227POPC   C4B68715  12.001  23.974  13.930  0.1651 -0.2429  0.2572
35228POPC   NC368716  15.306  25.791  15.999 -0.3187  0.3014 -0.1653
35228POPC   PO468717  15.657  25.979  16.018  0.0313 -0.1666  0.0687
35228POPC   GL168718  15.527  25.976  16.380  0.0788 -0.1646  0.1504
35228POPC   GL268719  15.586  25.725  16.499  0.1421 -0.2105  0.1072
35228POPC   C1A68720  15.228  26.000  16.735 -0.0933 -0.0042  0.1445
35228POPC   D2A68721  14.994  25.849  17.087  0.5719 -0.1974 -0.0014
35228POPC   C3A68722  15.182  25.842  17.526 -0.0353  0.3691  0.0425
35228POPC   C4A68723  15.619  25.885  17.594  0.1881  0.1527 -0.1035
35228POPC   C1B68724  15.157  25.502  16.589 -0.0976 -0.2875 -0.2131
35228POPC   C2B68725  14.893  25.276  16.919 -0.0172 -0.3287  0.2760
35228POPC   C3B68726  14.860  25.384  17.335 -0.3554 -0.3335 -0.0751
35228POPC   C4B68727  14.774  25.338  17.811  0.1187 -0.1046  0.0446
35229POPC   NC368728  10.805  30.477  16.509 -0.1867 -0.0864 -0.2064
35229POPC   PO468729  10.422  30.577  16.624  0.0975  0.0927 -0.3176
35229POPC   GL168730  10.391  30.682  17.027 -0.0588 -0.2464 -0.1884
35229POPC   GL268731  10.709  30.634  17.047 -0.2000  0.0639 -0.2554
35229POPC   C1A68732  10.455  30.679  17.490  0.0282  0.1024  0.0964
35229POPC   D2A68733  10.533  30.452  17.829 -0.0428  0.0859 -0.3354
35229POPC   C3A68734  10.794  30.140  18.126 -0.2928 -0.0903  0.0553
35229POPC   C4A68735  10.960  30.031  18.568  0.1471 -0.0953  0.1820
35229POPC   C1B68736  10.679  31.128  17.135  0.0634 -0.1181  0.5465
35229POPC   C2B68737  10.819  31.426  17.455  0.1962  0.2206  0.2120
35229POPC   C3B68738  10.492  31.689  17.650 -0.2181  0.2193  0.2007
35229POPC   C4B68739  10.132  31.938  17.684 -0.1232  0.1893  0.1093
35230POPC   NC368740  13.176  31.080  16.613  0.1488 -0.0653  0.1308
35230POPC   PO468741  13.393  31.427  16.636  0.0949  0.1551 -0.0139
35230POPC   GL168742  13.159  31.473  16.925 -0.0617  0.0504 -0.5457
35230POPC   GL268743  13.302  31.333  17.152 -0.0277  0.2444 -0.2013
35230POPC   C1A68744  12.859  31.582  17.262 -0.1213  0.0369 -0.1276
35230POPC   D2A68745  12.756  31.959  17.481  0.0281 -0.0839 -0.1037
35230POPC   C3A68746  12.952  32.304  17.796 -0.1615 -0.1405 -0.0627
35230POPC   C4A68747  12.958  32.318  18.258  0.0242 -0.0881  0.3043
35230POPC   C1B68748  13.268  31.227  17.562  0.1915  0.1999  0.0296
35230POPC   C2B68749  13.355  30.981  17.930  0.0201  0.2373  0.1884
35230POPC   C3B68750  13.330  30.591  18.175 -0.2039 -0.1317  0.1954
35230POPC   C4B68751  13.667  30.378  18.403  0.2441  0.3279 -0.2444
35231POPC   NC368752   1.818  28.574  16.349  0.2052  0.1269  0.0782
35231POPC   PO468753   1.467  28.561  16.525  0.2072 -0.0163 -0.3248
35231POPC   GL168754   1.378  28.565  16.848  0.4397 -0.3166  0.2100
35231POPC   GL268755   1.486  28.846  16.918  0.2176  0.0201 -0.2428
35231POPC   C1A68756   1.095  28.424  17.167 -0.3118 -0.1228 -0.0442
35231POPC   D2A68757   0.912  28.361  17.574  0.2130  0.0980 -0.3615
35231POPC   C3A68758   0.978  28.375  18.021  0.1883  0.1701  0.0721
35231POPC   C4A68759   1.206  28.384  18.469 -0.1948 -0.0889  0.3487
35231POPC   C1B68760   1.654  28.549  17.214 -0.1033 -0.0463  0.1109
35231POPC   C2B68761   1.461  28.393  17.590  0.0463 -0.0870  0.0116
35231POPC   C3B68762   1.456  28.437  18.053 -0.0880  0.3485  0.1349
35231POPC   C4B68763   1.688  28.687  18.294 -0.3219  0.1249  0.0122
35232POPC   NC368764   0.602  26.968  16.166 -0.4085  0.0407 -0.2171
35232POPC   PO468765   0.279  26.809  16.292  0.3611 -0.0957  0.0353
35232POPC   GL168766   0.339  26.842  16.616  0.7746  0.3014  0.4387
35232POPC   GL268767   0.511  26.681  16.795  0.0362 -0.2388 -0.1462
35232POPC   C1A68768   0.054  26.717  16.932  0.2848 -0.0467 -0.0967
35232POPC   D2A68769  -0.276  26.850  17.316 -0.1447 -0.0828  0.2351
35232POPC   C3A68770  -0.275  26.965  17.711  0.0004 -0.0962  0.0445
35232POPC   C4A68771  -0.328  27.297  18.023 -0.1298  0.0221  0.0902
35232POPC   C1B68772   0.371  26.969  17.176  0.2322 -0.3127 -0.0115
35232POPC   C2B68773   0.349  27.015  17.636  0.0598  0.0030 -0.2184
35232POPC   C3B68774   0.228  26.841  18.057  0.3443 -0.3945 -0.1933
35232POPC   C4B68775  -0.205  26.802  18.301 -0.3391 -0.3232 -0.2168
35233POPC   NC368776  14.737  26.491  16.234 -0.2409 -0.1408 -0.0140
35233POPC   PO468777  15.040  26.427  15.986 -0.0830 -0.1509  0.2991
35233POPC   GL168778  15.107  26.181  16.353  0.2360 -0.1607 -0.1177
35233POPC   GL268779  14.988  25.970  16.294  0.1453 -0.0594 -0.2447
35233POPC   C1A68780  14.805  26.254  16.718 -0.0494  0.0407  0.0828
35233POPC   D2A68781  14.627  26.176  17.129  0.1316  0.1516 -0.0992
35233POPC   C3A68782  14.724  25.931  17.557  0.2948  0.0749 -0.0842
35233POPC   C4A68783  14.896  25.904  17.959  0.1249  0.1505  0.0659
35233POPC   C1B68784  14.742  25.773  16.576 -0.0572 -0.2530 -0.0153
35233POPC   C2B68785  14.532  25.649  17.008  0.0807  0.0139  0.2237
35233POPC   C3B68786  14.355  25.461  17.380  0.1586  0.1146  0.1522
35233POPC   C4B68787  13.977  25.255  17.571 -0.4023  0.0745  0.0931
35234POPC   NC368788  12.083  30.372  16.440 -0.0716 -0.1078  0.0438
35234POPC   PO468789  11.790  30.575  16.414  0.0203  0.0608 -0.1412
35234POPC   GL168790  11.938  30.878  16.699  0.0606  0.0096  0.2039
35234POPC   GL268791  12.089  30.713  16.935 -0.0377 -0.3221  0.0933
35234POPC   C1A68792  11.875  31.151  17.099  0.0470  0.0068  0.0936
35234POPC   D2A68793  11.955  31.110  17.515  0.1614  0.1248 -0.0331
35234POPC   C3A68794  11.866  30.858  17.929  0.0743  0.2950 -0.2666
35234POPC   C4A68795  11.780  30.475  18.231  0.4449  0.4783 -0.1077
35234POPC   C1B68796  12.328  30.798  17.294  0.2410  0.0471  0.1569
35234POPC   C2B68797  12.340  30.943  17.792 -0.2575 -0.1031 -0.0258
35234POPC   C3B68798  12.248  31.146  18.166 -0.1375  0.2835  0.1497
35234POPC   C4B68799  12.274  31.233  18.655  0.0999  0.2685  0.4704
35235POPC   NC368800   2.561  17.397  15.931  0.2109 -0.0963  0.3214
35235POPC   PO468801   2.894  17.581  16.060 -0.0039  0.1472 -0.0050
35235POPC   GL168802   3.006  17.914  16.320 -0.1220 -0.0618  0.2033
35235POPC   GL268803   2.877  17.842  16.541  0.1392 -0.1363 -0.1665
35235POPC   C1A68804   3.276  18.081  16.647 -0.1409  0.3357 -0.2926
35235POPC   D2A68805   3.348  18.261  17.037 -0.0380 -0.4436 -0.1233
35235POPC   C3A68806   3.401  18.706  17.191  0.2059  0.1538  0.0869
35235POPC   C4A68807   3.306  18.971  17.566 -0.2565 -0.1083  0.0042
35235POPC   C1B68808   2.971  17.890  16.965  0.3334 -0.1897 -0.1326
35235POPC   C2B68809   2.795  17.621  17.204  0.0479 -0.3531  0.1410
35235POPC   C3B68810   2.724  17.585  17.679  0.1020  0.3599 -0.0240
35235POPC   C4B68811   2.655  17.513  18.151 -0.0777  0.1574 -0.1198
35236POPC   NC368812  10.037  27.238  11.448  0.1848  0.0332 -0.0763
35236POPC   PO468813   9.846  27.528  11.694 -0.1565  0.1342 -0.2378
35236POPC   GL168814   9.556  27.410  11.417  0.0018  0.1383 -0.2089
35236POPC   GL268815   9.560  27.533  11.140  0.1832 -0.1936 -0.2331
35236POPC   C1A68816   9.588  26.939  11.454 -0.2993  0.2430  0.1168
35236POPC   D2A68817   9.639  26.646  11.811 -0.2139 -0.0840  0.3454
35236POPC   C3A68818   9.633  26.246  11.584 -0.1898 -0.0891  0.0600
35236POPC   C4A68819   9.638  25.789  11.463  0.2602  0.0635  0.0172
35236POPC   C1B68820   9.747  27.170  11.015 -0.1399 -0.0676  0.2312
35236POPC   C2B68821   9.842  26.831  10.714 -0.1710  0.0500 -0.1649
35236POPC   C3B68822   9.862  26.488  10.297 -0.0494 -0.2494  0.3661
35236POPC   C4B68823   9.935  26.104  10.073  0.0552  0.0724  0.3080
35237POPC   NC368824  13.594  32.284  15.818  0.1079 -0.0650  0.1318
35237POPC   PO468825  13.507  32.129  16.212 -0.1138  0.0147  0.0658
35237POPC   GL168826  13.477  32.113  16.599 -0.5555  0.0113 -0.0542
35237POPC   GL268827  13.275  31.889  16.715 -0.0658 -0.0427 -0.1002
35237POPC   C1A68828  13.281  32.387  16.914  0.0442  0.3976  0.2119
35237POPC   D2A68829  13.266  32.418  17.360 -0.1164 -0.1519 -0.0057
35237POPC   C3A68830  13.155  32.754  17.611  0.5244 -0.0764  0.1215
35237POPC   C4A68831  13.155  33.049  17.929 -0.1847 -0.1093 -0.1858
35237POPC   C1B68832  13.263  31.936  17.186 -0.1365 -0.0595 -0.0672
35237POPC   C2B68833  13.170  31.787  17.612 -0.0673 -0.0327 -0.1800
35237POPC   C3B68834  13.123  31.547  18.025  0.1718  0.4946  0.2789
35237POPC   C4B68835  13.064  31.125  18.279 -0.1380 -0.2676 -0.2604
35238POPC   NC368836  15.213  27.108  15.950  0.1015 -0.0450 -0.0257
35238POPC   PO468837  14.904  27.003  16.242 -0.4791 -0.1328  0.2256
35238POPC   GL168838  14.872  27.023  16.607 -0.3624 -0.2261  0.2390
35238POPC   GL268839  14.727  26.813  16.712 -0.2771  0.1091 -0.0946
35238POPC   C1A68840  14.956  27.169  17.104 -0.0714  0.1697  0.2877
35238POPC   D2A68841  15.266  26.947  17.409  0.0509  0.0694 -0.0285
35238POPC   C3A68842  15.283  26.891  17.881 -0.2730 -0.2666 -0.1922
35238POPC   C4A68843  15.318  26.808  18.401 -0.1229 -0.2136 -0.0549
35238POPC   C1B68844  15.128  26.641  16.974  0.0635  0.0873 -0.4949
35238POPC   C2B68845  15.228  26.319  17.287 -0.0523 -0.0828  0.1719
35238POPC   C3B68846  15.212  26.370  17.758  0.3878 -0.3944  0.2621
35238POPC   C4B68847  15.091  26.377  18.215  0.0169 -0.1472 -0.0016
35239POPC   NC368848  16.234  19.307  14.925  0.0736  0.1160  0.4369
35239POPC   PO468849  15.891  19.456  15.074  0.0516  0.0658  0.3170
35239POPC   GL168850  15.861  19.585  15.516  0.1057  0.1973 -0.2470
35239POPC   GL268851  15.936  19.307  15.711 -0.3111  0.4043  0.0247
35239POPC   C1A68852  15.511  19.548  15.794 -0.2831  0.1221 -0.2503
35239POPC   D2A68853  15.316  19.323  16.134 -0.1124  0.1199 -0.1368
35239POPC   C3A68854  15.052  19.495  16.448 -0.0289  0.2180  0.1847
35239POPC   C4A68855  14.841  19.527  16.846  0.3797 -0.0801 -0.0084
35239POPC   C1B68856  15.859  19.478  16.152  0.1906 -0.0558 -0.1691
35239POPC   C2B68857  15.970  19.709  16.518  0.1775  0.2928 -0.2835
35239POPC   C3B68858  15.956  19.707  16.946  0.1799  0.3876  0.2128
35239POPC   C4B68859  16.091  19.888  17.362  0.3111 -0.0282 -0.0810
35240POPC   NC368860   4.574  17.842  15.496  0.1464  0.0696 -0.1812
35240POPC   PO468861   4.968  17.784  15.425 -0.3002 -0.1514 -0.0465
35240POPC   GL168862   5.000  18.170  15.742 -0.1621 -0.1751 -0.0752
35240POPC   GL268863   5.289  18.151  15.867  0.1312 -0.2593  0.0835
35240POPC   C1A68864   4.667  18.520  15.801  0.1344  0.1886 -0.1606
35240POPC   D2A68865   4.814  18.898  15.963 -0.0829  0.0691  0.2813
35240POPC   C3A68866   5.042  19.278  15.956  0.0481 -0.1649 -0.0764
35240POPC   C4A68867   5.276  19.573  16.240 -0.1744  0.0857  0.0741
35240POPC   C1B68868   5.421  18.185  16.325 -0.0404 -0.0539 -0.1938
35240POPC   C2B68869   5.673  18.220  16.688  0.1922  0.1199  0.1855
35240POPC   C3B68870   6.040  18.136  16.890  0.2885 -0.0319 -0.0014
35240POPC   C4B68871   6.406  18.190  17.176  0.1699 -0.0568  0.0905
35241POPC   NC368872   3.385  30.042  17.238  0.0341  0.0743  0.1245
35241POPC   PO468873   3.599  29.839  16.951  0.1092 -0.1234 -0.1765
35241POPC   GL168874   3.917  29.912  17.183 -0.0141  0.0013  0.4406
35241POPC   GL268875   3.955  30.168  17.259  0.1571  0.1254 -0.2789
35241POPC   C1A68876   4.106  29.841  17.595  0.0440 -0.0378  0.1599
35241POPC   D2A68877   4.110  29.764  18.041  0.1044  0.1434  0.1561
35241POPC   C3A68878   4.272  29.393  18.201  0.1158 -0.1657  0.1053
35241POPC   C4A68879   4.609  29.075  18.268  0.3351 -0.4237  0.0198
35241POPC   C1B68880   4.144  30.474  17.583 -0.0218 -0.0689 -0.2426
35241POPC   C2B68881   4.397  30.668  17.898 -0.0389  0.1311  0.0584
35241POPC   C3B68882   4.377  30.845  18.321 -0.0819 -0.0090 -0.0029
35241POPC   C4B68883   4.719  30.814  18.653  0.0819 -0.0097  0.2212
35242POPC   NC368884  13.467  30.047  16.190 -0.0958  0.0178 -0.3514
35242POPC   PO468885  13.337  30.390  16.372 -0.2332 -0.0664 -0.0042
35242POPC   GL168886  13.362  30.495  16.742  0.0427  0.3521  0.0831
35242POPC   GL268887  13.127  30.610  16.830  0.0125  0.2830  0.1727
35242POPC   C1A68888  13.591  30.359  17.139  0.3439 -0.1356  0.0621
35242POPC   D2A68889  13.714  30.051  17.470  0.0118 -0.0620  0.0902
35242POPC   C3A68890  13.908  29.991  17.917  0.1339  0.3100 -0.1651
35242POPC   C4A68891  13.710  29.842  18.303  0.1665  0.1468 -0.1631
35242POPC   C1B68892  13.193  30.669  17.256 -0.2351 -0.1505 -0.3282
35242POPC   C2B68893  13.092  30.585  17.684 -0.1027  0.1043  0.0184
35242POPC   C3B68894  12.845  30.748  18.030 -0.0449 -0.2040  0.0870
35242POPC   C4B68895  12.604  30.914  18.397 -0.1637 -0.0921 -0.1351
35243POPC   NC368896   9.193  28.527  10.299  0.0789 -0.1849 -0.0081
35243POPC   PO468897   8.881  28.453  10.471  0.0985  0.2117  0.0040
35243POPC   GL168898   8.964  28.229  10.081 -0.4537  0.0727 -0.1536
35243POPC   GL268899   9.216  28.057  10.100 -0.1806  0.1534  0.0705
35243POPC   C1A68900   8.923  28.047   9.674  0.1276  0.0669  0.0432
35243POPC   D2A68901   8.972  27.838   9.279  0.0318 -0.2477 -0.3879
35243POPC   C3A68902   8.912  27.528   9.007  0.1352 -0.0454 -0.5340
35243POPC   C4A68903   8.882  27.299   8.624 -0.0103 -0.0950 -0.0666
35243POPC   C1B68904   9.073  27.633  10.066  0.0874  0.1268 -0.0729
35243POPC   C2B68905   9.215  27.233   9.857  0.0190 -0.3439  0.0098
35243POPC   C3B68906   9.257  26.808   9.947 -0.1714  0.2702 -0.1418
35243POPC   C4B68907   9.603  26.535   9.778 -0.0618  0.1228  0.1019
35244POPC   NC368908   6.055  18.135  14.311  0.1430 -0.0622  0.1011
35244POPC   PO468909   5.816  18.289  14.617 -0.0863  0.2205 -0.1021
35244POPC   GL168910   5.940  18.358  14.904  0.4517  0.1132 -0.0707
35244POPC   GL268911   5.838  18.471  15.160 -0.0961  0.3848  0.1973
35244POPC   C1A68912   6.400  18.421  15.084  0.0180  0.1979 -0.1686
35244POPC   D2A68913   6.848  18.534  15.206  0.0175 -0.4560  0.1867
35244POPC   C3A68914   7.015  18.545  15.649  0.1765 -0.0810 -0.1899
35244POPC   C4A68915   7.306  18.762  15.933 -0.0757  0.2821 -0.0644
35244POPC   C1B68916   6.177  18.552  15.462 -0.4078  0.0597 -0.1115
35244POPC   C2B68917   6.414  18.784  15.781 -0.1085 -0.1256  0.1069
35244POPC   C3B68918   6.843  18.844  16.035  0.0341 -0.2070 -0.1726
35244POPC   C4B68919   7.131  18.933  16.363 -0.1902  0.0827  0.0667
35245POPC   NC368920   2.082  20.940  15.229  0.0601 -0.1381 -0.2210
35245POPC   PO468921   2.234  21.232  15.490 -0.0026 -0.0608  0.2115
35245POPC   GL168922   2.393  21.199  15.850  0.0201 -0.1413  0.1367
35245POPC   GL268923   2.128  21.220  16.046 -0.1786  0.3052  0.3504
35245POPC   C1A68924   2.629  21.366  16.279  0.0426 -0.1023  0.2633
35245POPC   D2A68925   2.809  21.493  16.638  0.1500 -0.1709 -0.2846
35245POPC   C3A68926   2.671  21.448  17.062 -0.0464  0.1553  0.0904
35245POPC   C4A68927   2.495  21.737  17.331  0.2439  0.1511 -0.0868
35245POPC   C1B68928   2.394  20.967  16.356  0.1252  0.0731 -0.3188
35245POPC   C2B68929   2.715  21.007  16.645  0.0794  0.1320  0.0629
35245POPC   C3B68930   2.741  20.810  17.091 -0.2665 -0.1864 -0.2056
35245POPC   C4B68931   2.640  20.798  17.551 -0.3782 -0.1850  0.1532
35246POPC   NC368932   2.692  25.752   9.168 -0.1986 -0.1461  0.1404
35246POPC   PO468933   3.059  25.783   8.998  0.0830 -0.0479 -0.4358
35246POPC   GL168934   3.283  25.920   8.662  0.0487  0.3140  0.0523
35246POPC   GL268935   3.573  25.936   8.830  0.1706  0.3316  0.4495
35246POPC   C1A68936   3.363  25.729   8.278  0.0447  0.2415 -0.2000
35246POPC   D2A68937   3.431  25.440   7.893  0.1601 -0.0656  0.0047
35246POPC   C3A68938   3.882  25.415   7.655 -0.0203  0.2164  0.2972
35246POPC   C4A68939   4.073  25.058   7.466 -0.1614  0.0505 -0.1640
35246POPC   C1B68940   3.782  25.678   8.475  0.3332  0.0871 -0.1590
35246POPC   C2B68941   4.000  25.404   8.204 -0.1132 -0.2240 -0.1594
35246POPC   C3B68942   4.330  25.258   7.870 -0.0559 -0.1669 -0.1093
35246POPC   C4B68943   4.745  25.152   7.710 -0.1560  0.2150  0.0412
35247POPC   NC368944  14.140  23.958  15.147  0.2066 -0.1182  0.1120
35247POPC   PO468945  14.439  23.721  15.293  0.2287  0.3097 -0.1025
35247POPC   GL168946  14.229  23.663  15.625  0.0286 -0.0419 -0.0362
35247POPC   GL268947  13.998  23.577  15.588 -0.0665 -0.1912  0.2281
35247POPC   C1A68948  14.072  23.794  16.062 -0.1152 -0.1704  0.1570
35247POPC   D2A68949  13.956  23.775  16.469 -0.0687 -0.3340 -0.3529
35247POPC   C3A68950  13.590  24.090  16.553  0.1889  0.2739 -0.4042
35247POPC   C4A68951  13.197  24.298  16.603  0.1573  0.2289 -0.3426
35247POPC   C1B68952  13.972  23.179  15.680  0.2370 -0.3013 -0.1258
35247POPC   C2B68953  14.246  22.832  15.917 -0.0875 -0.1826 -0.1552
35247POPC   C3B68954  14.390  22.524  16.193  0.0290  0.0671 -0.2179
35247POPC   C4B68955  14.283  22.122  16.431  0.1032 -0.0556 -0.0643
35248POPC   NC368956  11.079  27.279  11.230  0.1219  0.0885  0.2055
35248POPC   PO468957  11.101  27.490  10.921 -0.0778  0.1427  0.1263
35248POPC   GL168958  10.901  27.286  10.723  0.4943  0.0087 -0.2098
35248POPC   GL268959  10.996  27.089  10.576 -0.1100 -0.0500 -0.2022
35248POPC   C1A68960  10.716  26.937  10.983  0.1650  0.0531  0.1892
35248POPC   D2A68961  10.716  26.493  10.858 -0.3627 -0.3642  0.3147
35248POPC   C3A68962  10.528  26.140  10.877  0.0584  0.2522 -0.1049
35248POPC   C4A68963  10.525  25.669  10.875  0.0683 -0.0058 -0.4461
35248POPC   C1B68964  10.930  26.811  10.229 -0.1860 -0.1361  0.0403
35248POPC   C2B68965  10.800  26.457   9.958 -0.1533  0.1608  0.1586
35248POPC   C3B68966  10.530  26.157   9.763  0.0318 -0.0070 -0.1601
35248POPC   C4B68967  10.562  25.759   9.475 -0.4557  0.0119  0.2043
35249POPC   NC368968   0.851  30.054  16.376 -0.1907  0.1410 -0.1816
35249POPC   PO468969   0.526  29.971  16.568  0.0091 -0.0931  0.0186
35249POPC   GL168970   0.759  30.151  16.873  0.1417 -0.1349  0.0888
35249POPC   GL268971   0.868  29.846  16.892 -0.1871  0.1318  0.4228
35249POPC   C1A68972   1.096  30.213  17.276  0.1000 -0.2014  0.1267
35249POPC   D2A68973   1.332  30.473  17.542  0.1292 -0.1519  0.1811
35249POPC   C3A68974   1.280  30.391  18.038  0.1871  0.0494  0.2044
35249POPC   C4A68975   1.416  30.339  18.479 -0.2014  0.5368  0.1014
35249POPC   C1B68976   0.554  29.905  17.286  0.0092  0.0241  0.1647
35249POPC   C2B68977   0.363  29.971  17.721 -0.1480 -0.1017 -0.0260
35249POPC   C3B68978   0.180  29.811  18.100  0.1577 -0.1150 -0.0456
35249POPC   C4B68979   0.083  29.596  18.497  0.1840 -0.0946 -0.0979
35250POPC   NC368980   9.727  28.610  15.409  0.1256 -0.3313  0.1056
35250POPC   PO468981   9.602  28.646  15.765 -0.0530 -0.0282 -0.0707
35250POPC   GL168982   9.577  28.650  16.146  0.1246  0.1894  0.4445
35250POPC   GL268983   9.473  28.472  16.220  0.2319 -0.0981  0.0705
35250POPC   C1A68984   9.758  28.875  16.478 -0.2680 -0.0475 -0.1505
35250POPC   D2A68985   9.937  28.963  16.870  0.4337 -0.0821 -0.0796
35250POPC   C3A68986   9.991  28.620  17.201  0.0171  0.2245 -0.2596
35250POPC   C4A68987   9.851  28.465  17.613  0.0729 -0.0176  0.0515
35250POPC   C1B68988   9.426  28.540  16.629 -0.2450  0.0611 -0.0094
35250POPC   C2B68989   9.469  28.738  17.062 -0.0373  0.2730 -0.0728
35250POPC   C3B68990   9.395  28.818  17.471 -0.0076  0.0195 -0.0402
35250POPC   C4B68991   9.416  28.672  17.911 -0.0529  0.3061 -0.0710
35251POPC   NC368992  14.051  28.476  16.695 -0.1324  0.0132 -0.2486
35251POPC   PO468993  13.831  28.849  16.653 -0.1128 -0.2642 -0.0384
35251POPC   GL168994  13.942  28.846  17.045 -0.3665  0.0119 -0.0401
35251POPC   GL268995  13.800  29.062  17.169 -0.0338 -0.2106 -0.1839
35251POPC   C1A68996  13.709  28.630  17.391  0.0109  0.1725 -0.1022
35251POPC   D2A68997  13.241  28.600  17.438 -0.0781 -0.0825  0.0525
35251POPC   C3A68998  13.060  28.732  17.839 -0.2192 -0.0815  0.2945
35251POPC   C4A68999  13.036  28.802  18.300  0.1956  0.0917  0.2548
35251POPC   C1B69000  14.110  28.871  17.474 -0.4272 -0.0646 -0.0550
35251POPC   C2B69001  14.081  28.561  17.703 -0.0562 -0.1542 -0.4819
35251POPC   C3B69002  14.365  28.229  17.762 -0.2391 -0.2781  0.1204
35251POPC   C4B69003  14.404  27.851  17.996  0.0807  0.1365  0.0206
35252POPC   NC369004   1.272  31.362  16.726 -0.1793  0.2817 -0.1842
35252POPC   PO469005   0.913  31.528  16.669  0.2985 -0.0675 -0.0404
35252POPC   GL169006   0.914  31.600  17.096 -0.0689  0.1221 -0.1344
35252POPC   GL269007   1.043  31.384  17.277  0.1105  0.0095 -0.2618
35252POPC   C1A69008   0.888  31.798  17.531  0.0747  0.1390 -0.0393
35252POPC   D2A69009   0.666  31.673  17.917  0.0026 -0.0125  0.0118
35252POPC   C3A69010   0.549  32.003  18.177  0.3398  0.2327 -0.0283
35252POPC   C4A69011   0.307  32.263  18.465  0.1952  0.0544 -0.2229
35252POPC   C1B69012   1.171  31.448  17.781  0.2194  0.1616 -0.3620
35252POPC   C2B69013   1.578  31.333  17.983 -0.0625  0.0221  0.0054
35252POPC   C3B69014   1.823  31.622  18.233 -0.2654 -0.0725 -0.2942
35252POPC   C4B69015   2.144  31.875  18.439  0.0045  0.1170 -0.4546
35253POPC   NC369016  13.601  16.385  15.508  0.0574  0.0241 -0.2302
35253POPC   PO469017  13.445  16.065  15.396 -0.0015  0.1274  0.2338
35253POPC   GL169018  13.183  16.248  15.659 -0.3584 -0.2392 -0.0724
35253POPC   GL269019  13.079  16.455  15.543 -0.1018  0.1627  0.1739
35253POPC   C1A69020  13.326  16.255  16.109 -0.2368 -0.1903  0.1220
35253POPC   D2A69021  13.637  16.155  16.478 -0.1089  0.1242  0.0740
35253POPC   C3A69022  13.437  16.274  16.910 -0.0130 -0.1336 -0.0029
35253POPC   C4A69023  13.173  16.412  17.286  0.2720  0.1151 -0.1764
35253POPC   C1B69024  13.046  16.774  15.895  0.0210  0.0711  0.0803
35253POPC   C2B69025  12.823  17.066  16.192 -0.0523 -0.2279 -0.0985
35253POPC   C3B69026  12.445  17.334  16.294 -0.0762 -0.0774 -0.0293
35253POPC   C4B69027  12.291  17.528  16.687  0.2915 -0.1053  0.1786
35254POPC   NC369028   9.172  27.221  12.936  0.0575  0.1511  0.1536
35254POPC   PO469029   9.197  26.820  13.068  0.0483 -0.1045  0.2872
35254POPC   GL169030   9.281  26.468  12.996 -0.0239 -0.1333 -0.0661
35254POPC   GL269031   9.292  26.300  13.171 -0.0163  0.3404 -0.3349
35254POPC   C1A69032   8.988  26.236  12.733 -0.0201 -0.1314  0.1847
35254POPC   D2A69033   8.647  26.017  12.621  0.3511 -0.0031 -0.2583
35254POPC   C3A69034   8.861  26.176  12.273  0.1457  0.1259  0.1023
35254POPC   C4A69035   9.182  26.196  11.908 -0.0316 -0.0619 -0.1517
35254POPC   C1B69036   9.443  25.930  12.882  0.0377  0.2405 -0.1039
35254POPC   C2B69037   9.382  25.478  12.847 -0.0388 -0.2008 -0.2171
35254POPC   C3B69038   9.483  24.981  12.943  0.4472 -0.1791  0.2185
35254POPC   C4B69039   9.578  24.562  12.867  0.1449  0.0464 -0.0374
35255POPC   NC369040   1.220  25.530  16.157 -0.0932  0.1171 -0.1212
35255POPC   PO469041   1.451  25.193  16.140 -0.0040 -0.0619  0.1045
35255POPC   GL169042   1.478  25.023  16.477  0.0799 -0.2752 -0.2102
35255POPC   GL269043   1.262  25.154  16.634 -0.2132 -0.1340 -0.2088
35255POPC   C1A69044   1.748  24.810  16.789  0.0943 -0.2500  0.2674
35255POPC   D2A69045   1.878  24.786  17.173  0.0855 -0.5110 -0.0724
35255POPC   C3A69046   2.145  24.762  17.599 -0.1399 -0.1762 -0.4218
35255POPC   C4A69047   2.437  24.711  17.990 -0.0274 -0.1331 -0.1916
35255POPC   C1B69048   0.964  25.144  17.013  0.1277  0.2154  0.2652
35255POPC   C2B69049   0.761  24.900  17.336  0.3255  0.0636 -0.3094
35255POPC   C3B69050   0.635  24.609  17.694  0.3318 -0.0202  0.0599
35255POPC   C4B69051   0.533  24.333  18.054  0.1404  0.2176 -0.1074
35256POPC   NC369052   7.631  27.180  10.679 -0.0694  0.2511 -0.3138
35256POPC   PO469053   7.647  27.039  11.037 -0.3491  0.2717  0.0254
35256POPC   GL169054   7.900  26.768  10.929  0.0370 -0.1983 -0.0841
35256POPC   GL269055   8.070  26.734  10.587  0.3699 -0.0313 -0.1689
35256POPC   C1A69056   8.015  26.340  11.008 -0.2470  0.2333  0.1068
35256POPC   D2A69057   8.209  25.961  10.884  0.0277  0.0459  0.0744
35256POPC   C3A69058   8.406  25.778  10.569  0.3186 -0.0164 -0.0564
35256POPC   C4A69059   8.546  25.379  10.421  0.1114  0.0999  0.3175
35256POPC   C1B69060   8.370  26.310  10.537  0.1622 -0.2569 -0.3205
35256POPC   C2B69061   8.679  26.110  10.287 -0.0165  0.2661 -0.0808
35256POPC   C3B69062   8.971  25.826  10.082 -0.2447  0.2988  0.0819
35256POPC   C4B69063   9.024  25.670   9.615 -0.1470  0.2176 -0.2273
35257POPC   NC369064  15.437  16.663  15.680  0.1182  0.0215  0.0621
35257POPC   PO469065  15.820  16.586  15.793 -0.0701 -0.1308 -0.0984
35257POPC   GL169066  15.809  16.410  16.150 -0.4467  0.1538  0.1977
35257POPC   GL269067  15.658  16.229  16.255 -0.0017 -0.2819  0.0084
35257POPC   C1A69068  15.871  16.551  16.576  0.0172  0.0051  0.0852
35257POPC   D2A69069  15.984  16.678  16.986 -0.0327  0.0284  0.1347
35257POPC   C3A69070  15.677  16.672  17.359 -0.2411 -0.2352  0.1042
35257POPC   C4A69071  15.496  16.844  17.786 -0.0212 -0.2454  0.1130
35257POPC   C1B69072  15.395  16.143  16.618  0.0356 -0.0465 -0.3758
35257POPC   C2B69073  14.960  16.069  16.836 -0.3540 -0.1669 -0.1239
35257POPC   C3B69074  14.690  16.257  17.187  0.1474 -0.0246 -0.2546
35257POPC   C4B69075  14.373  16.095  17.465  0.0287  0.1964  0.1266
35258POPC   NC369076   3.787  21.803  15.234 -0.0821  0.0970  0.4445
35258POPC   PO469077   4.142  21.713  15.018 -0.3194  0.0737  0.0433
35258POPC   GL169078   4.175  21.576  15.355 -0.1885  0.0862  0.4910
35258POPC   GL269079   4.365  21.305  15.419  0.1222  0.3285  0.1022
35258POPC   C1A69080   4.379  21.883  15.626  0.0058 -0.3164  0.0379
35258POPC   D2A69081   4.498  21.854  16.085  0.1067 -0.1822 -0.1145
35258POPC   C3A69082   4.831  21.800  16.396 -0.2297  0.0482 -0.0078
35258POPC   C4A69083   4.824  21.635  16.779 -0.3257  0.0844 -0.5611
35258POPC   C1B69084   4.562  21.445  15.764 -0.2997  0.1815 -0.1616
35258POPC   C2B69085   5.002  21.458  15.880  0.4035  0.3224 -0.3570
35258POPC   C3B69086   5.442  21.500  16.032  0.0089 -0.1223 -0.0730
35258POPC   C4B69087   5.683  21.287  16.357  0.1343  0.0047 -0.1106
35259POPC   NC369088  12.964  17.788  13.897  0.2042  0.1348 -0.1005
35259POPC   PO469089  13.049  18.132  14.124  0.0058  0.1894  0.1769
35259POPC   GL169090  13.081  18.157  14.542  0.1925  0.2262  0.1639
35259POPC   GL269091  13.020  17.972  14.703  0.3102  0.0142 -0.0901
35259POPC   C1A69092  13.022  18.415  14.912 -0.0680  0.1662 -0.0311
35259POPC   D2A69093  12.910  18.769  15.207  0.2609 -0.3130  0.0659
35259POPC   C3A69094  12.500  19.038  15.171  0.2223 -0.1217 -0.0510
35259POPC   C4A69095  12.179  19.374  15.181  0.0374 -0.1724  0.3217
35259POPC   C1B69096  12.566  18.081  14.793  0.0596  0.1211  0.1613
35259POPC   C2B69097  12.266  18.423  14.760 -0.0319  0.1547 -0.1843
35259POPC   C3B69098  11.874  18.284  14.989  0.0701 -0.0708  0.1254
35259POPC   C4B69099  11.562  18.161  15.275  0.2487 -0.1797 -0.1405
35260POPC   NC369100   8.885  31.978  15.762 -0.3019  0.1518 -0.1110
35260POPC   PO469101   9.133  31.714  15.724 -0.2064 -0.0084 -0.0050
35260POPC   GL169102   9.045  31.697  16.126 -0.1521  0.0956 -0.0819
35260POPC   GL269103   8.715  31.648  16.071  0.1485  0.1511  0.0119
35260POPC   C1A69104   9.007  32.069  16.328  0.3547  0.1879 -0.2683
35260POPC   D2A69105   8.765  32.489  16.408 -0.2343  0.0528 -0.1947
35260POPC   C3A69106   8.832  32.772  16.734 -0.0528 -0.0340 -0.1292
35260POPC   C4A69107   8.777  33.130  17.025  0.0402 -0.0478  0.0076
35260POPC   C1B69108   8.902  31.595  16.544  0.0216  0.0239 -0.2647
35260POPC   C2B69109   8.975  31.865  16.904 -0.0819  0.0438  0.3232
35260POPC   C3B69110   8.889  31.959  17.381  0.0998 -0.1470  0.1004
35260POPC   C4B69111   8.837  32.010  17.830 -0.1543 -0.0431  0.4249
35261POPC   NC369112   6.040  24.795  14.219 -0.0389  0.0195  0.0439
35261POPC   PO469113   5.974  25.149  14.281  0.0609  0.0738 -0.0572
35261POPC   GL169114   6.399  24.958  14.434 -0.0057  0.1378  0.0101
35261POPC   GL269115   6.463  25.051  14.738  0.0298  0.1461  0.0315
35261POPC   C1A69116   6.708  24.629  14.600  0.0741  0.1744  0.1480
35261POPC   D2A69117   7.013  24.294  14.531  0.0348  0.1471 -0.1198
35261POPC   C3A69118   7.470  24.240  14.397  0.1720 -0.4361  0.1413
35261POPC   C4A69119   7.924  24.345  14.363  0.2197  0.1849 -0.0093
35261POPC   C1B69120   6.463  24.817  15.079 -0.3329 -0.0610  0.0015
35261POPC   C2B69121   6.752  24.425  15.143  0.0328 -0.0873  0.0404
35261POPC   C3B69122   6.989  24.033  15.345 -0.2640  0.0468 -0.2427
35261POPC   C4B69123   7.243  23.682  15.492  0.3252 -0.0609  0.1999
35262POPC   NC369124   5.055  31.079  16.477 -0.0371 -0.0705 -0.1380
35262POPC   PO469125   5.399  30.893  16.536  0.2256  0.0170  0.1504
35262POPC   GL169126   5.613  31.111  16.839  0.3118  0.0951  0.3931
35262POPC   GL269127   5.424  31.320  16.803 -0.3751 -0.1191 -0.1261
35262POPC   C1A69128   5.928  31.407  17.048  0.2039  0.3873  0.1205
35262POPC   D2A69129   6.089  31.693  17.464  0.4839  0.1332  0.1276
35262POPC   C3A69130   5.881  31.656  17.890  0.1574  0.0005  0.1374
35262POPC   C4A69131   5.878  31.710  18.382 -0.0803  0.0453  0.1039
35262POPC   C1B69132   5.406  31.344  17.251 -0.0288 -0.2272 -0.0671
35262POPC   C2B69133   5.459  31.350  17.720 -0.0375  0.0646  0.0075
35262POPC   C3B69134   5.284  31.218  18.150  0.2773 -0.0129 -0.0834
35262POPC   C4B69135   5.228  30.876  18.491  0.2707  0.2909  0.0696
35263POPC   NC369136  14.352  25.134  14.747  0.2755  0.2287 -0.2724
35263POPC   PO469137  14.443  25.083  15.125  0.0292  0.2685 -0.1025
35263POPC   GL169138  14.199  24.856  15.335 -0.0385  0.0039 -0.2202
35263POPC   GL269139  14.166  24.845  15.606 -0.0132 -0.3814  0.1840
35263POPC   C1A69140  14.035  24.455  15.313  0.3789  0.0495  0.0383
35263POPC   D2A69141  13.616  24.244  15.381  0.1208 -0.1348  0.0084
35263POPC   C3A69142  13.316  24.218  15.720  0.2392 -0.1690 -0.2407
35263POPC   C4A69143  13.248  24.478  16.136 -0.2991 -0.3438 -0.0928
35263POPC   C1B69144  13.749  24.533  15.772  0.1200  0.1538  0.0606
35263POPC   C2B69145  13.699  24.174  16.053  0.3164 -0.1377 -0.4662
35263POPC   C3B69146  13.506  23.782  16.204  0.1078  0.2130  0.1884
35263POPC   C4B69147  13.589  23.337  16.051 -0.0688  0.0311 -0.2971
35264POPC   NC369148   6.850  25.332  11.823  0.1289  0.3495  0.2404
35264POPC   PO469149   6.905  25.699  11.745  0.0301 -0.0543  0.1569
35264POPC   GL169150   7.234  25.593  11.604  0.3928 -0.1159  0.1284
35264POPC   GL269151   7.510  25.700  11.511 -0.1106 -0.0174  0.0601
35264POPC   C1A69152   7.450  25.201  11.590 -0.1348 -0.0010  0.0169
35264POPC   D2A69153   7.817  24.934  11.436 -0.2552  0.0644  0.1924
35264POPC   C3A69154   7.727  24.700  11.055 -0.3638  0.2204 -0.0146
35264POPC   C4A69155   8.060  24.665  10.755 -0.3708  0.1917 -0.0381
35264POPC   C1B69156   7.672  25.459  11.159 -0.2550  0.0996 -0.0519
35264POPC   C2B69157   7.971  25.122  10.961 -0.0701 -0.0950 -0.0374
35264POPC   C3B69158   8.398  24.988  10.741  0.0633  0.2861  0.0271
35264POPC   C4B69159   8.506  24.867  10.311  0.1920 -0.0185 -0.0672
35265POPC   NC369160   5.564  21.944  12.393 -0.1741 -0.3545  0.2895
35265POPC   PO469161   5.301  22.189  12.335  0.0469 -0.0181  0.1011
35265POPC   GL169162   5.732  22.330  12.226  0.1464  0.1630  0.3296
35265POPC   GL269163   5.626  22.468  11.946  0.3911 -0.1836 -0.2153
35265POPC   C1A69164   6.161  22.130  12.205 -0.2180 -0.3386 -0.0328
35265POPC   D2A69165   6.412  21.840  12.403 -0.1499 -0.1036  0.3441
35265POPC   C3A69166   6.783  21.879  12.642 -0.0572  0.0494  0.0720
35265POPC   C4A69167   7.262  21.755  12.642  0.1130 -0.3804 -0.0514
35265POPC   C1B69168   5.835  22.522  11.543 -0.0180 -0.0205 -0.1289
35265POPC   C2B69169   6.049  22.498  11.114 -0.2464 -0.3466  0.1812
35265POPC   C3B69170   6.273  22.451  10.726 -0.1750  0.5309 -0.1609
35265POPC   C4B69171   6.619  22.482  10.488  0.2469  0.0562  0.1046
35266POPC   NC369172   6.244  30.842  16.262 -0.1917  0.1674 -0.1846
35266POPC   PO469173   5.867  30.903  16.199 -0.2450 -0.1846  0.1933
35266POPC   GL169174   6.072  31.142  16.553 -0.4238 -0.2143 -0.3111
35266POPC   GL269175   6.263  31.368  16.412 -0.1159  0.0027  0.0240
35266POPC   C1A69176   6.355  31.200  16.953 -0.0434 -0.1911  0.0061
35266POPC   D2A69177   6.497  31.357  17.371 -0.0995  0.3721  0.0854
35266POPC   C3A69178   6.778  31.044  17.618 -0.0722 -0.0489 -0.1312
35266POPC   C4A69179   7.021  31.002  17.980 -0.0454 -0.4904 -0.1398
35266POPC   C1B69180   6.325  31.670  16.788 -0.0314 -0.1458  0.2773
35266POPC   C2B69181   6.416  31.871  17.178  0.1514 -0.1776 -0.1085
35266POPC   C3B69182   6.575  31.878  17.659  0.1033 -0.1908  0.0708
35266POPC   C4B69183   6.930  31.909  17.987 -0.1660  0.1322  0.0762
35267POPC   NC369184  11.739  15.918  14.618 -0.0467  0.0202  0.1156
35267POPC   PO469185  11.866  16.078  14.970  0.1083 -0.2060  0.3390
35267POPC   GL169186  11.570  16.370  15.129 -0.2163  0.2502  0.0337
35267POPC   GL269187  11.787  16.464  15.194 -0.2243 -0.1365 -0.2245
35267POPC   C1A69188  11.286  16.716  15.008  0.0188 -0.2278 -0.1110
35267POPC   D2A69189  10.966  16.983  14.841 -0.0563  0.2865 -0.1760
35267POPC   C3A69190  10.771  17.302  15.124 -0.0615  0.0507  0.0074
35267POPC   C4A69191  10.656  17.703  15.360  0.1586 -0.1050  0.1590
35267POPC   C1B69192  11.700  16.781  15.504  0.2869 -0.0031  0.0685
35267POPC   C2B69193  11.654  17.207  15.718  0.2814 -0.2288 -0.3141
35267POPC   C3B69194  11.799  17.543  16.010  0.0403 -0.0773  0.4340
35267POPC   C4B69195  11.876  17.975  16.045  0.0324  0.2671 -0.1187
35268POPC   NC369196  16.208  16.159  16.152 -0.0954 -0.4221  0.2448
35268POPC   PO469197  16.534  16.406  16.217  0.0774  0.2125 -0.0446
35268POPC   GL169198  16.482  16.674  16.469  0.0015 -0.1028  0.2511
35268POPC   GL269199  16.546  16.967  16.384  0.1057 -0.0608  0.1767
35268POPC   C1A69200  16.476  16.819  16.916 -0.0917  0.1551  0.1977
35268POPC   D2A69201  16.539  17.059  17.287  0.1279 -0.1079 -0.1356
35268POPC   C3A69202  16.404  16.870  17.698  0.1190 -0.2836 -0.0916
35268POPC   C4A69203  15.984  16.699  17.854  0.1858 -0.1580  0.2230
35268POPC   C1B69204  16.568  17.301  16.694 -0.1469 -0.1561 -0.1570
35268POPC   C2B69205  16.631  17.514  17.082  0.1974  0.0986 -0.2097
35268POPC   C3B69206  16.633  17.739  17.458  0.0343  0.2485  0.0876
35268POPC   C4B69207  16.719  17.969  17.850  0.0255 -0.0949 -0.0199
35269POPC   NC369208   5.661  20.282  13.137 -0.3057 -0.2392  0.0178
35269POPC   PO469209   5.651  20.702  13.149 -0.1189 -0.1938 -0.1869
35269POPC   GL169210   5.976  20.679  13.209 -0.3757 -0.0834 -0.2960
35269POPC   GL269211   6.089  20.764  12.892  0.0551 -0.3525 -0.4041
35269POPC   C1A69212   6.121  20.749  13.651 -0.1520 -0.0199 -0.1273
35269POPC   D2A69213   6.498  20.721  13.940  0.2476 -0.3127 -0.0325
35269POPC   C3A69214   6.914  20.660  14.194  0.0024 -0.1432 -0.0621
35269POPC   C4A69215   7.177  20.421  14.512  0.2304 -0.0473  0.0569
35269POPC   C1B69216   6.467  20.737  13.123 -0.3486 -0.2606  0.1096
35269POPC   C2B69217   6.925  20.594  13.116 -0.1057 -0.0220 -0.2056
35269POPC   C3B69218   7.376  20.775  13.251 -0.0728 -0.1125 -0.0818
35269POPC   C4B69219   7.723  21.102  13.370  0.0950  0.0581  0.1283
35270POPC   NC369220  10.547  29.693  16.414  0.1101  0.3655  0.0953
35270POPC   PO469221  10.243  29.514  16.298  0.0137 -0.2911 -0.1709
35270POPC   GL169222  10.169  29.410  16.650 -0.0289  0.0823 -0.1806
35270POPC   GL269223   9.890  29.395  16.574  0.1970 -0.2460 -0.0449
35270POPC   C1A69224  10.043  29.602  17.038  0.0606 -0.0386 -0.0566
35270POPC   D2A69225  10.245  29.709  17.437  0.1337 -0.1210 -0.1316
35270POPC   C3A69226  10.332  29.357  17.665 -0.1115 -0.2787 -0.0141
35270POPC   C4A69227  10.346  29.079  18.046 -0.0018 -0.1905 -0.4782
35270POPC   C1B69228   9.575  29.621  16.865  0.1297  0.1978 -0.1769
35270POPC   C2B69229   9.487  29.795  17.263 -0.0853  0.0389  0.1510
35270POPC   C3B69230   9.253  29.736  17.706 -0.1911 -0.1783 -0.0101
35270POPC   C4B69231   8.897  29.609  17.986 -0.0798 -0.0212  0.1352
35271POPC   NC369232   5.977  17.217  14.419  0.1548  0.0174  0.0242
35271POPC   PO469233   6.337  17.355  14.563  0.0924  0.1431 -0.3267
35271POPC   GL169234   6.495  17.486  14.906  0.2892  0.0902 -0.1613
35271POPC   GL269235   6.647  17.348  15.127  0.0339 -0.0652 -0.1556
35271POPC   C1A69236   6.515  17.896  15.146 -0.2610  0.0969 -0.1906
35271POPC   D2A69237   6.763  18.132  15.504  0.2082  0.0888 -0.1126
35271POPC   C3A69238   6.653  18.344  15.923 -0.0828  0.0950  0.0550
35271POPC   C4A69239   6.859  18.462  16.307  0.1068  0.0154  0.1864
35271POPC   C1B69240   6.870  17.643  15.396  0.1831  0.3291  0.2056
35271POPC   C2B69241   7.167  17.913  15.659 -0.0419  0.0331 -0.2132
35271POPC   C3B69242   7.190  18.202  16.018 -0.2959  0.1087 -0.1540
35271POPC   C4B69243   7.376  18.516  16.323 -0.0836  0.2002 -0.3548
35272POPC   NC369244   3.628  26.714  16.177  0.3276  0.3027  0.2719
35272POPC   PO469245   3.265  26.640  16.247  0.1705 -0.2337 -0.0199
35272POPC   GL169246   3.280  26.612  16.584 -0.2966 -0.2392 -0.0988
35272POPC   GL269247   3.596  26.536  16.670  0.0949 -0.0311 -0.1202
35272POPC   C1A69248   3.071  26.378  16.945  0.1311 -0.1318 -0.1304
35272POPC   D2A69249   2.941  26.368  17.354 -0.2037 -0.2309  0.0176
35272POPC   C3A69250   2.820  25.896  17.526 -0.0410  0.1796  0.1258
35272POPC   C4A69251   3.135  25.584  17.418 -0.0471  0.0176 -0.0290
35272POPC   C1B69252   4.023  26.485  16.879 -0.0632 -0.1054 -0.2058
35272POPC   C2B69253   4.215  26.477  17.295 -0.1179  0.0592 -0.0988
35272POPC   C3B69254   4.359  26.602  17.761 -0.0889  0.2545  0.3190
35272POPC   C4B69255   4.376  26.432  18.224  0.0171 -0.0042  0.0743
35273POPC   NC369256   9.586  26.654  13.287  0.5356  0.0694 -0.1028
35273POPC   PO469257   9.310  26.617  13.558  0.0861 -0.2850 -0.1777
35273POPC   GL169258   9.046  26.247  13.671 -0.3273 -0.2617  0.2490
35273POPC   GL269259   9.163  26.007  13.727  0.0880  0.2536  0.0905
35273POPC   C1A69260   8.952  25.945  13.255  0.0090  0.1121 -0.1748
35273POPC   D2A69261   8.941  25.707  12.873 -0.0455 -0.0736 -0.0222
35273POPC   C3A69262   9.048  25.734  12.477  0.1689 -0.0616 -0.2788
35273POPC   C4A69263   9.214  25.455  12.181 -0.0575  0.0538  0.0141
35273POPC   C1B69264   9.426  25.788  13.454  0.1476  0.0584  0.0136
35273POPC   C2B69265   9.409  25.331  13.392 -0.0728  0.0169  0.2625
35273POPC   C3B69266   9.408  24.962  13.645 -0.2927 -0.1399  0.3474
35273POPC   C4B69267   9.235  24.610  13.952  0.2177  0.3034 -0.2394
35274POPC   NC369268   3.758  20.413  15.426  0.1214 -0.1137 -0.0986
35274POPC   PO469269   3.925  20.574  15.132  0.0188 -0.2419  0.2072
35274POPC   GL169270   4.021  20.762  15.456 -0.3097 -0.1964  0.0955
35274POPC   GL269271   4.327  20.721  15.441 -0.0239  0.2086 -0.0230
35274POPC   C1A69272   4.072  20.705  15.933  0.0812 -0.1121  0.2348
35274POPC   D2A69273   3.982  20.499  16.379 -0.0616 -0.2512  0.1385
35274POPC   C3A69274   3.843  20.589  16.795 -0.2316 -0.0100  0.0727
35274POPC   C4A69275   3.556  20.840  17.004  0.0964 -0.2325  0.3179
35274POPC   C1B69276   4.520  20.974  15.824  0.0968  0.1567 -0.0282
35274POPC   C2B69277   4.676  21.147  16.260 -0.1163 -0.1609 -0.4530
35274POPC   C3B69278   5.069  21.307  16.465  0.0274 -0.0797  0.1619
35274POPC   C4B69279   5.376  21.460  16.764 -0.2363  0.1881 -0.2423
35275POPC   NC369280   5.083  16.084  16.003  0.2285  0.3190 -0.0494
35275POPC   PO469281   4.766  16.167  15.906  0.0322  0.0194  0.0762
35275POPC   GL169282   4.682  16.344  16.231 -0.0569  0.1298 -0.0015
35275POPC   GL269283   4.917  16.349  16.364  0.0075  0.0862  0.4695
35275POPC   C1A69284   4.454  16.715  16.370 -0.0169 -0.3146  0.0916
35275POPC   D2A69285   4.287  17.116  16.370 -0.1561  0.1788 -0.0174
35275POPC   C3A69286   4.114  17.263  16.787 -0.2554 -0.1766 -0.2804
35275POPC   C4A69287   4.134  17.294  17.224  0.1022  0.3661 -0.1411
35275POPC   C1B69288   4.854  16.374  16.846  0.0714 -0.2602  0.1698
35275POPC   C2B69289   4.924  16.684  17.149 -0.1065  0.0556 -0.2783
35275POPC   C3B69290   5.218  16.943  17.471 -0.1159 -0.0160  0.0109
35275POPC   C4B69291   5.274  17.214  17.820 -0.0947  0.0860 -0.3549
35276POPC   NC369292  13.969  25.396  14.122  0.0878 -0.1362 -0.0988
35276POPC   PO469293  13.699  25.634  13.963 -0.3103  0.1430 -0.0137
35276POPC   GL169294  13.320  25.384  13.918 -0.0285 -0.2080 -0.0465
35276POPC   GL269295  13.344  25.299  13.639  0.0724  0.0173 -0.1464
35276POPC   C1A69296  13.226  25.040  14.196  0.3604  0.0975  0.0561
35276POPC   D2A69297  13.199  24.593  14.039  0.1955 -0.0438 -0.1822
35276POPC   C3A69298  12.894  24.338  14.282  0.0297  0.1190 -0.1182
35276POPC   C4A69299  12.641  23.992  14.462  0.0350  0.3669 -0.1237
35276POPC   C1B69300  13.319  24.833  13.619 -0.1369 -0.2782 -0.0746
35276POPC   C2B69301  12.958  24.472  13.589  0.0909 -0.1901  0.2996
35276POPC   C3B69302  12.767  24.185  13.811  0.0610  0.0631 -0.0138
35276POPC   C4B69303  12.545  23.790  14.003  0.2969 -0.1851  0.3966
35277POPC   NC369304  11.999  27.339  10.294 -0.0006 -0.1159  0.0221
35277POPC   PO469305  11.630  27.276  10.426  0.1790 -0.1636 -0.0541
35277POPC   GL169306  11.341  26.938  10.388  0.1688  0.2297  0.2866
35277POPC   GL269307  11.496  26.750  10.495 -0.1234 -0.2248 -0.1786
35277POPC   C1A69308  11.359  26.614  10.062 -0.0975  0.2568 -0.1184
35277POPC   D2A69309  11.235  26.173  10.118  0.2903 -0.0530  0.4002
35277POPC   C3A69310  11.080  25.757   9.954 -0.2116  0.2101 -0.1191
35277POPC   C4A69311  10.948  25.411   9.663  0.2027  0.0404  0.1053
35277POPC   C1B69312  11.600  26.306  10.369  0.1051  0.1446  0.1084
35277POPC   C2B69313  11.794  25.987  10.549 -0.0185  0.3274 -0.1121
35277POPC   C3B69314  11.819  25.550  10.384 -0.2765  0.1368  0.0817
35277POPC   C4B69315  12.091  25.179  10.407  0.0742 -0.4328 -0.0729
35278POPC   NC369316  13.021  17.854   9.461 -0.0408 -0.1133  0.3708
35278POPC   PO469317  13.337  17.948   9.287 -0.0409  0.2068 -0.1511
35278POPC   GL169318  13.132  18.286   9.118 -0.2043  0.0749  0.2347
35278POPC   GL269319  12.844  18.319   9.308 -0.2172  0.1027  0.1596
35278POPC   C1A69320  12.927  18.351   8.681  0.2914 -0.0323  0.2596
35278POPC   D2A69321  12.776  18.194   8.327 -0.1071  0.0485 -0.1151
35278POPC   C3A69322  12.538  18.299   7.954  0.2450  0.1326 -0.2193
35278POPC   C4A69323  12.453  18.400   7.501  0.1150 -0.2943  0.1269
35278POPC   C1B69324  12.749  18.723   9.031  0.1187  0.1830  0.0166
35278POPC   C2B69325  12.808  18.996   8.686 -0.2048 -0.3922  0.1796
35278POPC   C3B69326  12.496  19.315   8.538  0.2786 -0.0238  0.3813
35278POPC   C4B69327  12.174  19.581   8.579 -0.0823  0.1329 -0.0111
35279POPC   NC369328   1.428  26.978  16.258  0.2094 -0.4688  0.3569
35279POPC   PO469329   1.065  26.798  16.208 -0.1255 -0.1112 -0.2621
35279POPC   GL169330   0.926  26.762  16.553  0.2324  0.0497  0.1712
35279POPC   GL269331   1.134  26.806  16.724  0.2238  0.0868 -0.4052
35279POPC   C1A69332   0.929  26.324  16.692 -0.0554 -0.0802  0.1331
35279POPC   D2A69333   0.744  26.069  16.993 -0.0307  0.2551 -0.2858
35279POPC   C3A69334   0.673  25.889  17.373  0.1676  0.3842  0.1802
35279POPC   C4A69335   0.847  25.727  17.743  0.1926  0.2700 -0.0746
35279POPC   C1B69336   0.915  26.629  17.082  0.3155  0.0059  0.0767
35279POPC   C2B69337   0.541  26.545  17.301  0.3660 -0.0897 -0.3141
35279POPC   C3B69338   0.110  26.545  17.558 -0.0574  0.0384  0.1450
35279POPC   C4B69339  -0.169  26.497  17.961 -0.1130 -0.2769  0.2336
35280POPC   NC369340   5.497  21.906  14.285 -0.0101 -0.2592 -0.3341
35280POPC   PO469341   5.634  22.258  14.442  0.0477  0.1372 -0.0946
35280POPC   GL169342   6.023  22.375  14.524  0.1658 -0.2875 -0.0129
35280POPC   GL269343   6.128  22.188  14.692  0.0168 -0.2649 -0.1609
35280POPC   C1A69344   6.486  22.492  14.589 -0.1632  0.0413  0.2867
35280POPC   D2A69345   6.853  22.439  14.855 -0.0839 -0.2052 -0.1705
35280POPC   C3A69346   7.125  22.097  14.671 -0.0555  0.1912 -0.0840
35280POPC   C4A69347   7.524  22.032  14.484 -0.0786 -0.0689 -0.0944
35280POPC   C1B69348   6.387  22.078  14.296  0.0390  0.0121  0.0398
35280POPC   C2B69349   6.811  21.990  14.133 -0.2485 -0.1100 -0.0993
35280POPC   C3B69350   7.112  21.627  14.103  0.0077  0.3276 -0.1210
35280POPC   C4B69351   7.434  21.486  14.427  0.0898 -0.0597 -0.0359
35281POPC   NC369352   8.352  27.416  14.848 -0.0906 -0.1339 -0.2388
35281POPC   PO469353   8.272  27.062  14.892  0.3891 -0.1909 -0.0693
35281POPC   GL169354   8.109  26.722  15.039  0.1210  0.1308  0.0911
35281POPC   GL269355   8.327  26.541  14.863  0.1707  0.1095 -0.1831
35281POPC   C1A69356   8.165  26.521  15.449 -0.0350  0.1601  0.0274
35281POPC   D2A69357   8.043  26.222  15.783  0.0734 -0.0514 -0.0136
35281POPC   C3A69358   7.856  26.115  16.197  0.3978  0.0161 -0.2104
35281POPC   C4A69359   7.565  26.047  16.499  0.3584 -0.1217  0.1517
35281POPC   C1B69360   8.566  26.291  15.175  0.1624 -0.1383 -0.2467
35281POPC   C2B69361   8.628  26.267  15.592  0.3980  0.0292  0.1400
35281POPC   C3B69362   8.852  26.292  15.995  0.0764 -0.2411 -0.1544
35281POPC   C4B69363   9.049  26.272  16.401 -0.1199 -0.0348 -0.0699
35282POPC   NC369364   8.718  29.950  15.746  0.0401 -0.2413 -0.0256
35282POPC   PO469365   8.613  30.198  16.021  0.2730 -0.1703 -0.0169
35282POPC   GL169366   8.697  30.181  16.401  0.2888 -0.2654 -0.1932
35282POPC   GL269367   9.008  30.224  16.321  0.0989  0.3935  0.0916
35282POPC   C1A69368   8.515  30.012  16.820  0.1448  0.3021  0.1100
35282POPC   D2A69369   8.368  30.196  17.267 -0.0504 -0.1449 -0.3548
35282POPC   C3A69370   7.974  30.115  17.476 -0.1350  0.1362  0.0614
35282POPC   C4A69371   7.566  30.001  17.654 -0.2810  0.2170 -0.2378
35282POPC   C1B69372   8.913  30.350  16.791  0.0758 -0.1262 -0.0807
35282POPC   C2B69373   8.840  30.322  17.268 -0.1150 -0.2024 -0.4139
35282POPC   C3B69374   8.849  30.366  17.740 -0.3078  0.3660 -0.2964
35282POPC   C4B69375   8.985  30.171  18.125  0.1277  0.0812 -0.4145
35283POPC   NC369376   1.053  21.684  15.373  0.0340  0.0004  0.1967
35283POPC   PO469377   0.840  21.970  15.502  0.1581 -0.1117  0.5176
35283POPC   GL169378   1.013  21.835  15.816  0.0298  0.0134 -0.2110
35283POPC   GL269379   0.798  21.709  16.006 -0.3212 -0.0757  0.2304
35283POPC   C1A69380   1.225  22.096  16.142 -0.0142 -0.4141 -0.0471
35283POPC   D2A69381   1.172  22.245  16.638  0.0154  0.1103 -0.0855
35283POPC   C3A69382   1.304  22.053  17.018 -0.1278  0.0140 -0.0431
35283POPC   C4A69383   1.188  22.069  17.409 -0.1271 -0.0083 -0.2311
35283POPC   C1B69384   0.851  21.542  16.362 -0.2522  0.0032 -0.0208
35283POPC   C2B69385   0.602  21.484  16.790  0.0102 -0.1262  0.4075
35283POPC   C3B69386   0.382  21.493  17.195 -0.0572 -0.0805 -0.2051
35283POPC   C4B69387   0.090  21.822  17.455  0.0536 -0.0431  0.2189
35284POPC   NC369388  15.554  22.607  15.348  0.0242  0.1975 -0.0673
35284POPC   PO469389  15.291  22.863  15.163 -0.3610 -0.3420  0.0331
35284POPC   GL169390  14.962  22.756  15.372 -0.0347 -0.1502 -0.0148
35284POPC   GL269391  15.081  22.622  15.547  0.1672 -0.1659  0.1696
35284POPC   C1A69392  14.575  22.655  15.637  0.3047  0.1292  0.1703
35284POPC   D2A69393  14.243  22.302  15.720  0.0076 -0.0552 -0.2347
35284POPC   C3A69394  13.865  22.294  16.011 -0.0935  0.2649  0.1806
35284POPC   C4A69395  13.704  22.209  16.446 -0.0552  0.2283  0.0954
35284POPC   C1B69396  14.971  22.611  15.986  0.0989  0.1611 -0.0049
35284POPC   C2B69397  14.806  22.382  16.396 -0.0912  0.1824 -0.1588
35284POPC   C3B69398  14.699  22.090  16.725  0.3292 -0.2756 -0.1840
35284POPC   C4B69399  15.051  21.884  17.035  0.1884  0.2490  0.0870
35285POPC   NC369400   7.686  31.977  15.135  0.3908  0.0848 -0.1292
35285POPC   PO469401   8.035  32.079  15.265  0.0364  0.1567  0.0134
35285POPC   GL169402   8.091  32.297  15.556 -0.0071 -0.0606 -0.0844
35285POPC   GL269403   8.131  32.343  15.819  0.3211 -0.2361  0.2024
35285POPC   C1A69404   7.906  32.754  15.671 -0.1807  0.2389 -0.3054
35285POPC   D2A69405   7.944  33.132  15.905  0.0044 -0.1250  0.2598
35285POPC   C3A69406   7.955  33.051  16.367 -0.0669 -0.1624  0.1186
35285POPC   C4A69407   7.820  32.875  16.747  0.0970 -0.0368 -0.1402
35285POPC   C1B69408   8.177  32.341  16.245 -0.2081  0.0314  0.2042
35285POPC   C2B69409   8.262  32.543  16.636  0.1594 -0.1887 -0.1585
35285POPC   C3B69410   8.183  32.653  17.058  0.0202  0.2205 -0.2698
35285POPC   C4B69411   8.304  32.735  17.448 -0.0314  0.0822  0.0114
35286POPC   NC369412   5.108  29.332  17.035  0.0393  0.1899  0.2373
35286POPC   PO469413   5.355  29.559  16.802 -0.1220 -0.3128 -0.0359
35286POPC   GL169414   5.525  29.511  17.197 -0.3366  0.1550 -0.0781
35286POPC   GL269415   5.423  29.451  17.464 -0.3861  0.3014 -0.1600
35286POPC   C1A69416   5.745  29.087  17.311 -0.0350 -0.1814 -0.0780
35286POPC   D2A69417   6.088  28.904  17.543 -0.2484 -0.0957 -0.4072
35286POPC   C3A69418   6.302  29.049  17.935  0.3443  0.0245 -0.2060
35286POPC   C4A69419   6.564  29.125  18.290  0.3207 -0.1351 -0.1183
35286POPC   C1B69420   5.599  29.110  17.817 -0.2273 -0.1422 -0.2252
35286POPC   C2B69421   5.748  28.993  18.200 -0.0836 -0.0689  0.0684
35286POPC   C3B69422   5.716  28.597  18.440  0.2543 -0.0570  0.3042
35286POPC   C4B69423   5.574  28.183  18.469  0.0643  0.2775  0.0060
35287POPC   NC369424   6.536  30.281   8.807  0.0410  0.0978  0.0583
35287POPC   PO469425   6.685  30.631   8.711  0.0575 -0.1731  0.0835
35287POPC   GL169426   6.867  30.899   8.397 -0.1159  0.3238 -0.1857
35287POPC   GL269427   6.846  31.178   8.441  0.0522  0.2738 -0.0138
35287POPC   C1A69428   7.329  30.931   8.257  0.1366  0.2290  0.0561
35287POPC   D2A69429   7.741  30.700   8.114 -0.0161  0.1173 -0.0105
35287POPC   C3A69430   7.946  30.469   7.752 -0.1219  0.1376  0.0468
35287POPC   C4A69431   7.914  30.200   7.378  0.0342 -0.1403 -0.0544
35287POPC   C1B69432   6.489  31.307   8.175 -0.1551 -0.1624  0.0354
35287POPC   C2B69433   6.545  31.387   7.723  0.3242  0.1984 -0.1367
35287POPC   C3B69434   6.619  31.475   7.226 -0.1223  0.3214 -0.1293
35287POPC   C4B69435   6.542  31.948   7.109  0.0809  0.2797  0.1097
35288POPC   NC369436   5.054  27.789  16.337  0.1361  0.1460  0.0135
35288POPC   PO469437   5.001  27.810  15.954  0.1547 -0.1005  0.0565
35288POPC   GL169438   5.006  27.455  16.040  0.0881  0.0580 -0.3033
35288POPC   GL269439   5.037  27.224  16.000 -0.2318  0.1613 -0.2238
35288POPC   C1A69440   4.904  27.324  16.488 -0.0181 -0.0311 -0.0789
35288POPC   D2A69441   4.816  27.444  16.930 -0.1353  0.1071 -0.0065
35288POPC   C3A69442   4.622  27.165  17.205 -0.2675  0.0250  0.0825
35288POPC   C4A69443   4.631  26.983  17.655  0.0499  0.2606 -0.0068
35288POPC   C1B69444   5.274  26.982  16.299  0.4513  0.1093  0.0366
35288POPC   C2B69445   5.301  26.568  16.586  0.3819 -0.3210  0.1008
35288POPC   C3B69446   5.183  26.381  16.978 -0.0184 -0.1359  0.0601
35288POPC   C4B69447   5.142  26.223  17.406 -0.3232  0.2623 -0.0292
35289POPC   NC369448   4.584  25.054  15.251  0.1211 -0.0771 -0.2204
35289POPC   PO469449   4.866  24.965  14.947 -0.2976  0.0621 -0.1711
35289POPC   GL169450   5.066  24.915  15.262 -0.0713  0.2560  0.3306
35289POPC   GL269451   5.099  25.145  15.427  0.1579  0.0538  0.2734
35289POPC   C1A69452   5.468  24.757  15.323 -0.2961  0.5244 -0.0500
35289POPC   D2A69453   5.722  24.478  15.616  0.0040 -0.0616  0.1904
35289POPC   C3A69454   5.658  24.436  16.078  0.0338 -0.0258 -0.0555
35289POPC   C4A69455   5.933  24.459  16.471  0.1944 -0.0588  0.0821
35289POPC   C1B69456   5.254  24.898  15.772 -0.2459 -0.1691 -0.0086
35289POPC   C2B69457   5.306  24.724  16.218  0.0406  0.1443  0.3638
35289POPC   C3B69458   5.501  24.645  16.631  0.0174  0.1279 -0.1910
35289POPC   C4B69459   5.842  24.513  16.950  0.0164 -0.0039  0.3154
35290POPC   NC369460  10.826  28.488  16.094 -0.0823  0.3462 -0.2505
35290POPC   PO469461  10.912  28.769  16.334  0.0021 -0.1329 -0.1316
35290POPC   GL169462  10.820  28.744  16.759 -0.1673  0.0377  0.4398
35290POPC   GL269463  11.078  28.785  16.815  0.0041  0.2662  0.2543
35290POPC   C1A69464  10.817  28.478  17.100 -0.1704  0.0633  0.3054
35290POPC   D2A69465  10.843  28.513  17.540 -0.2841 -0.1812  0.2218
35290POPC   C3A69466  10.911  28.863  17.808 -0.0137  0.2273  0.2364
35290POPC   C4A69467  11.123  29.108  18.171 -0.0000  0.0067 -0.2543
35290POPC   C1B69468  10.901  28.975  17.181  0.0011 -0.2272 -0.0752
35290POPC   C2B69469  10.768  29.368  17.410 -0.4131  0.1108  0.0502
35290POPC   C3B69470  10.784  29.404  17.866  0.1327 -0.0566 -0.0748
35290POPC   C4B69471  10.704  29.346  18.327  0.2671 -0.2430  0.1786
35291POPC   NC369472   9.804  15.895  14.769  0.0445 -0.2715  0.2797
35291POPC   PO469473   9.446  16.012  14.569 -0.0797 -0.0127 -0.2386
35291POPC   GL169474   9.419  16.251  14.889  0.0040  0.3761 -0.0152
35291POPC   GL269475   9.562  16.522  14.925 -0.1958 -0.1360 -0.0450
35291POPC   C1A69476   9.456  16.269  15.363 -0.2530  0.1325  0.1485
35291POPC   D2A69477   9.323  16.163  15.820 -0.0690 -0.3032  0.1289
35291POPC   C3A69478   9.450  16.539  16.109 -0.0183  0.1573  0.1927
35291POPC   C4A69479   9.781  16.712  16.403  0.2252 -0.0962 -0.0955
35291POPC   C1B69480   9.585  16.957  15.000  0.0527  0.0346 -0.0377
35291POPC   C2B69481   9.662  17.328  15.256  0.0063  0.4896  0.2388
35291POPC   C3B69482   9.955  17.648  15.368 -0.1112  0.0186  0.0872
35291POPC   C4B69483  10.077  17.958  15.711  0.0629  0.3048 -0.0811
35292POPC   NC369484   4.535  28.971  16.836  0.0091 -0.1027 -0.2084
35292POPC   PO469485   4.898  28.918  16.881  0.1925  0.0746 -0.0286
35292POPC   GL169486   4.934  28.721  17.294  0.3541 -0.0584 -0.3086
35292POPC   GL269487   5.077  28.992  17.441  0.0981 -0.0548  0.2235
35292POPC   C1A69488   4.802  28.508  17.722  0.1836 -0.1055  0.3878
35292POPC   D2A69489   4.911  28.628  18.184  0.2431 -0.0882  0.2567
35292POPC   C3A69490   5.061  28.354  18.547 -0.0100  0.3671 -0.1777
35292POPC   C4A69491   4.828  28.077  18.868  0.2447 -0.0981 -0.0004
35292POPC   C1B69492   5.256  28.734  17.780  0.1557  0.1142 -0.0897
35292POPC   C2B69493   5.581  28.454  18.007  0.1621  0.1178 -0.1062
35292POPC   C3B69494   6.068  28.573  18.030  0.0167  0.4196 -0.0275
35292POPC   C4B69495   6.529  28.619  18.019 -0.0152 -0.0809 -0.1939
35293POPC   NC369496   9.533  31.485  15.978  0.1143  0.2648  0.1716
35293POPC   PO469497   9.855  31.223  16.122  0.3663  0.2008  0.0543
35293POPC   GL169498   9.799  31.548  16.382  0.0234  0.0454  0.1471
35293POPC   GL269499   9.861  31.495  16.645 -0.0025 -0.0517  0.1631
35293POPC   C1A69500  10.009  31.945  16.552 -0.1103  0.0086 -0.2004
35293POPC   D2A69501  10.048  32.340  16.812 -0.1417  0.1855 -0.0469
35293POPC   C3A69502   9.685  32.583  16.686  0.1017  0.4079 -0.4840
35293POPC   C4A69503   9.347  32.853  16.901 -0.0882 -0.0162  0.2635
35293POPC   C1B69504   9.829  31.680  17.091 -0.4019 -0.0688 -0.4022
35293POPC   C2B69505   9.763  31.631  17.577 -0.0563 -0.1086 -0.0931
35293POPC   C3B69506   9.750  31.812  18.007  0.0466 -0.2051  0.2302
35293POPC   C4B69507  10.163  31.794  18.245  0.3004 -0.1696 -0.0381
35294POPC   NC369508   3.403  28.087  16.685  0.2009  0.0766  0.1772
35294POPC   PO469509   3.409  27.700  16.681  0.1315 -0.0506 -0.1404
35294POPC   GL169510   3.288  27.568  17.045  0.0415  0.2388 -0.0085
35294POPC   GL269511   3.087  27.651  17.084  0.0941 -0.0112  0.1433
35294POPC   C1A69512   3.377  27.636  17.522 -0.3378 -0.3629  0.1792
35294POPC   D2A69513   3.302  27.469  17.938  0.1490  0.1390  0.0042
35294POPC   C3A69514   3.425  27.029  17.958  0.2602  0.1832 -0.3431
35294POPC   C4A69515   3.784  26.762  18.033  0.1115  0.1099 -0.0360
35294POPC   C1B69516   3.039  27.345  17.435  0.2388  0.0374 -0.2351
35294POPC   C2B69517   2.986  27.126  17.828  0.3560  0.1727 -0.1553
35294POPC   C3B69518   2.864  26.752  18.055 -0.1054 -0.0402  0.1007
35294POPC   C4B69519   3.018  26.374  18.221 -0.1737 -0.5098 -0.0100
35295POPC   NC369520  12.555  26.358  13.113 -0.0104 -0.0184  0.0885
35295POPC   PO469521  12.522  26.230  13.490 -0.1986  0.4773  0.0633
35295POPC   GL169522  12.477  25.779  13.476 -0.0632 -0.2197 -0.0882
35295POPC   GL269523  12.498  25.671  13.234 -0.0251 -0.5561 -0.2949
35295POPC   C1A69524  12.498  25.355  13.716  0.2254  0.2794 -0.2258
35295POPC   D2A69525  12.365  24.943  13.598  0.0983 -0.1225 -0.1073
35295POPC   C3A69526  12.408  24.504  13.488 -0.3853  0.0976  0.0626
35295POPC   C4A69527  12.604  24.097  13.296  0.0241  0.0747 -0.0313
35295POPC   C1B69528  12.272  25.278  13.173 -0.2951  0.3868 -0.0860
35295POPC   C2B69529  12.122  24.863  13.078 -0.0286  0.0665  0.0345
35295POPC   C3B69530  12.007  24.380  13.104  0.2730 -0.1211  0.0212
35295POPC   C4B69531  12.110  24.026  13.352 -0.0421 -0.1360 -0.1577
35296POPC   NC369532  16.348  30.689  16.453 -0.2364 -0.0018 -0.0064
35296POPC   PO469533  16.605  30.391  16.465  0.0720 -0.0241  0.1101
35296POPC   GL169534  16.692  30.367  16.871  0.1520  0.0215  0.1088
35296POPC   GL269535  16.644  30.621  16.935 -0.5724  0.1676  0.0900
35296POPC   C1A69536  16.937  30.398  17.261 -0.1159  0.2652  0.3104
35296POPC   D2A69537  17.193  30.292  17.643 -0.0068 -0.2300 -0.3080
35296POPC   C3A69538  16.965  30.380  18.032 -0.0511 -0.2060 -0.0275
35296POPC   C4A69539  16.615  30.383  18.367  0.0636  0.1962 -0.0057
35296POPC   C1B69540  16.692  30.830  17.335 -0.0787  0.0166  0.0766
35296POPC   C2B69541  16.818  30.751  17.718 -0.3475 -0.0676  0.0151
35296POPC   C3B69542  16.924  30.828  18.113  0.0608  0.1672 -0.2088
35296POPC   C4B69543  17.131  30.940  18.566 -0.0883 -0.0559 -0.0125
35297POPC   NC369544   7.541  28.202  15.776  0.1567  0.5102  0.1147
35297POPC   PO469545   7.589  27.978  16.037  0.1712 -0.2253 -0.2017
35297POPC   GL169546   7.888  27.863  16.381 -0.0284  0.0653  0.0335
35297POPC   GL269547   7.738  27.579  16.486 -0.1765 -0.0232 -0.1181
35297POPC   C1A69548   7.951  27.952  16.816  0.1775  0.1978 -0.1508
35297POPC   D2A69549   8.208  28.059  17.177  0.1146  0.2052  0.2880
35297POPC   C3A69550   8.209  27.667  17.317 -0.2325 -0.0732  0.1688
35297POPC   C4A69551   8.280  27.371  17.641 -0.0639 -0.1432  0.0631
35297POPC   C1B69552   7.960  27.490  16.893  0.2861 -0.3128  0.0206
35297POPC   C2B69553   7.884  27.203  17.262 -0.4406 -0.1705 -0.1525
35297POPC   C3B69554   7.771  26.968  17.672 -0.1476  0.2884 -0.1280
35297POPC   C4B69555   7.670  26.803  18.150  0.1640  0.2271  0.0436
35298POPC   NC369556   6.611  31.742   9.011  0.0171  0.1864  0.2355
35298POPC   PO469557   6.836  31.639   8.702 -0.1142  0.1056 -0.1752
35298POPC   GL169558   7.010  31.838   8.284 -0.1955  0.0973 -0.2267
35298POPC   GL269559   7.035  32.095   8.355 -0.2740 -0.1297  0.2891
35298POPC   C1A69560   7.264  31.871   7.856  0.1005  0.0741  0.1202
35298POPC   D2A69561   7.108  31.542   7.581 -0.1095  0.1251  0.1954
35298POPC   C3A69562   6.989  31.756   7.144  0.0067  0.0373 -0.0833
35298POPC   C4A69563   6.885  32.125   6.861 -0.1280 -0.4804 -0.0674
35298POPC   C1B69564   6.985  32.319   7.915 -0.1378 -0.0877 -0.1034
35298POPC   C2B69565   6.990  32.131   7.499  0.2050  0.0020 -0.1501
35298POPC   C3B69566   7.317  32.166   7.160  0.0918 -0.2564  0.1074
35298POPC   C4B69567   7.691  32.057   6.903  0.1377  0.0799 -0.0409
35299POPC   NC369568   6.240  26.618   9.991 -0.1107  0.1333  0.1492
35299POPC   PO469569   6.217  26.988  10.014  0.1460  0.2282 -0.0145
35299POPC   GL169570   6.470  27.001   9.682 -0.1188 -0.0872  0.1344
35299POPC   GL269571   6.662  26.806   9.638 -0.2745  0.0171 -0.0356
35299POPC   C1A69572   6.439  26.857   9.199  0.2484  0.0940  0.2336
35299POPC   D2A69573   6.238  26.973   8.786  0.1764  0.0443  0.1364
35299POPC   C3A69574   6.535  26.926   8.396  0.1274 -0.0080  0.1000
35299POPC   C4A69575   6.795  26.927   8.014  0.2449 -0.0124 -0.2650
35299POPC   C1B69576   6.865  26.522   9.355  0.1801  0.1808 -0.1680
35299POPC   C2B69577   7.204  26.344   9.036 -0.1138 -0.0215 -0.3498
35299POPC   C3B69578   7.623  26.199   9.081  0.0520 -0.3037 -0.1067
35299POPC   C4B69579   8.100  26.129   8.932 -0.1055 -0.4317 -0.1739
35300POPC   NC369580  15.714  31.533  16.116  0.0011  0.0836 -0.4178
35300POPC   PO469581  15.465  31.710  16.387  0.1635 -0.0450  0.0152
35300POPC   GL169582  15.402  31.783  16.847  0.1269  0.0846  0.3888
35300POPC   GL269583  15.147  31.927  16.855 -0.0724  0.1639 -0.0977
35300POPC   C1A69584  15.447  31.610  17.271 -0.0399  0.1606 -0.0419
35300POPC   D2A69585  15.182  31.604  17.665  0.1270 -0.1399  0.0023
35300POPC   C3A69586  15.322  31.305  17.938  0.2007  0.0241  0.0326
35300POPC   C4A69587  15.585  31.280  18.270 -0.0011  0.1116 -0.0669
35300POPC   C1B69588  14.983  32.234  17.078  0.5017  0.0538  0.1672
35300POPC   C2B69589  14.640  32.571  16.976  0.2003  0.1323 -0.1499
35300POPC   C3B69590  14.426  32.827  17.254 -0.0991 -0.0539  0.3279
35300POPC   C4B69591  14.570  32.984  17.677 -0.0208 -0.0111  0.2268
35301POPC   NC369592   3.161  28.913  16.737  0.1547  0.0457 -0.2421
35301POPC   PO469593   2.866  29.155  16.613  0.0122 -0.1665  0.4126
35301POPC   GL169594   2.843  29.061  16.995  0.0797  0.1905  0.3355
35301POPC   GL269595   2.887  28.844  17.155  0.1700 -0.1077  0.1368
35301POPC   C1A69596   2.784  29.327  17.392  0.0696 -0.1667 -0.0114
35301POPC   D2A69597   2.936  29.560  17.783  0.3649  0.0268  0.0381
35301POPC   C3A69598   2.866  29.469  18.199  0.0080  0.0142  0.1793
35301POPC   C4A69599   2.594  29.270  18.463  0.3204  0.0865  0.0098
35301POPC   C1B69600   2.798  28.588  17.531 -0.3420  0.0242  0.1775
35301POPC   C2B69601   2.790  28.272  17.887 -0.3182 -0.2153 -0.2900
35301POPC   C3B69602   2.426  28.025  18.113 -0.3454 -0.0791  0.1525
35301POPC   C4B69603   2.133  27.982  18.423  0.1948  0.1766 -0.0965
35302POPC   NC369604  15.593  20.551  14.945  0.1352 -0.0023 -0.0989
35302POPC   PO469605  15.400  20.931  14.931  0.1444  0.0262  0.0393
35302POPC   GL169606  15.136  20.894  15.090  0.0274  0.0445 -0.3824
35302POPC   GL269607  14.897  20.676  15.036  0.1430  0.2478 -0.0374
35302POPC   C1A69608  14.910  21.259  15.378 -0.2238  0.2545 -0.1062
35302POPC   D2A69609  14.756  21.573  15.615 -0.1686  0.0857  0.0504
35302POPC   C3A69610  15.009  21.763  15.972 -0.0064  0.0403  0.3936
35302POPC   C4A69611  15.191  22.203  16.163 -0.1621  0.1180  0.0109
35302POPC   C1B69612  14.868  20.639  15.504 -0.1422  0.0977 -0.0819
35302POPC   C2B69613  14.561  20.510  15.832  0.4937 -0.2037  0.2773
35302POPC   C3B69614  14.453  20.579  16.283  0.0638  0.2207  0.0269
35302POPC   C4B69615  14.207  20.830  16.561  0.2272  0.2251  0.0987
35303POPC   NC369616  12.747  27.737   9.596  0.0773  0.2749 -0.2490
35303POPC   PO469617  12.358  27.851   9.528 -0.1176 -0.0397 -0.0041
35303POPC   GL169618  12.493  27.591   9.197  0.2164  0.0400  0.0749
35303POPC   GL269619  12.676  27.384   9.239 -0.0686 -0.0785  0.0669
35303POPC   C1A69620  12.711  27.548   8.767 -0.0388 -0.4300 -0.1678
35303POPC   D2A69621  12.631  27.413   8.286  0.1501 -0.0577  0.0621
35303POPC   C3A69622  12.336  27.024   8.289  0.0458 -0.1335  0.2228
35303POPC   C4A69623  12.111  26.690   8.422  0.0406 -0.0959  0.0288
35303POPC   C1B69624  12.329  27.243   8.975  0.0912  0.1721 -0.0317
35303POPC   C2B69625  12.029  27.142   8.735  0.1656  0.2622  0.2364
35303POPC   C3B69626  11.738  26.992   8.381 -0.2420 -0.1650  0.1277
35303POPC   C4B69627  11.865  27.022   7.952 -0.1822 -0.0412  0.2636
35304POPC   NC369628   3.671  24.119  15.201 -0.0720  0.0860  0.1498
35304POPC   PO469629   3.925  23.952  15.512  0.0933  0.1681  0.3983
35304POPC   GL169630   4.010  24.117  15.858  0.0428  0.1387  0.0264
35304POPC   GL269631   3.981  23.865  16.142  0.0395 -0.0857 -0.2458
35304POPC   C1A69632   4.058  24.558  16.029 -0.2518 -0.1707  0.0246
35304POPC   D2A69633   4.341  24.863  16.164  0.0844  0.1585 -0.0425
35304POPC   C3A69634   4.373  24.744  16.592 -0.0109  0.0479 -0.2875
35304POPC   C4A69635   4.465  24.458  16.992  0.0894  0.3880 -0.2426
35304POPC   C1B69636   3.864  23.891  16.610 -0.1764  0.1822  0.2264
35304POPC   C2B69637   3.829  23.805  17.097  0.3129  0.0598 -0.1222
35304POPC   C3B69638   4.094  23.836  17.492 -0.1617  0.4087 -0.1278
35304POPC   C4B69639   4.285  23.960  17.924  0.2730  0.1939  0.0736
35305POPC   NC369640  13.179  31.703  16.304 -0.1916  0.0774 -0.0707
35305POPC   PO469641  12.824  31.717  16.097  0.0500 -0.1495 -0.0816
35305POPC   GL169642  12.729  32.031  16.275 -0.0053 -0.2875  0.2174
35305POPC   GL269643  12.835  31.981  16.588 -0.0621 -0.1813 -0.0282
35305POPC   C1A69644  12.377  32.136  16.584 -0.0276 -0.1839 -0.1914
35305POPC   D2A69645  12.085  32.212  16.914  0.0268  0.1085 -0.1962
35305POPC   C3A69646  11.827  32.181  17.258 -0.1447 -0.1533 -0.3580
35305POPC   C4A69647  11.511  32.349  17.536  0.1031 -0.1455  0.3733
35305POPC   C1B69648  12.852  32.097  17.004  0.4036  0.3233 -0.1754
35305POPC   C2B69649  12.802  32.439  17.267  0.3755  0.2124 -0.2941
35305POPC   C3B69650  12.562  32.651  17.569 -0.4645 -0.1895 -0.0840
35305POPC   C4B69651  12.494  33.063  17.792  0.0170  0.0193 -0.1803
35306POPC   NC369652   5.552  24.544  11.074 -0.0053 -0.0260  0.2846
35306POPC   PO469653   5.554  24.272  11.345 -0.1612 -0.1896  0.0646
35306POPC   GL169654   5.979  24.431  11.346  0.0143  0.3379  0.3473
35306POPC   GL269655   6.054  24.119  11.452  0.1385 -0.0747 -0.1386
35306POPC   C1A69656   6.132  24.152  10.894  0.1821  0.0086 -0.3906
35306POPC   D2A69657   6.475  23.807  10.850  0.0231 -0.1120  0.6287
35306POPC   C3A69658   6.799  23.967  10.523 -0.0947  0.2547  0.2267
35306POPC   C4A69659   7.025  24.337  10.313  0.0422 -0.1966  0.1102
35306POPC   C1B69660   6.481  24.208  11.230 -0.2082  0.0195  0.0036
35306POPC   C2B69661   6.887  24.121  10.986 -0.1460 -0.1219 -0.0494
35306POPC   C3B69662   7.254  23.975  10.769  0.1388 -0.0983 -0.0658
35306POPC   C4B69663   7.641  23.710  10.715  0.1075 -0.0311 -0.1974
35307POPC   NC369664   7.325  18.797  10.615  0.3587  0.1072 -0.0148
35307POPC   PO469665   6.952  18.908  10.594  0.1263 -0.3510 -0.1020
35307POPC   GL169666   7.029  19.073  10.265 -0.1932  0.1131 -0.1354
35307POPC   GL269667   7.200  19.239  10.318  0.1351 -0.4206 -0.3622
35307POPC   C1A69668   7.057  19.210   9.788  0.2834 -0.0628  0.1466
35307POPC   D2A69669   7.291  19.263   9.393 -0.0313  0.0383 -0.0110
35307POPC   C3A69670   7.688  19.443   9.474 -0.2195  0.1757 -0.0297
35307POPC   C4A69671   7.917  19.837   9.405  0.4310  0.0023  0.1813
35307POPC   C1B69672   7.303  19.575  10.026  0.0463  0.1400  0.1090
35307POPC   C2B69673   7.475  19.837   9.725 -0.0377 -0.1605  0.2494
35307POPC   C3B69674   7.512  20.266   9.460  0.0199 -0.1259 -0.1861
35307POPC   C4B69675   7.711  20.635   9.646  0.0858 -0.3151  0.1543
35308POPC   NC369676   1.990  31.393  16.733 -0.0588 -0.2189  0.3878
35308POPC   PO469677   1.744  31.105  16.829 -0.1203 -0.3048  0.2710
35308POPC   GL169678   1.540  31.074  17.188 -0.3000 -0.1792 -0.0371
35308POPC   GL269679   1.712  30.867  17.313 -0.4916 -0.1203  0.1614
35308POPC   C1A69680   1.347  30.976  17.656  0.2248 -0.1557  0.0522
35308POPC   D2A69681   1.387  30.886  18.085 -0.1000 -0.0994  0.1636
35308POPC   C3A69682   1.244  31.034  18.461  0.2235 -0.1201 -0.2944
35308POPC   C4A69683   1.130  30.830  18.826 -0.1313 -0.1423  0.0849
35308POPC   C1B69684   1.831  30.713  17.749  0.0553 -0.0562 -0.1359
35308POPC   C2B69685   1.752  30.563  18.183  0.0992  0.0625  0.1421
35308POPC   C3B69686   1.949  30.396  18.564  0.3304 -0.1869  0.1500
35308POPC   C4B69687   2.136  30.195  18.866 -0.2431 -0.1767 -0.6114
35309POPC   NC369688  14.530  23.993  12.397  0.0566 -0.4084  0.0836
35309POPC   PO469689  14.685  23.898  12.097  0.0398  0.0294  0.0242
35309POPC   GL169690  14.360  23.708  11.983  0.1038  0.5094  0.0195
35309POPC   GL269691  14.439  23.511  11.755 -0.1307  0.2557 -0.0821
35309POPC   C1A69692  13.980  23.405  11.812  0.0014 -0.5662 -0.1006
35309POPC   D2A69693  13.674  23.162  11.656  0.2396 -0.0918  0.0757
35309POPC   C3A69694  13.385  22.848  11.822  0.0443 -0.0787 -0.1035
35309POPC   C4A69695  13.461  22.468  12.010  0.1472  0.1166 -0.1081
35309POPC   C1B69696  14.196  23.472  11.376  0.0844 -0.1416 -0.0483
35309POPC   C2B69697  13.964  23.597  11.091  0.0852  0.2793 -0.0511
35309POPC   C3B69698  13.636  23.503  10.770 -0.2444 -0.0690 -0.2503
35309POPC   C4B69699  13.183  23.428  10.728  0.0450  0.1922 -0.0876
35310POPC   NC369700  14.251  17.999  14.182  0.2131 -0.2118  0.0059
35310POPC   PO469701  14.198  18.396  14.136  0.0919 -0.2307 -0.4470
35310POPC   GL169702  13.961  18.654  14.312  0.4213 -0.1650  0.0322
35310POPC   GL269703  13.952  18.980  14.523  0.2121 -0.0772  0.1114
35310POPC   C1A69704  13.490  18.728  14.332 -0.0158 -0.2890  0.1729
35310POPC   D2A69705  13.080  18.804  14.546 -0.0187  0.0466 -0.0571
35310POPC   C3A69706  13.001  19.137  14.861 -0.0820 -0.0371  0.0540
35310POPC   C4A69707  12.943  19.355  15.262  0.0470 -0.2545 -0.1124
35310POPC   C1B69708  13.915  18.956  14.942  0.4322  0.2313 -0.0574
35310POPC   C2B69709  13.904  18.986  15.440  0.2049 -0.1329  0.3632
35310POPC   C3B69710  13.892  19.079  15.900 -0.1750  0.0174 -0.0820
35310POPC   C4B69711  13.860  19.347  16.361  0.1129 -0.0549 -0.1047
35311POPC   NC369712   5.408  25.921  15.028 -0.2702 -0.1319 -0.2121
35311POPC   PO469713   5.637  26.175  15.156 -0.4274 -0.0389  0.1611
35311POPC   GL169714   5.866  26.020  15.433  0.1525 -0.0018  0.1653
35311POPC   GL269715   5.669  26.059  15.708 -0.3358 -0.1778 -0.1001
35311POPC   C1A69716   6.312  25.896  15.537  0.0585  0.1984  0.1328
35311POPC   D2A69717   6.590  25.843  15.915  0.1330  0.0259  0.1380
35311POPC   C3A69718   6.702  25.453  16.129  0.0910  0.3246  0.1137
35311POPC   C4A69719   7.076  25.335  16.285 -0.0224  0.0839 -0.4443
35311POPC   C1B69720   5.827  25.669  15.782  0.1923  0.1950  0.1991
35311POPC   C2B69721   5.926  25.430  16.158  0.2415  0.1885 -0.1163
35311POPC   C3B69722   6.171  25.262  16.538  0.0878  0.0699  0.1049
35311POPC   C4B69723   6.618  25.112  16.498  0.1112 -0.3591  0.0130
35312POPC   NC369724  15.791  30.372  16.798 -0.0769  0.0174 -0.2518
35312POPC   PO469725  16.191  30.417  16.837 -0.1373 -0.2711  0.4190
35312POPC   GL169726  16.145  30.481  17.159 -0.0859  0.3537  0.0894
35312POPC   GL269727  16.402  30.409  17.364  0.1489 -0.1340 -0.1071
35312POPC   C1A69728  16.135  30.790  17.532  0.1252 -0.0579 -0.2662
35312POPC   D2A69729  15.937  30.620  17.914 -0.1659  0.2989  0.1324
35312POPC   C3A69730  15.856  30.790  18.344  0.0933 -0.0904  0.0255
35312POPC   C4A69731  15.784  31.109  18.700  0.3660 -0.0509 -0.1608
35312POPC   C1B69732  16.417  30.516  17.800  0.1586  0.1129 -0.2510
35312POPC   C2B69733  16.302  30.838  18.130  0.0292  0.0528 -0.0154
35312POPC   C3B69734  16.107  31.214  18.331  0.1347  0.0214  0.1964
35312POPC   C4B69735  16.144  31.427  18.721 -0.0665 -0.0154  0.0055
35313POPC   NC369736   4.908  19.260  14.403 -0.0907 -0.0764  0.4394
35313POPC   PO469737   4.809  19.271  14.784  0.1005 -0.2040  0.1134
35313POPC   GL169738   4.949  19.456  15.087 -0.0709  0.6095  0.1405
35313POPC   GL269739   5.255  19.408  15.085 -0.1309  0.0146 -0.4353
35313POPC   C1A69740   5.011  19.675  15.513 -0.1820 -0.3002 -0.0554
35313POPC   D2A69741   5.132  19.961  15.813 -0.2413 -0.0520  0.0599
35313POPC   C3A69742   5.083  20.024  16.304 -0.0872 -0.1976 -0.1343
35313POPC   C4A69743   5.176  19.938  16.745 -0.0654  0.3908  0.2070
35313POPC   C1B69744   5.327  19.260  15.529  0.0424  0.0812 -0.0308
35313POPC   C2B69745   5.540  19.231  15.936 -0.0365 -0.1728 -0.0773
35313POPC   C3B69746   5.638  19.188  16.376  0.1740  0.1464 -0.3415
35313POPC   C4B69747   5.585  18.923  16.774 -0.0839 -0.1525 -0.2181
35314POPC   NC369748   8.783  17.532  12.646 -0.1886 -0.0267  0.2685
35314POPC   PO469749   8.909  17.173  12.793 -0.0530  0.3150  0.0504
35314POPC   GL169750   9.182  17.354  13.090  0.1264 -0.0744 -0.2467
35314POPC   GL269751   9.250  17.598  12.920 -0.0173  0.1689  0.1997
35314POPC   C1A69752   9.626  17.400  13.193 -0.2531  0.1154  0.0393
35314POPC   D2A69753   9.858  17.368  13.568  0.2892  0.1922 -0.2037
35314POPC   C3A69754   9.944  17.560  13.977  0.2519 -0.2351  0.3772
35314POPC   C4A69755   9.743  17.790  14.318  0.2733  0.1698  0.2142
35314POPC   C1B69756   9.349  17.970  13.185 -0.0612 -0.4079 -0.1600
35314POPC   C2B69757   9.580  18.415  13.233 -0.0011  0.1242  0.0629
35314POPC   C3B69758   9.863  18.777  13.202 -0.0373 -0.1311  0.2605
35314POPC   C4B69759  10.189  19.059  13.218 -0.0502 -0.1534 -0.0665
35315POPC   NC369760   3.520  27.226  16.797 -0.1903 -0.0383  0.2212
35315POPC   PO469761   3.762  27.342  16.492 -0.2608  0.0706 -0.0933
35315POPC   GL169762   3.913  27.538  16.808 -0.2559 -0.1764  0.0565
35315POPC   GL269763   3.923  27.818  16.666 -0.0139  0.0182  0.1261
35315POPC   C1A69764   3.970  27.437  17.279 -0.1409 -0.0618  0.0089
35315POPC   D2A69765   4.184  27.519  17.713  0.0990  0.0142 -0.0489
35315POPC   C3A69766   4.173  27.772  18.161 -0.1538 -0.2602  0.2425
35315POPC   C4A69767   4.141  27.559  18.524  0.1304 -0.3972  0.0907
35315POPC   C1B69768   4.047  27.926  17.087 -0.1975  0.0929 -0.3427
35315POPC   C2B69769   4.194  27.946  17.563  0.0275  0.0330  0.0089
35315POPC   C3B69770   4.386  28.190  17.956 -0.0996  0.1089  0.3120
35315POPC   C4B69771   4.346  28.437  18.338 -0.0309  0.2119  0.1557
35316POPC   NC369772   1.402  18.289  15.618  0.0018  0.1079  0.1038
35316POPC   PO469773   1.774  18.132  15.747  0.1702  0.0813  0.1381
35316POPC   GL169774   1.722  18.126  16.094  0.3667  0.0112  0.0506
35316POPC   GL269775   1.967  18.251  16.209 -0.0171 -0.0078  0.1821
35316POPC   C1A69776   1.748  17.890  16.516 -0.0265 -0.1731  0.1738
35316POPC   D2A69777   1.896  17.562  16.751 -0.1581 -0.0851  0.0648
35316POPC   C3A69778   1.808  17.615  17.257 -0.0025 -0.1761  0.0089
35316POPC   C4A69779   1.649  17.929  17.594 -0.0050  0.0829  0.0101
35316POPC   C1B69780   1.906  18.326  16.688 -0.3316  0.4438  0.0928
35316POPC   C2B69781   2.135  18.298  17.116 -0.2397 -0.2994  0.1864
35316POPC   C3B69782   2.259  18.418  17.565  0.0009  0.0014 -0.0432
35316POPC   C4B69783   2.582  18.553  17.842  0.0011  0.1884 -0.2119
35317POPC   NC369784  14.157  24.456  13.844  0.0175 -0.0255  0.2854
35317POPC   PO469785  14.050  24.766  14.052  0.0845 -0.2989  0.3016
35317POPC   GL169786  13.702  24.579  13.978  0.1885 -0.0102 -0.5161
35317POPC   GL269787  13.708  24.339  13.887 -0.2530  0.2024  0.0998
35317POPC   C1A69788  13.492  24.346  14.384  0.3277 -0.1460 -0.0070
35317POPC   D2A69789  13.183  23.952  14.421  0.2340 -0.3436 -0.1081
35317POPC   C3A69790  12.947  23.592  14.616 -0.0656  0.3413  0.0947
35317POPC   C4A69791  12.735  23.253  14.878 -0.3962 -0.0161  0.4894
35317POPC   C1B69792  13.307  24.093  13.909 -0.2043 -0.4514  0.2612
35317POPC   C2B69793  13.036  23.769  14.006 -0.2770  0.3739  0.2583
35317POPC   C3B69794  12.873  23.384  14.130  0.1599 -0.2073 -0.0773
35317POPC   C4B69795  12.583  23.189  14.432 -0.0306 -0.0955  0.1981
35318POPC   NC369796   2.605  24.247  15.965 -0.0757 -0.0633 -0.0032
35318POPC   PO469797   2.556  23.905  15.769 -0.0423 -0.0319  0.2021
35318POPC   GL169798   2.685  23.794  16.067 -0.1965  0.0254 -0.0798
35318POPC   GL269799   2.438  23.706  16.233 -0.1607 -0.0122  0.0780
35318POPC   C1A69800   2.951  23.721  16.476  0.0467 -0.1331 -0.0817
35318POPC   D2A69801   3.311  23.813  16.787 -0.2015  0.4661 -0.0250
35318POPC   C3A69802   3.263  23.681  17.269  0.0647  0.3554 -0.1076
35318POPC   C4A69803   3.312  23.498  17.711 -0.1334  0.0617 -0.3011
35318POPC   C1B69804   2.509  23.499  16.636  0.1975  0.0893  0.4551
35318POPC   C2B69805   2.744  23.555  17.032  0.3742 -0.2545 -0.0974
35318POPC   C3B69806   2.803  23.485  17.491  0.1219 -0.2064 -0.1006
35318POPC   C4B69807   2.726  23.250  17.907  0.0685  0.2764  0.1532
35319POPC   NC369808  14.776  20.691  13.237  0.1374 -0.3668  0.0800
35319POPC   PO469809  14.869  20.460  12.912 -0.1684 -0.0624 -0.3342
35319POPC   GL169810  14.527  20.438  12.951  0.3016  0.3737  0.1715
35319POPC   GL269811  14.545  20.292  13.285 -0.0436  0.2438  0.1183
35319POPC   C1A69812  14.071  20.438  13.135 -0.2970 -0.0663  0.0576
35319POPC   D2A69813  13.739  20.541  13.444 -0.2640  0.3962  0.0560
35319POPC   C3A69814  13.354  20.719  13.205  0.1220  0.0774 -0.1013
35319POPC   C4A69815  13.029  20.807  12.874  0.1399  0.1419 -0.2125
35319POPC   C1B69816  14.326  20.672  13.468  0.2287  0.2464  0.3907
35319POPC   C2B69817  14.004  20.972  13.505  0.0040 -0.0187  0.2520
35319POPC   C3B69818  13.549  21.120  13.563 -0.1471  0.2802 -0.1239
35319POPC   C4B69819  13.155  21.253  13.814 -0.0421 -0.0670 -0.1413
35320POPC   NC369820   2.922  26.907  16.561 -0.1943  0.2210 -0.1681
35320POPC   PO469821   2.640  27.085  16.330 -0.3333  0.0120 -0.2437
35320POPC   GL169822   2.279  27.186  16.540 -0.3829  0.2521  0.1088
35320POPC   GL269823   2.369  26.954  16.713  0.2236  0.1737  0.3552
35320POPC   C1A69824   2.106  27.414  16.925 -0.1371 -0.2120  0.0960
35320POPC   D2A69825   1.867  27.651  17.247  0.0901 -0.1356 -0.1050
35320POPC   C3A69826   1.583  27.572  17.601  0.0948 -0.0212  0.3683
35320POPC   C4A69827   1.637  27.598  18.084  0.0714 -0.1396 -0.0030
35320POPC   C1B69828   2.325  27.021  17.146 -0.1044  0.1786 -0.0159
35320POPC   C2B69829   2.178  26.836  17.573  0.1436  0.1884  0.0823
35320POPC   C3B69830   2.052  26.640  17.954 -0.1466 -0.0174  0.1245
35320POPC   C4B69831   1.999  26.350  18.340  0.0841 -0.0354 -0.3974
35321POPC   NC369832   9.150  16.521  14.621 -0.0940  0.1023  0.0296
35321POPC   PO469833   8.902  16.741  14.440  0.0738 -0.1914  0.1726
35321POPC   GL169834   8.727  17.011  14.608  0.2219  0.0918  0.0693
35321POPC   GL269835   8.657  17.040  14.873 -0.0067  0.1792  0.1151
35321POPC   C1A69836   8.913  17.403  14.550  0.2348  0.3087 -0.0827
35321POPC   D2A69837   8.703  17.746  14.817 -0.0452  0.2712  0.2375
35321POPC   C3A69838   9.002  18.053  15.009  0.0698  0.0870 -0.0545
35321POPC   C4A69839   9.351  18.222  15.164  0.0976 -0.0002  0.1554
35321POPC   C1B69840   8.858  17.377  15.110 -0.1777 -0.0980 -0.2658
35321POPC   C2B69841   8.866  17.722  15.356  0.2008 -0.1743  0.3588
35321POPC   C3B69842   9.039  18.110  15.490  0.2862 -0.3325 -0.0107
35321POPC   C4B69843   9.025  18.501  15.781 -0.4039 -0.0568 -0.0021
35322POPC   NC369844   0.272  20.347  15.666  0.1875  0.0026  0.0070
35322POPC   PO469845   0.181  19.983  15.618  0.1748 -0.0394 -0.0286
35322POPC   GL169846   0.179  19.738  15.930  0.1628 -0.5352  0.0080
35322POPC   GL269847   0.280  20.000  16.154 -0.2193 -0.1068  0.1202
35322POPC   C1A69848  -0.017  19.613  16.296 -0.1821  0.0903 -0.3720
35322POPC   D2A69849   0.011  19.540  16.785  0.1025  0.1047  0.1504
35322POPC   C3A69850   0.093  19.881  17.082 -0.0560  0.0177 -0.2120
35322POPC   C4A69851   0.013  20.265  17.298  0.0496  0.0883  0.2923
35322POPC   C1B69852   0.102  20.046  16.559  0.0183  0.2054  0.2775
35322POPC   C2B69853  -0.282  20.113  16.778  0.0039  0.0965  0.1877
35322POPC   C3B69854  -0.550  20.287  17.117 -0.3084  0.0837 -0.1714
35322POPC   C4B69855  -0.719  20.123  17.518  0.2244  0.0014 -0.0745
35323POPC   NC369856   5.051  26.727  15.952 -0.4245 -0.1283 -0.1627
35323POPC   PO469857   5.314  26.669  15.684 -0.1313 -0.0356 -0.0087
35323POPC   GL169858   5.495  26.638  16.065 -0.1371  0.2251 -0.0038
35323POPC   GL269859   5.750  26.495  16.012 -0.1317 -0.2486 -0.1580
35323POPC   C1A69860   5.774  26.845  16.384  0.0081  0.2992  0.4255
35323POPC   D2A69861   5.892  26.638  16.829 -0.3881 -0.0277  0.0439
35323POPC   C3A69862   6.149  26.437  17.113 -0.1350 -0.2438  0.3401
35323POPC   C4A69863   6.331  26.003  17.225  0.1931  0.3039  0.3553
35323POPC   C1B69864   5.745  26.279  16.424 -0.1769 -0.0937 -0.1049
35323POPC   C2B69865   5.606  26.194  16.845 -0.1404  0.2348 -0.0709
35323POPC   C3B69866   5.617  26.291  17.238  0.0124  0.1137 -0.0668
35323POPC   C4B69867   5.603  26.462  17.680  0.0433 -0.2498 -0.2543
35324POPC   NC369868   5.413  28.310  15.698  0.1980  0.0672  0.0853
35324POPC   PO469869   5.401  28.178  16.058  0.1765  0.2718  0.2067
35324POPC   GL169870   5.528  28.031  16.410 -0.3584 -0.0289  0.0436
35324POPC   GL269871   5.394  28.050  16.616  0.1879 -0.0545  0.0350
35324POPC   C1A69872   5.779  27.788  16.756 -0.2760  0.3338  0.0052
35324POPC   D2A69873   6.067  27.781  17.106 -0.0342  0.0552  0.0778
35324POPC   C3A69874   6.133  27.385  17.324 -0.3278 -0.0196  0.0242
35324POPC   C4A69875   6.351  26.961  17.316  0.0932 -0.1102  0.3640
35324POPC   C1B69876   5.279  27.642  16.778 -0.0420  0.1838  0.0037
35324POPC   C2B69877   5.223  27.309  17.124 -0.3848  0.2442 -0.1500
35324POPC   C3B69878   5.360  27.298  17.537 -0.2161 -0.0126 -0.0818
35324POPC   C4B69879   5.576  27.187  17.927  0.0791 -0.0411  0.0692
35325POPC   NC369880  13.348  18.337   9.525  0.0936 -0.1948 -0.1957
35325POPC   PO469881  13.716  18.322   9.397 -0.1425 -0.0471  0.0958
35325POPC   GL169882  13.658  18.510   9.052 -0.1526 -0.0928 -0.0920
35325POPC   GL269883  13.432  18.648   9.114 -0.1176  0.1970  0.1348
35325POPC   C1A69884  13.476  18.398   8.647 -0.1147 -0.1265  0.2548
35325POPC   D2A69885  13.196  18.450   8.271 -0.0786  0.0478 -0.1886
35325POPC   C3A69886  13.052  18.381   7.844  0.1592 -0.1494 -0.1726
35325POPC   C4A69887  13.082  18.259   7.356  0.0556  0.2632 -0.0291
35325POPC   C1B69888  13.343  18.872   8.685 -0.1870 -0.0409  0.2044
35325POPC   C2B69889  13.193  19.211   8.398 -0.2788 -0.1873 -0.0780
35325POPC   C3B69890  12.913  19.475   8.081 -0.3303  0.0228 -0.2389
35325POPC   C4B69891  12.512  19.677   8.009 -0.0008 -0.1488  0.0150
35326POPC   NC369892  10.333  17.548  10.250  0.0132  0.0231 -0.0030
35326POPC   PO469893  10.082  17.396  10.532  0.0423  0.0151 -0.0106
35326POPC   GL169894   9.980  17.746  10.585 -0.0022  0.1058 -0.1475
35326POPC   GL269895  10.193  17.859  10.615 -0.0044 -0.6206 -0.0186
35326POPC   C1A69896   9.811  18.081  10.303 -0.1118 -0.1680  0.1530
35326POPC   D2A69897   9.889  18.487  10.455 -0.0887  0.3748  0.2709
35326POPC   C3A69898  10.145  18.830  10.313 -0.0458  0.2233 -0.0551
35326POPC   C4A69899   9.967  19.253  10.320 -0.0670 -0.0336  0.0217
35326POPC   C1B69900  10.311  18.290  10.547  0.3326 -0.0209  0.0721
35326POPC   C2B69901  10.330  18.684  10.751  0.1347  0.0766  0.0710
35326POPC   C3B69902  10.304  19.165  10.737 -0.3259  0.0135  0.3956
35326POPC   C4B69903  10.490  19.511  10.522  0.0819  0.0752 -0.0585
35327POPC   NC369904   5.840  27.669  16.211 -0.1072 -0.3025  0.3473
35327POPC   PO469905   5.491  27.520  16.081  0.3729  0.2653 -0.0292
35327POPC   GL169906   5.606  27.287  16.401  0.1997  0.3783 -0.2964
35327POPC   GL269907   5.878  27.310  16.598  0.3558  0.3413  0.0577
35327POPC   C1A69908   5.469  26.990  16.721  0.2388 -0.1589  0.1086
35327POPC   D2A69909   5.436  26.831  17.128 -0.0592 -0.0764 -0.1786
35327POPC   C3A69910   5.858  26.948  17.279  0.1034 -0.0901 -0.0466
35327POPC   C4A69911   6.087  27.092  17.720 -0.2548  0.0260 -0.0234
35327POPC   C1B69912   6.242  27.113  16.803 -0.3061 -0.0949  0.0012
35327POPC   C2B69913   6.712  27.080  16.835  0.1591 -0.0924  0.1232
35327POPC   C3B69914   7.015  27.290  17.136 -0.0160  0.1179 -0.3450
35327POPC   C4B69915   7.391  27.095  17.375 -0.0700 -0.1485 -0.2284
35328POPC   NC369916  10.129  28.065  10.665 -0.2361 -0.0262 -0.0087
35328POPC   PO469917  10.323  27.905  10.368 -0.1161  0.1221 -0.1716
35328POPC   GL169918  10.146  27.642  10.200  0.1296  0.4394  0.5114
35328POPC   GL269919  10.313  27.422  10.083 -0.3464  0.2293 -0.0894
35328POPC   C1A69920   9.978  27.295  10.418  0.5342 -0.3138  0.0541
35328POPC   D2A69921   9.579  27.041  10.223  0.0216 -0.3664 -0.0202
35328POPC   C3A69922   9.097  27.115  10.322 -0.1026 -0.1735 -0.0879
35328POPC   C4A69923   8.868  27.435  10.479 -0.0508  0.3977 -0.0509
35328POPC   C1B69924  10.223  26.980  10.032 -0.0195  0.2922 -0.0709
35328POPC   C2B69925  10.108  26.527   9.840 -0.0734 -0.2121  0.0701
35328POPC   C3B69926  10.140  26.249   9.494 -0.1342  0.2549  0.0946
35328POPC   C4B69927  10.169  25.876   9.243  0.0735 -0.2563  0.3471
35329POPC   NC369928   1.800  26.332  16.193 -0.0937 -0.0169  0.0859
35329POPC   PO469929   1.535  26.535  16.404  0.2401  0.0007  0.5129
35329POPC   GL169930   1.420  26.439  16.759 -0.0558  0.0580 -0.0520
35329POPC   GL269931   1.576  26.196  16.790  0.1593  0.1013  0.2551
35329POPC   C1A69932   1.456  26.676  17.141 -0.1958 -0.0356 -0.0444
35329POPC   D2A69933   1.709  26.733  17.538  0.1391 -0.1409 -0.2555
35329POPC   C3A69934   1.418  26.423  17.768 -0.0010  0.1586 -0.1301
35329POPC   C4A69935   1.081  26.215  18.010  0.2311 -0.0009  0.1105
35329POPC   C1B69936   1.669  25.786  16.990 -0.1256 -0.0878 -0.2361
35329POPC   C2B69937   1.670  25.566  17.393  0.0054 -0.0622 -0.2008
35329POPC   C3B69938   1.845  25.653  17.774 -0.1902 -0.1610  0.1400
35329POPC   C4B69939   2.057  25.802  18.084 -0.0812  0.3100  0.2690
35330POPC   NC369940  15.523  29.189  17.152 -0.0461 -0.2599  0.1942
35330POPC   PO469941  15.784  28.886  17.121  0.2125 -0.4081 -0.1030
35330POPC   GL169942  16.007  28.688  17.343  0.1658 -0.2569  0.1339
35330POPC   GL269943  15.919  28.480  17.509  0.2062  0.0381 -0.0235
35330POPC   C1A69944  16.329  28.790  17.694 -0.2206  0.1943  0.1210
35330POPC   D2A69945  16.506  28.808  18.104  0.0529  0.0199  0.0299
35330POPC   C3A69946  16.284  28.699  18.433  0.1498  0.1840  0.1336
35330POPC   C4A69947  16.452  28.666  18.871 -0.0393  0.0321 -0.0586
35330POPC   C1B69948  15.977  28.613  18.009  0.0768 -0.1859 -0.1174
35330POPC   C2B69949  15.878  29.002  18.214  0.1900 -0.2359 -0.0967
35330POPC   C3B69950  15.630  29.370  18.288  0.0175 -0.0457  0.0497
35330POPC   C4B69951  15.611  29.853  18.300 -0.1157  0.2770 -0.0436
35331POPC   NC369952   6.644  31.412  15.618 -0.0040  0.2061  0.0429
35331POPC   PO469953   6.704  31.385  16.010  0.1434 -0.0500 -0.0505
35331POPC   GL169954   6.658  31.531  16.369 -0.1737  0.1269 -0.0712
35331POPC   GL269955   6.817  31.820  16.472  0.2182  0.3668 -0.1075
35331POPC   C1A69956   6.760  31.491  16.821 -0.1980 -0.3261  0.1593
35331POPC   D2A69957   6.837  31.706  17.252 -0.1986  0.0974 -0.0351
35331POPC   C3A69958   7.174  31.978  17.460  0.1832 -0.2337 -0.0380
35331POPC   C4A69959   7.301  32.244  17.793 -0.0145  0.0624 -0.4570
35331POPC   C1B69960   6.810  32.016  16.861 -0.0283  0.0135  0.0321
35331POPC   C2B69961   6.754  32.188  17.288  0.0153 -0.1244  0.1978
35331POPC   C3B69962   6.777  32.412  17.687 -0.0656  0.1081  0.4478
35331POPC   C4B69963   6.601  32.497  18.138  0.0014 -0.1088 -0.0883
35332POPC   NC369964  11.567  16.224  13.848  0.0718 -0.0693  0.0257
35332POPC   PO469965  11.441  16.072  14.177 -0.2291  0.3188  0.1167
35332POPC   GL169966  11.316  16.365  14.444  0.2468  0.0410 -0.0966
35332POPC   GL269967  11.535  16.379  14.699 -0.2841  0.0475  0.1515
35332POPC   C1A69968  11.026  16.356  14.831 -0.0847  0.0683  0.0544
35332POPC   D2A69969  10.907  16.281  15.311 -0.1691 -0.1979 -0.2427
35332POPC   C3A69970  11.092  16.624  15.495  0.2376  0.4638 -0.1313
35332POPC   C4A69971  11.276  17.019  15.428 -0.1954  0.2336  0.0410
35332POPC   C1B69972  11.398  16.773  14.486  0.1378  0.0631  0.0959
35332POPC   C2B69973  11.393  17.270  14.333  0.0062 -0.0494 -0.1134
35332POPC   C3B69974  11.603  17.624  14.562  0.3040 -0.0767  0.2014
35332POPC   C4B69975  11.505  18.049  14.782  0.0471 -0.0050 -0.1902
35333POPC   NC369976   2.141  18.416  15.816 -0.0962 -0.0494 -0.2813
35333POPC   PO469977   2.467  18.250  15.799  0.0229 -0.0335  0.0852
35333POPC   GL169978   2.567  18.565  16.143 -0.1064  0.1298  0.1962
35333POPC   GL269979   2.409  18.434  16.357 -0.1801 -0.0600  0.1872
35333POPC   C1A69980   2.736  18.935  16.372  0.1698  0.0871 -0.1278
35333POPC   D2A69981   2.728  19.164  16.776 -0.1663  0.1076  0.3096
35333POPC   C3A69982   2.880  19.064  17.204  0.1947  0.3011 -0.2491
35333POPC   C4A69983   2.893  18.713  17.492  0.1731  0.0648 -0.0903
35333POPC   C1B69984   2.466  18.709  16.692  0.0924 -0.3862 -0.0387
35333POPC   C2B69985   2.458  18.834  17.184 -0.1421 -0.1724  0.1683
35333POPC   C3B69986   2.436  19.007  17.595  0.0542  0.1791 -0.0293
35333POPC   C4B69987   2.387  19.011  18.068  0.0387 -0.0165 -0.1266
35334POPC   NC369988   5.503  28.574  16.399 -0.1539  0.1919 -0.0289
35334POPC   PO469989   5.710  28.590  16.022  0.3564  0.0368 -0.1227
35334POPC   GL169990   5.880  28.173  16.237 -0.0814  0.0521 -0.1133
35334POPC   GL269991   6.159  28.074  16.430  0.1302  0.4334 -0.1163
35334POPC   C1A69992   5.854  28.295  16.722  0.3547 -0.2186 -0.3520
35334POPC   D2A69993   5.484  28.183  17.054 -0.1680  0.3483 -0.1144
35334POPC   C3A69994   5.518  27.759  17.193 -0.2615  0.1725  0.1866
35334POPC   C4A69995   5.684  27.365  17.049  0.0816  0.0563 -0.2106
35334POPC   C1B69996   6.344  28.103  16.882  0.1590 -0.0651 -0.0241
35334POPC   C2B69997   6.756  28.138  17.085  0.3546 -0.3742  0.1619
35334POPC   C3B69998   7.040  28.114  17.428  0.2666  0.1776 -0.2907
35334POPC   C4B69999   7.014  28.172  17.884 -0.1953 -0.3708 -0.0154
35335POPC   NC370000   9.964  16.384  14.703  0.2681  0.2473 -0.2719
35335POPC   PO470001  10.017  16.622  14.392  0.0429 -0.0239  0.0767
35335POPC   GL170002  10.208  16.786  14.679 -0.2424  0.3083 -0.1665
35335POPC   GL270003  10.042  16.871  14.903  0.3805 -0.0259  0.1469
35335POPC   C1A70004  10.424  17.139  14.805 -0.6398  0.1401 -0.0541
35335POPC   D2A70005  10.289  17.589  14.939 -0.0211 -0.1166 -0.2028
35335POPC   C3A70006  10.276  18.023  15.092  0.1560 -0.0361 -0.1454
35335POPC   C4A70007  10.051  18.358  15.364  0.2604 -0.2176 -0.1990
35335POPC   C1B70008  10.145  17.138  15.222 -0.0958  0.0863 -0.3029
35335POPC   C2B70009  10.355  17.313  15.546 -0.0201  0.0493 -0.0290
35335POPC   C3B70010  10.207  17.513  15.962 -0.0402  0.2951  0.0664
35335POPC   C4B70011   9.937  17.806  16.235  0.2250 -0.0617 -0.0431
35336POPC   NC370012   3.037  25.013  15.955 -0.1200  0.2556 -0.2390
35336POPC   PO470013   2.780  24.733  15.892 -0.0641 -0.1691  0.0055
35336POPC   GL170014   2.905  24.738  16.265 -0.0607 -0.3801  0.4746
35336POPC   GL270015   2.685  24.608  16.400 -0.0947  0.1657  0.2402
35336POPC   C1A70016   2.946  25.120  16.554  0.1990  0.2230 -0.0369
35336POPC   D2A70017   3.240  25.442  16.749 -0.0380 -0.1468 -0.4688
35336POPC   C3A70018   3.455  25.294  17.138 -0.0677  0.0457  0.0894
35336POPC   C4A70019   3.627  25.160  17.560  0.0053  0.0296 -0.2314
35336POPC   C1B70020   2.683  24.800  16.784  0.2560  0.1800 -0.2092
35336POPC   C2B70021   2.965  25.081  17.061  0.0277 -0.2415 -0.3502
35336POPC   C3B70022   3.103  24.964  17.420  0.0134  0.3220  0.0097
35336POPC   C4B70023   3.193  24.923  17.835  0.1240 -0.1851  0.0423
35337POPC   NC370024   5.365  25.253  15.034 -0.1363  0.1379  0.3078
35337POPC   PO470025   5.073  25.527  15.045  0.1499  0.1593 -0.1253
35337POPC   GL170026   5.243  25.686  15.385  0.3791  0.0282  0.1055
35337POPC   GL270027   5.191  25.878  15.621  0.0238  0.0968  0.0640
35337POPC   C1A70028   5.287  25.446  15.764  0.2827 -0.2381  0.1323
35337POPC   D2A70029   5.450  25.205  16.140  0.1227 -0.1697 -0.2514
35337POPC   C3A70030   5.499  25.227  16.606  0.1648  0.1091  0.1002
35337POPC   C4A70031   5.518  24.983  17.026 -0.0512  0.0815 -0.1017
35337POPC   C1B70032   5.071  25.743  16.040 -0.1459 -0.2585  0.1650
35337POPC   C2B70033   5.171  25.561  16.463  0.2052 -0.4767 -0.1045
35337POPC   C3B70034   5.016  25.404  16.856 -0.1706  0.1499  0.1042
35337POPC   C4B70035   5.131  25.242  17.223  0.0969  0.0881 -0.1723
35338POPC   NC370036   7.003  28.797  16.190 -0.2524  0.0779  0.0326
35338POPC   PO470037   7.275  28.520  15.996 -0.1522 -0.0542 -0.3733
35338POPC   GL170038   7.383  28.330  16.229  0.2021  0.2393  0.2015
35338POPC   GL270039   7.095  28.167  16.335 -0.1410  0.1072  0.0414
35338POPC   C1A70040   7.628  28.287  16.619 -0.0223 -0.0509  0.0501
35338POPC   D2A70041   7.863  28.359  17.018  0.1192 -0.1291 -0.0536
35338POPC   C3A70042   7.745  28.311  17.495 -0.1221 -0.0542 -0.0468
35338POPC   C4A70043   7.662  28.087  17.895 -0.0989 -0.2598  0.4995
35338POPC   C1B70044   7.313  27.907  16.599 -0.0024 -0.1248  0.2617
35338POPC   C2B70045   7.088  27.780  16.956 -0.0045 -0.0185  0.1421
35338POPC   C3B70046   7.138  27.664  17.389 -0.0915 -0.2183 -0.3063
35338POPC   C4B70047   7.277  27.781  17.765 -0.1218  0.1612 -0.3233
35339POPC   NC370048   8.033  26.294  14.551  0.1078 -0.2366  0.0194
35339POPC   PO470049   8.053  26.424  14.180 -0.1709 -0.2240 -0.2094
35339POPC   GL170050   8.285  26.134  14.214  0.3287 -0.0173  0.2423
35339POPC   GL270051   8.477  26.067  14.448  0.0921  0.3759 -0.2033
35339POPC   C1A70052   8.417  25.691  14.108 -0.0587 -0.0450  0.3179
35339POPC   D2A70053   8.541  25.208  14.152 -0.1021 -0.0646  0.2404
35339POPC   C3A70054   9.008  25.101  13.999  0.3366 -0.0072  0.0475
35339POPC   C4A70055   9.442  25.027  14.088 -0.0668 -0.2863 -0.4110
35339POPC   C1B70056   8.744  25.653  14.454  0.1201 -0.2190  0.0373
35339POPC   C2B70057   8.662  25.221  14.603  0.1210 -0.0317  0.2868
35339POPC   C3B70058   8.648  24.830  14.814  0.1173  0.2495 -0.0053
35339POPC   C4B70059   8.654  24.441  15.123 -0.2436 -0.2255  0.1538
35340POPC   NC370060  11.198  31.655  15.891  0.1931 -0.1529 -0.2618
35340POPC   PO470061  11.454  31.474  16.025 -0.0842  0.1556 -0.0092
35340POPC   GL170062  11.471  31.723  16.381 -0.0917 -0.3418 -0.2064
35340POPC   GL270063  11.467  31.614  16.691 -0.1947 -0.1287 -0.0819
35340POPC   C1A70064  11.107  31.909  16.625  0.1917 -0.0553 -0.0727
35340POPC   D2A70065  10.644  31.888  16.635 -0.0726 -0.0895  0.0347
35340POPC   C3A70066  10.333  31.678  16.870 -0.2808 -0.2301  0.0859
35340POPC   C4A70067  10.189  31.433  17.317  0.0046 -0.1035  0.0337
35340POPC   C1B70068  11.372  31.825  17.085  0.1205  0.1997  0.1507
35340POPC   C2B70069  11.411  31.807  17.545 -0.1557  0.1370 -0.1090
35340POPC   C3B70070  11.078  31.645  17.835  0.1585 -0.0891 -0.1775
35340POPC   C4B70071  10.918  31.233  17.929 -0.5457 -0.0420  0.1301
35341POPC   NC370072   5.086  18.856  15.071 -0.0595 -0.0382 -0.2757
35341POPC   PO470073   5.241  18.510  14.997 -0.1423 -0.0256 -0.3514
35341POPC   GL170074   5.505  18.732  15.226 -0.1162 -0.5026  0.0061
35341POPC   GL270075   5.530  19.006  15.158 -0.2216 -0.0467 -0.0055
35341POPC   C1A70076   5.745  18.809  15.617  0.0180 -0.0792 -0.1294
35341POPC   D2A70077   5.997  19.000  15.977 -0.0998 -0.0701 -0.3653
35341POPC   C3A70078   6.311  18.753  16.236 -0.0474  0.1704 -0.0600
35341POPC   C4A70079   6.622  18.978  16.447 -0.1223  0.1387  0.0414
35341POPC   C1B70080   5.791  19.297  15.409 -0.1837 -0.1575  0.0007
35341POPC   C2B70081   5.911  19.542  15.847  0.1421  0.1699 -0.0174
35341POPC   C3B70082   5.809  19.670  16.281 -0.1868 -0.0536  0.0218
35341POPC   C4B70083   5.607  20.047  16.411 -0.1672 -0.1155 -0.0674
35342POPC   NC370084  14.713  25.576  16.097 -0.1317 -0.1963 -0.0682
35342POPC   PO470085  14.929  25.414  15.828  0.1857 -0.1196 -0.1016
35342POPC   GL170086  15.111  25.199  16.124  0.1225 -0.1503 -0.1678
35342POPC   GL270087  15.361  25.076  16.079  0.3392 -0.1242 -0.3474
35342POPC   C1A70088  14.728  25.151  16.443 -0.0461  0.1257 -0.1247
35342POPC   D2A70089  14.450  24.982  16.796  0.0754 -0.0842 -0.0195
35342POPC   C3A70090  14.590  24.962  17.263 -0.1479 -0.1478  0.4989
35342POPC   C4A70091  14.382  25.033  17.590  0.0354  0.0507  0.2672
35342POPC   C1B70092  15.587  25.138  16.529  0.1678 -0.2103 -0.1779
35342POPC   C2B70093  15.466  24.993  16.929  0.0502  0.0016  0.1422
35342POPC   C3B70094  15.206  24.972  17.302  0.1305  0.0215 -0.2042
35342POPC   C4B70095  14.908  24.872  17.659 -0.2581  0.0790  0.4497
35343POPC   NC370096   6.412  29.113  16.188  0.0419 -0.2815 -0.2965
35343POPC   PO470097   6.725  29.216  16.352 -0.1700  0.0317  0.0347
35343POPC   GL170098   6.876  29.238  16.694 -0.2443 -0.5084 -0.2746
35343POPC   GL270099   6.702  29.392  16.858  0.0318 -0.0760  0.0231
35343POPC   C1A70100   6.960  28.845  16.887 -0.1905 -0.5520 -0.3525
35343POPC   D2A70101   6.799  28.613  17.288  0.0191  0.1570  0.1777
35343POPC   C3A70102   6.636  28.348  17.616  0.0914  0.1318 -0.4093
35343POPC   C4A70103   6.387  28.091  17.992  0.3861 -0.0629 -0.1540
35343POPC   C1B70104   6.714  29.551  17.318 -0.0974  0.0553  0.0157
35343POPC   C2B70105   6.549  29.826  17.629 -0.0707  0.0130  0.0735
35343POPC   C3B70106   6.658  30.065  17.972  0.2295 -0.0540 -0.2379
35343POPC   C4B70107   6.764  30.143  18.428  0.1824 -0.2872 -0.1354
35344POPC   NC370108   0.590  31.079  16.807  0.1189 -0.0628  0.1762
35344POPC   PO470109   0.935  31.027  16.919  0.1651 -0.0180  0.3118
35344POPC   GL170110   0.746  30.916  17.281 -0.0869  0.0944 -0.3084
35344POPC   GL270111   0.865  30.713  17.336  0.1285  0.2500 -0.0385
35344POPC   C1A70112   0.706  31.260  17.687  0.2952  0.0965 -0.0252
35344POPC   D2A70113   0.852  31.178  18.097 -0.0083 -0.3171  0.1553
35344POPC   C3A70114   0.656  31.523  18.378  0.0019  0.1536  0.1838
35344POPC   C4A70115   0.301  31.673  18.511  0.1112 -0.0228  0.1657
35344POPC   C1B70116   0.916  30.741  17.836  0.1305 -0.2281  0.1312
35344POPC   C2B70117   0.905  30.584  18.296  0.0729 -0.1228  0.4205
35344POPC   C3B70118   0.783  30.461  18.697  0.0479  0.2484 -0.3086
35344POPC   C4B70119   0.782  29.987  18.866 -0.2660  0.1849 -0.0754
35345POPC   NC370120  12.999  28.277  16.493 -0.0141 -0.1349 -0.0772
35345POPC   PO470121  12.671  28.319  16.250  0.0596 -0.1774  0.2497
35345POPC   GL170122  12.521  28.283  16.643  0.1440  0.1083  0.0874
35345POPC   GL270123  12.532  28.517  16.794  0.1213 -0.0232  0.1942
35345POPC   C1A70124  12.686  28.038  16.993  0.0878  0.0182  0.2998
35345POPC   D2A70125  12.886  27.703  17.198 -0.1867  0.3512  0.0292
35345POPC   C3A70126  13.042  27.578  17.618  0.0370  0.0658 -0.0027
35345POPC   C4A70127  13.104  27.516  18.039 -0.0433  0.0271 -0.0014
35345POPC   C1B70128  12.341  28.524  17.165 -0.0193  0.0150 -0.1905
35345POPC   C2B70129  12.385  28.376  17.635 -0.1519 -0.0610  0.0033
35345POPC   C3B70130  12.342  28.380  18.090  0.1170 -0.0224 -0.2815
35345POPC   C4B70131  12.207  28.517  18.506 -0.0396  0.0323 -0.0969
35346POPC   NC370132   7.044  30.606  16.760 -0.1982  0.2760  0.2156
35346POPC   PO470133   6.725  30.642  16.587  0.1908 -0.0553  0.4437
35346POPC   GL170134   6.674  30.819  16.959 -0.0417  0.1219  0.1466
35346POPC   GL270135   6.824  31.034  17.045  0.0300  0.1406 -0.0195
35346POPC   C1A70136   7.020  30.669  17.283  0.2104 -0.1382 -0.0658
35346POPC   D2A70137   7.309  30.740  17.610  0.1936 -0.3271 -0.0707
35346POPC   C3A70138   7.530  31.093  17.799  0.0160  0.0399  0.0120
35346POPC   C4A70139   7.424  31.273  18.184  0.1234 -0.0019 -0.0851
35346POPC   C1B70140   7.086  31.301  17.266  0.1014  0.0449 -0.0935
35346POPC   C2B70141   7.085  31.447  17.685 -0.0894 -0.0444 -0.1816
35346POPC   C3B70142   7.365  31.684  17.931  0.0795 -0.1684  0.0266
35346POPC   C4B70143   7.750  31.613  18.210 -0.1211 -0.4335  0.0212
35347POPC   NC370144   1.502  23.952  16.020 -0.2172  0.1130  0.1393
35347POPC   PO470145   1.652  23.579  15.951  0.1097  0.3965  0.0564
35347POPC   GL170146   1.732  23.676  16.309  0.4597 -0.0123  0.2358
35347POPC   GL270147   1.495  23.567  16.431  0.2754 -0.0606  0.0777
35347POPC   C1A70148   2.094  23.707  16.645  0.1886  0.0989  0.0825
35347POPC   D2A70149   2.271  23.594  17.044 -0.0982  0.0808  0.0353
35347POPC   C3A70150   2.261  23.518  17.526 -0.0650  0.1402  0.0007
35347POPC   C4A70151   2.205  23.361  17.925 -0.0974 -0.3254  0.1796
35347POPC   C1B70152   1.319  23.368  16.859  0.1703 -0.0364  0.1385
35347POPC   C2B70153   1.102  23.276  17.241  0.2973  0.2050 -0.1550
35347POPC   C3B70154   1.145  23.268  17.727  0.5152  0.2738  0.1572
35347POPC   C4B70155   1.302  23.200  18.172  0.1793 -0.0179  0.0105
35348POPC   NC370156  11.528  27.973   9.598 -0.2009  0.0840  0.2679
35348POPC   PO470157  11.811  28.259   9.557 -0.2014 -0.2083 -0.0864
35348POPC   GL170158  11.851  28.009   9.265  0.2350 -0.0556 -0.2641
35348POPC   GL270159  12.134  28.084   9.136 -0.1124 -0.0686  0.2257
35348POPC   C1A70160  11.885  27.547   9.091  0.0704 -0.2491  0.0787
35348POPC   D2A70161  11.622  27.424   8.768  0.1912  0.1007 -0.1478
35348POPC   C3A70162  11.296  27.092   8.756 -0.2189  0.3507  0.0423
35348POPC   C4A70163  11.338  26.640   8.954  0.0201 -0.2514  0.1359
35348POPC   C1B70164  12.248  27.754   8.875  0.3094  0.2117 -0.0858
35348POPC   C2B70165  12.175  27.523   8.440 -0.1597  0.2380 -0.0728
35348POPC   C3B70166  12.168  27.382   8.034  0.3373  0.0016 -0.1211
35348POPC   C4B70167  12.008  27.449   7.653  0.0719 -0.0690  0.4132
35349POPC   NC370168  16.312  21.160  15.361  0.0955 -0.0454  0.2566
35349POPC   PO470169  16.569  21.401  15.542  0.4260 -0.1119  0.0703
35349POPC   GL170170  16.661  21.446  15.894 -0.1664  0.3516 -0.0689
35349POPC   GL270171  16.427  21.538  16.016  0.2408  0.0541  0.1037
35349POPC   C1A70172  16.769  21.797  16.195 -0.0451  0.1823  0.0254
35349POPC   D2A70173  17.042  22.069  16.442 -0.2635 -0.1705  0.1913
35349POPC   C3A70174  17.258  21.929  16.808  0.0739  0.2053 -0.1646
35349POPC   C4A70175  17.368  21.638  17.160 -0.1018  0.0820 -0.2215
35349POPC   C1B70176  16.352  21.782  16.453  0.2653  0.3071  0.0768
35349POPC   C2B70177  16.609  22.009  16.719 -0.4981  0.4788  0.0656
35349POPC   C3B70178  16.875  22.132  17.087  0.1860 -0.0323  0.1438
35349POPC   C4B70179  17.111  21.983  17.426  0.0223  0.1521 -0.1354
35350POPC   NC370180  10.599  28.693   9.622  0.0114 -0.0154 -0.0007
35350POPC   PO470181  10.250  28.486   9.662  0.0692 -0.0948 -0.2637
35350POPC   GL170182  10.000  28.090   9.490 -0.2358 -0.3215  0.3436
35350POPC   GL270183  10.192  27.928   9.446 -0.0252  0.3383 -0.0009
35350POPC   C1A70184   9.801  27.663   9.361 -0.1196 -0.2725  0.0453
35350POPC   D2A70185   9.845  27.258   9.386 -0.1606 -0.0144 -0.0416
35350POPC   C3A70186   9.814  26.996   8.980  0.1476  0.0615  0.1477
35350POPC   C4A70187   9.682  26.551   8.875 -0.0010 -0.0573  0.0156
35350POPC   C1B70188  10.288  27.685   9.143 -0.3527  0.0825  0.1028
35350POPC   C2B70189  10.212  27.285   9.022 -0.0342  0.1218 -0.0142
35350POPC   C3B70190  10.363  26.852   8.968 -0.0653  0.0146  0.1453
35350POPC   C4B70191  10.332  26.433   9.031 -0.0653 -0.0198  0.0130
35351POPC   NC370192  16.179  16.730  16.088  0.2479 -0.0108 -0.0814
35351POPC   PO470193  16.302  16.996  15.768 -0.3458 -0.5204 -0.0965
35351POPC   GL170194  16.195  17.183  16.109 -0.0692  0.0837  0.5830
35351POPC   GL270195  16.095  17.414  15.985  0.1827 -0.0717  0.0006
35351POPC   C1A70196  16.105  17.018  16.566  0.0354 -0.0995  0.2232
35351POPC   D2A70197  16.086  17.181  16.984  0.0312 -0.3527 -0.2697
35351POPC   C3A70198  15.916  17.097  17.491  0.0899 -0.1774  0.0870
35351POPC   C4A70199  15.852  17.164  17.917 -0.3376 -0.1122 -0.2399
35351POPC   C1B70200  15.840  17.412  16.391  0.1922  0.2491 -0.0234
35351POPC   C2B70201  15.636  17.493  16.743  0.2463 -0.2223 -0.0043
35351POPC   C3B70202  15.499  17.482  17.158 -0.1836  0.1725  0.0479
35351POPC   C4B70203  15.618  17.462  17.636  0.0560  0.1072  0.1987
35352POPC   NC370204   6.810  32.259  15.626  0.1178 -0.0625 -0.3271
35352POPC   PO470205   6.569  32.579  15.522  0.0775  0.0918 -0.2076
35352POPC   GL170206   6.606  32.836  15.896  0.5253 -0.0289 -0.2958
35352POPC   GL270207   6.819  32.654  15.944  0.2577  0.2338 -0.0600
35352POPC   C1A70208   6.487  33.134  16.262 -0.1358 -0.0092 -0.2321
35352POPC   D2A70209   6.542  33.332  16.679  0.0090  0.1032 -0.1488
35352POPC   C3A70210   6.880  33.598  16.757  0.1215  0.0675 -0.0494
35352POPC   C4A70211   6.947  33.997  16.917 -0.0679 -0.0866 -0.0549
35352POPC   C1B70212   6.905  32.847  16.379  0.4687  0.1681  0.1196
35352POPC   C2B70213   6.951  33.098  16.809 -0.0687 -0.0783  0.0490
35352POPC   C3B70214   7.007  33.283  17.247 -0.3164 -0.2568 -0.2023
35352POPC   C4B70215   7.117  33.073  17.634  0.1169  0.0087 -0.1877
35353POPC   NC370216  14.660  23.369  13.161 -0.3150  0.0126 -0.0253
35353POPC   PO470217  14.769  23.608  12.867 -0.1372  0.0662 -0.1913
35353POPC   GL170218  14.411  23.766  13.062  0.1116 -0.1929  0.0345
35353POPC   GL270219  14.412  24.010  12.955  0.1925 -0.0054 -0.1312
35353POPC   C1A70220  14.189  23.360  13.132 -0.1876  0.0142  0.0530
35353POPC   D2A70221  13.801  23.113  13.067 -0.0283  0.2266 -0.0762
35353POPC   C3A70222  13.626  22.992  12.613 -0.3668  0.3904  0.3804
35353POPC   C4A70223  13.859  23.117  12.189  0.0023 -0.4043  0.3534
35353POPC   C1B70224  14.000  23.762  12.887  0.2457  0.1192 -0.1695
35353POPC   C2B70225  13.533  23.796  13.051 -0.3062 -0.1915 -0.2246
35353POPC   C3B70226  13.289  23.383  13.127 -0.1149 -0.1325 -0.3134
35353POPC   C4B70227  12.862  23.242  13.106 -0.1134 -0.1060 -0.0056
35354POPC   NC370228  14.106  25.796  13.206 -0.0570  0.1903 -0.1521
35354POPC   PO470229  13.872  26.033  13.018  0.1515  0.0535  0.1573
35354POPC   GL170230  13.545  25.771  13.203 -0.4347  0.0424 -0.1107
35354POPC   GL270231  13.304  25.830  13.024 -0.2796 -0.1526 -0.2641
35354POPC   C1A70232  13.384  25.338  13.109 -0.1822  0.2644  0.0435
35354POPC   D2A70233  13.363  25.023  12.671 -0.0696 -0.2099  0.0051
35354POPC   C3A70234  12.960  24.812  12.640  0.1015  0.1800  0.0082
35354POPC   C4A70235  12.665  24.610  12.362 -0.1072 -0.1822  0.1476
35354POPC   C1B70236  13.240  25.564  12.661 -0.1311  0.1622  0.1655
35354POPC   C2B70237  13.154  25.271  12.319 -0.0078  0.1035  0.1367
35354POPC   C3B70238  12.808  25.039  12.160 -0.2597  0.1823 -0.3982
35354POPC   C4B70239  12.740  24.806  11.763  0.1099  0.1187 -0.4846
35355POPC   NC370240   7.868  16.518  15.098  0.1948 -0.3202 -0.2456
35355POPC   PO470241   7.660  16.770  14.877  0.1428  0.2234  0.3045
35355POPC   GL170242   7.668  17.091  15.067  0.0044  0.1031 -0.1550
35355POPC   GL270243   7.635  17.145  15.357 -0.0763 -0.1900 -0.5601
35355POPC   C1A70244   8.002  17.455  15.173 -0.2506  0.1998  0.2856
35355POPC   D2A70245   8.405  17.542  15.187 -0.1121  0.1369 -0.0509
35355POPC   C3A70246   8.584  17.361  15.560 -0.1332 -0.0664  0.0244
35355POPC   C4A70247   8.761  17.558  15.925  0.0878 -0.2390 -0.0772
35355POPC   C1B70248   7.897  17.427  15.637 -0.0399 -0.1737 -0.0314
35355POPC   C2B70249   8.196  17.627  15.970 -0.2421  0.0746 -0.1181
35355POPC   C3B70250   8.280  17.941  16.314  0.0829  0.1143  0.0133
35355POPC   C4B70251   8.271  18.316  16.541 -0.1120 -0.1487 -0.3281
35356POPC   NC370252   2.769  18.972  15.900 -0.0700  0.4299  0.0076
35356POPC   PO470253   2.481  18.780  15.708  0.0571 -0.2285 -0.2045
35356POPC   GL170254   2.300  18.837  16.052 -0.2135 -0.2319 -0.1470
35356POPC   GL270255   2.318  19.058  16.190  0.2616 -0.4003  0.1787
35356POPC   C1A70256   1.982  18.749  16.418 -0.1993  0.1942  0.2163
35356POPC   D2A70257   1.966  18.822  16.891 -0.0912  0.1230  0.1079
35356POPC   C3A70258   2.002  19.010  17.299 -0.0785 -0.4082  0.0589
35356POPC   C4A70259   2.023  19.234  17.769 -0.1479 -0.0390  0.2298
35356POPC   C1B70260   1.990  19.330  16.455  0.1096 -0.1101 -0.3348
35356POPC   C2B70261   1.958  19.715  16.840  0.0117  0.0147 -0.3964
35356POPC   C3B70262   2.029  20.011  17.202 -0.3159 -0.3397 -0.1685
35356POPC   C4B70263   1.972  20.492  17.113  0.2314  0.4087 -0.1152
35357POPC   NC370264  16.297  21.807  15.376 -0.3556 -0.0776 -0.1479
35357POPC   PO470265  16.252  21.991  15.731  0.3794  0.0247  0.1170
35357POPC   GL170266  15.956  21.758  15.934  0.1971  0.1152 -0.2286
35357POPC   GL270267  15.923  21.874  16.191  0.4216  0.5367 -0.2507
35357POPC   C1A70268  15.932  21.334  16.147 -0.0094  0.0988 -0.1453
35357POPC   D2A70269  15.644  21.188  16.489 -0.3032 -0.1819 -0.1340
35357POPC   C3A70270  15.185  21.137  16.539 -0.1125 -0.0696  0.0659
35357POPC   C4A70271  14.731  21.179  16.502 -0.0781  0.1242  0.0520
35357POPC   C1B70272  15.846  21.680  16.586  0.0942  0.2269 -0.1481
35357POPC   C2B70273  15.489  21.616  16.872 -0.3910  0.3279  0.3579
35357POPC   C3B70274  15.065  21.386  17.046  0.2418 -0.0114 -0.0228
35357POPC   C4B70275  14.887  20.993  16.920  0.2907  0.2292 -0.1977
35358POPC   NC370276   5.516  25.161  14.079  0.1409  0.1020 -0.1514
35358POPC   PO470277   5.467  24.930  14.421  0.0666 -0.2473  0.2682
35358POPC   GL170278   5.766  24.832  14.547  0.0202 -0.0873 -0.3110
35358POPC   GL270279   5.803  25.037  14.806  0.1846  0.1326 -0.0906
35358POPC   C1A70280   6.142  24.661  14.749 -0.5112 -0.4416 -0.2947
35358POPC   D2A70281   6.386  24.332  14.857  0.0815  0.1167  0.0298
35358POPC   C3A70282   6.435  24.036  15.217  0.0380  0.3479  0.1957
35358POPC   C4A70283   6.761  23.629  15.224 -0.0816  0.0388  0.0742
35358POPC   C1B70284   5.977  24.950  15.220  0.0323  0.1400  0.0191
35358POPC   C2B70285   6.133  24.836  15.604  0.1548 -0.4765 -0.0683
35358POPC   C3B70286   6.090  24.546  15.929 -0.0511 -0.2308  0.1577
35358POPC   C4B70287   6.353  24.195  16.122 -0.0945  0.4085 -0.0431
35359POPC   NC370288   6.509  16.613  15.194 -0.0837  0.1170  0.2169
35359POPC   PO470289   6.711  16.884  15.089 -0.2559 -0.1655  0.0049
35359POPC   GL170290   6.886  16.854  15.458  0.1870 -0.1437 -0.0301
35359POPC   GL270291   6.651  16.918  15.604 -0.0172  0.1385 -0.0195
35359POPC   C1A70292   7.153  17.198  15.580 -0.0594 -0.2495  0.1512
35359POPC   D2A70293   7.461  17.427  15.891  0.2438 -0.2147  0.2892
35359POPC   C3A70294   7.522  17.859  16.094  0.1704  0.1503  0.1778
35359POPC   C4A70295   7.670  18.134  16.464 -0.1623  0.0895 -0.0378
35359POPC   C1B70296   6.723  16.861  16.071  0.1866  0.2549  0.0995
35359POPC   C2B70297   6.949  16.896  16.503 -0.2469  0.1704 -0.0882
35359POPC   C3B70298   7.004  17.210  16.791  0.0444 -0.2287 -0.2137
35359POPC   C4B70299   6.849  17.482  17.162 -0.1017 -0.2600 -0.2433
35360POPC   NC370300   0.472  24.843  16.265 -0.1019 -0.0687 -0.1046
35360POPC   PO470301   0.281  25.170  16.100  0.0477  0.3671 -0.1760
35360POPC   GL170302   0.024  25.275  16.489 -0.2328  0.3208  0.4014
35360POPC   GL270303   0.092  25.022  16.538  0.4755 -0.0552 -0.2493
35360POPC   C1A70304  -0.055  25.250  16.960  0.0095  0.0396 -0.0277
35360POPC   D2A70305   0.325  25.124  17.144 -0.3583 -0.1804 -0.3351
35360POPC   C3A70306   0.241  25.035  17.599 -0.1477 -0.2616 -0.4212
35360POPC   C4A70307   0.159  24.700  17.915  0.2364  0.2252 -0.2657
35360POPC   C1B70308  -0.021  24.729  16.897 -0.0227 -0.0534 -0.1212
35360POPC   C2B70309  -0.156  24.672  17.353 -0.3741 -0.0016  0.0900
35360POPC   C3B70310  -0.302  24.678  17.760 -0.1269  0.0327  0.0154
35360POPC   C4B70311  -0.230  24.718  18.187 -0.1581 -0.1406 -0.0388
35361POPC   NC370312  13.369  27.442  16.306  0.0049  0.1444  0.1835
35361POPC   PO470313  13.499  27.104  16.416  0.1354  0.0056  0.0543
35361POPC   GL170314  13.476  27.061  16.882  0.2189  0.1734  0.0266
35361POPC   GL270315  13.244  27.246  16.836 -0.3352 -0.1031  0.0867
35361POPC   C1A70316  13.503  27.121  17.335 -0.0710  0.0112 -0.0659
35361POPC   D2A70317  13.336  27.092  17.759  0.1405 -0.2109  0.1292
35361POPC   C3A70318  12.913  26.949  17.881  0.2181 -0.0441 -0.1123
35361POPC   C4A70319  12.538  26.734  17.982 -0.1599 -0.1374 -0.1363
35361POPC   C1B70320  12.990  27.180  17.254 -0.2027 -0.3173 -0.1720
35361POPC   C2B70321  12.711  26.807  17.385 -0.1062  0.2015  0.1598
35361POPC   C3B70322  12.296  26.719  17.223  0.1594  0.3514  0.2225
35361POPC   C4B70323  11.910  27.039  17.177 -0.1045  0.1590  0.0617
35362POPC   NC370324  15.949  29.350  16.866 -0.0554  0.1298  0.2315
35362POPC   PO470325  15.616  29.558  16.798  0.2710 -0.1477 -0.2881
35362POPC   GL170326  15.570  29.835  17.070 -0.2025 -0.0087 -0.4615
35362POPC   GL270327  15.268  29.871  17.247  0.2317 -0.1304 -0.1543
35362POPC   C1A70328  15.700  29.856  17.489  0.1690 -0.2949 -0.1569
35362POPC   D2A70329  15.818  29.549  17.821 -0.1128 -0.1750 -0.1409
35362POPC   C3A70330  16.060  29.608  18.231 -0.3789  0.0847 -0.0484
35362POPC   C4A70331  16.058  29.788  18.637  0.1025  0.0693  0.1737
35362POPC   C1B70332  15.378  30.235  17.319 -0.1616 -0.0791  0.1254
35362POPC   C2B70333  15.449  30.599  17.641  0.0670 -0.5749  0.0197
35362POPC   C3B70334  15.387  30.724  18.085 -0.1143  0.1434  0.2228
35362POPC   C4B70335  15.390  30.828  18.516  0.0727 -0.3684  0.1871
35363POPC   NC370336   8.402  30.701  15.823 -0.1724  0.0389  0.1747
35363POPC   PO470337   8.051  30.494  15.773  0.0124 -0.1051  0.3009
35363POPC   GL170338   8.116  30.321  16.191  0.1097  0.1359 -0.1027
35363POPC   GL270339   8.346  30.536  16.277  0.1540  0.2773 -0.0226
35363POPC   C1A70340   7.926  30.123  16.540  0.0302  0.0820 -0.1680
35363POPC   D2A70341   7.876  30.093  17.011  0.0089  0.1199  0.2225
35363POPC   C3A70342   7.813  29.743  17.271  0.0185  0.0133  0.1884
35363POPC   C4A70343   8.073  29.378  17.309  0.2137  0.0130 -0.0876
35363POPC   C1B70344   8.270  30.511  16.768  0.0306  0.2404  0.1928
35363POPC   C2B70345   8.036  30.562  17.162  0.1464 -0.1535 -0.2410
35363POPC   C3B70346   8.204  30.586  17.542 -0.4270 -0.0621  0.0247
35363POPC   C4B70347   8.225  30.614  18.000  0.1751  0.1067  0.1231
35364POPC   NC370348   3.340  21.885  14.852  0.1081  0.1455  0.3805
35364POPC   PO470349   3.456  21.531  14.953 -0.0782 -0.3014 -0.2123
35364POPC   GL170350   3.491  21.423  15.319 -0.4406  0.2428 -0.2323
35364POPC   GL270351   3.273  21.306  15.509  0.0922 -0.1822 -0.1674
35364POPC   C1A70352   3.843  21.346  15.617 -0.0137  0.0758 -0.0976
35364POPC   D2A70353   4.138  21.413  15.941 -0.2703 -0.0134 -0.0550
35364POPC   C3A70354   3.998  21.556  16.396 -0.3035 -0.2459  0.0141
35364POPC   C4A70355   4.116  21.512  16.901  0.4085  0.0270  0.0278
35364POPC   C1B70356   3.490  21.308  15.926  0.2738 -0.4403 -0.2613
35364POPC   C2B70357   3.489  21.522  16.331  0.2872  0.4619  0.0893
35364POPC   C3B70358   3.608  21.443  16.746 -0.0534  0.1244  0.1572
35364POPC   C4B70359   3.665  21.327  17.235  0.1253  0.1698  0.2134
35365POPC   NC370360   4.717  31.403   8.793 -0.1236 -0.0389  0.1793
35365POPC   PO470361   4.716  31.037   8.626 -0.1560  0.1252 -0.3230
35365POPC   GL170362   4.691  31.003   8.240  0.2674  0.0421  0.0757
35365POPC   GL270363   4.453  30.886   8.185 -0.0637  0.0377  0.3372
35365POPC   C1A70364   4.880  30.801   7.881 -0.1394 -0.2028 -0.0171
35365POPC   D2A70365   4.802  30.848   7.412 -0.1830 -0.1388  0.0712
35365POPC   C3A70366   4.886  30.868   6.944  0.0137  0.2556 -0.1820
35365POPC   C4A70367   5.010  30.839   6.500  0.2270  0.0032 -0.0920
35365POPC   C1B70368   4.406  30.978   7.701  0.0242 -0.2017 -0.2359
35365POPC   C2B70369   4.344  30.993   7.248 -0.2189  0.0178 -0.0016
35365POPC   C3B70370   4.324  30.815   6.839 -0.3889 -0.0732  0.2505
35365POPC   C4B70371   4.167  30.473   6.578  0.2531  0.1390  0.0005
35366POPC   NC370372  14.807  16.009  15.441  0.0486  0.1634 -0.3539
35366POPC   PO470373  14.485  16.127  15.544 -0.0501 -0.2831 -0.0783
35366POPC   GL170374  14.240  16.196  15.968  0.3125 -0.1386  0.1867
35366POPC   GL270375  14.425  16.267  16.138 -0.1951  0.3427 -0.1643
35366POPC   C1A70376  13.817  16.321  16.071 -0.2094  0.1986  0.1576
35366POPC   D2A70377  13.581  16.686  16.041 -0.2044 -0.1721  0.0533
35366POPC   C3A70378  13.388  16.719  16.452  0.1890  0.0213  0.0814
35366POPC   C4A70379  13.308  16.788  16.900  0.2615  0.0742 -0.0945
35366POPC   C1B70380  14.137  16.346  16.477 -0.1943  0.2592  0.1031
35366POPC   C2B70381  13.915  16.473  16.893 -0.0415 -0.2203 -0.0170
35366POPC   C3B70382  14.176  16.548  17.270  0.2865 -0.0078 -0.0274
35366POPC   C4B70383  14.563  16.701  17.386  0.2876 -0.0843  0.0801
35367POPC   NC370384   2.118  31.581  16.039  0.1479 -0.0940  0.2346
35367POPC   PO470385   2.196  31.670  16.410  0.2375 -0.2397 -0.4245
35367POPC   GL170386   2.384  31.926  16.655 -0.4318  0.2108  0.1077
35367POPC   GL270387   2.195  32.167  16.701 -0.0073 -0.2160 -0.2184
35367POPC   C1A70388   2.402  32.005  17.076  0.0570  0.1024 -0.0249
35367POPC   D2A70389   2.247  32.152  17.522 -0.2047 -0.1161  0.3947
35367POPC   C3A70390   2.032  32.535  17.666  0.0079 -0.1589  0.1066
35367POPC   C4A70391   1.693  32.761  17.860 -0.0118 -0.0040  0.0243
35367POPC   C1B70392   2.105  32.439  17.104 -0.1161  0.0733  0.1820
35367POPC   C2B70393   1.961  32.842  17.284 -0.0783  0.3277 -0.1371
35367POPC   C3B70394   2.108  33.117  17.629 -0.0294  0.0148 -0.3831
35367POPC   C4B70395   1.933  33.477  17.874 -0.1151  0.1166 -0.0127
35368POPC   NC370396   4.046  28.038  16.241  0.3107 -0.0505 -0.1813
35368POPC   PO470397   4.258  28.245  16.484  0.0829 -0.1267  0.0803
35368POPC   GL170398   4.315  28.307  16.883 -0.1873  0.3143 -0.2651
35368POPC   GL270399   4.603  28.458  16.883  0.1805  0.0030 -0.2455
35368POPC   C1A70400   4.074  28.407  17.286 -0.2289 -0.1718  0.2347
35368POPC   D2A70401   3.814  28.520  17.629 -0.0150  0.0450 -0.1293
35368POPC   C3A70402   3.890  28.441  18.069  0.0221 -0.3378 -0.0863
35368POPC   C4A70403   3.934  28.150  18.472  0.0621 -0.0740  0.2441
35368POPC   C1B70404   4.593  28.122  17.197  0.0202  0.0643 -0.0100
35368POPC   C2B70405   4.743  27.995  17.607  0.1284 -0.5873 -0.1186
35368POPC   C3B70406   4.780  27.771  17.982 -0.1623 -0.0992  0.1254
35368POPC   C4B70407   4.637  27.826  18.421  0.0090 -0.1269 -0.1501
35369POPC   NC370408   0.053  29.955  16.788 -0.3202  0.2378 -0.1730
35369POPC   PO470409  -0.335  29.889  16.796  0.1387 -0.0110 -0.0943
35369POPC   GL170410  -0.267  30.050  17.150  0.2250 -0.0597  0.2732
35369POPC   GL270411  -0.083  29.887  17.300 -0.0220  0.3235  0.0325
35369POPC   C1A70412  -0.454  30.253  17.498 -0.0134 -0.2586  0.0138
35369POPC   D2A70413  -0.768  30.193  17.844  0.1965  0.2116 -0.2549
35369POPC   C3A70414  -1.077  29.797  17.817  0.0479  0.1215  0.0036
35369POPC   C4A70415  -1.202  29.433  17.577  0.0016 -0.5213  0.0444
35369POPC   C1B70416  -0.274  29.889  17.762 -0.1002 -0.0402 -0.2007
35369POPC   C2B70417  -0.335  30.133  18.161  0.1601 -0.0139 -0.0241
35369POPC   C3B70418  -0.288  30.445  18.499  0.0039  0.4973 -0.2043
35369POPC   C4B70419  -0.039  30.451  18.894  0.2413  0.2405 -0.1145
35370POPC   NC370420  15.070  21.273  11.906  0.0725 -0.0301 -0.1130
35370POPC   PO470421  14.990  21.316  12.324 -0.1668  0.1434 -0.0803
35370POPC   GL170422  14.612  21.344  12.296  0.0936  0.3887  0.1861
35370POPC   GL270423  14.579  21.546  12.099  0.2695 -0.0341  0.3208
35370POPC   C1A70424  14.165  21.276  12.180 -0.0366 -0.1214  0.1038
35370POPC   D2A70425  13.710  21.212  12.080  0.0505  0.0285 -0.0491
35370POPC   C3A70426  13.342  21.180  12.404 -0.2977 -0.2727 -0.0539
35370POPC   C4A70427  12.874  21.071  12.448  0.0823 -0.0903 -0.1904
35370POPC   C1B70428  14.170  21.731  12.321  0.1091  0.2133  0.2602
35370POPC   C2B70429  13.769  21.995  12.285  0.1777  0.2233  0.1935
35370POPC   C3B70430  13.391  21.857  12.466 -0.1145  0.1967  0.0329
35370POPC   C4B70431  12.945  21.903  12.623  0.0397 -0.0809  0.0353
35371POPC   NC370432   6.373  18.842  12.356 -0.0503 -0.0165  0.0118
35371POPC   PO470433   6.512  19.007  12.004 -0.2817 -0.1916  0.4096
35371POPC   GL170434   6.772  19.343  11.897  0.0698  0.2220  0.1392
35371POPC   GL270435   6.573  19.539  12.028 -0.3532 -0.0603 -0.0975
35371POPC   C1A70436   7.050  19.715  12.042 -0.0134 -0.2755 -0.1634
35371POPC   D2A70437   7.510  19.741  11.970  0.0188  0.0067 -0.2613
35371POPC   C3A70438   7.638  20.084  12.132 -0.0648  0.1033  0.0698
35371POPC   C4A70439   7.695  20.470  12.400 -0.1320  0.0144  0.1647
35371POPC   C1B70440   6.653  19.984  11.899 -0.2965  0.0830  0.1260
35371POPC   C2B70441   6.847  20.365  11.720 -0.0257 -0.1752  0.1567
35371POPC   C3B70442   6.759  20.717  11.408 -0.2651  0.0296  0.1998
35371POPC   C4B70443   6.638  21.022  11.075  0.2299  0.3655 -0.0806
35372POPC   NC370444  13.631  24.863  14.368 -0.2845 -0.2552  0.3266
35372POPC   PO470445  13.868  25.074  14.536 -0.0532 -0.1059 -0.3343
35372POPC   GL170446  13.540  24.943  14.868  0.1391  0.0778  0.4849
35372POPC   GL270447  13.566  24.657  14.899  0.1517  0.1212  0.2733
35372POPC   C1A70448  13.241  25.113  15.141 -0.1081  0.0806 -0.4052
35372POPC   D2A70449  12.881  24.951  15.457 -0.2351  0.0596  0.1380
35372POPC   C3A70450  12.542  24.801  15.782  0.0962 -0.1105  0.2084
35372POPC   C4A70451  12.188  24.788  16.107  0.1281  0.2133  0.2396
35372POPC   C1B70452  13.291  24.250  14.863  0.1222 -0.0158  0.2846
35372POPC   C2B70453  12.952  23.952  14.972  0.0102  0.1117  0.1007
35372POPC   C3B70454  12.701  23.740  15.239  0.0387  0.1495 -0.0144
35372POPC   C4B70455  12.506  23.450  15.529 -0.0756 -0.2925 -0.1950
35373POPC   NC370456   9.681  31.029  16.562 -0.0353 -0.0114 -0.2131
35373POPC   PO470457   9.688  30.695  16.373  0.0970  0.2979  0.1687
35373POPC   GL170458   9.679  30.475  16.633 -0.0213 -0.0320 -0.0081
35373POPC   GL270459   9.930  30.495  16.758  0.0119  0.0381 -0.1874
35373POPC   C1A70460   9.535  30.738  17.039  0.0435 -0.0955  0.0933
35373POPC   D2A70461   9.537  30.729  17.466 -0.1040 -0.0106  0.0464
35373POPC   C3A70462   9.566  30.886  17.923 -0.1582  0.1643 -0.0539
35373POPC   C4A70463   9.361  31.066  18.292 -0.0324 -0.1671  0.1045
35373POPC   C1B70464   9.992  30.543  17.287 -0.0692 -0.3205  0.2819
35373POPC   C2B70465   9.911  30.483  17.746 -0.0807 -0.3376  0.2398
35373POPC   C3B70466   9.934  30.445  18.169  0.1080  0.2600  0.2310
35373POPC   C4B70467  10.027  30.807  18.482  0.2498 -0.1409 -0.2667
35374POPC   NC370468  13.206  26.720  16.225  0.3143  0.1190 -0.0428
35374POPC   PO470469  13.088  26.636  15.863 -0.4184  0.1931  0.0476
35374POPC   GL170470  12.781  26.491  16.106  0.2054  0.0490  0.2066
35374POPC   GL270471  12.535  26.446  16.075 -0.2784 -0.1870 -0.2659
35374POPC   C1A70472  12.878  26.583  16.541  0.0026 -0.1506 -0.1100
35374POPC   D2A70473  13.240  26.744  16.707  0.0123 -0.0810  0.1002
35374POPC   C3A70474  13.208  26.784  17.101 -0.0268  0.1423 -0.1037
35374POPC   C4A70475  13.296  26.688  17.567 -0.0090  0.2527  0.0358
35374POPC   C1B70476  12.328  26.162  16.426 -0.1115 -0.1661 -0.1400
35374POPC   C2B70477  12.239  25.767  16.664 -0.0638  0.1092 -0.0892
35374POPC   C3B70478  12.153  25.292  16.646  0.0214 -0.1167 -0.2508
35374POPC   C4B70479  12.535  25.070  16.455 -0.1499 -0.2207  0.1885
35375POPC   NC370480   9.909  17.230  11.849 -0.0491  0.1624  0.0279
35375POPC   PO470481  10.186  17.490  11.842 -0.2279 -0.1704 -0.1886
35375POPC   GL170482  10.511  17.774  11.816 -0.0202 -0.0480  0.1415
35375POPC   GL270483  10.562  17.799  12.086 -0.0288  0.2129 -0.0752
35375POPC   C1A70484  10.520  18.266  11.771 -0.0934 -0.1139  0.0316
35375POPC   D2A70485  10.415  18.736  11.778  0.2429 -0.1314  0.1668
35375POPC   C3A70486  10.479  19.148  11.596  0.2009  0.4970  0.3403
35375POPC   C4A70487  10.725  19.518  11.596  0.0874 -0.2944  0.1553
35375POPC   C1B70488  10.570  18.133  12.307 -0.0632  0.2462 -0.3738
35375POPC   C2B70489  10.383  18.554  12.301 -0.2876 -0.1050 -0.0143
35375POPC   C3B70490  10.397  19.024  12.349 -0.1770 -0.3417 -0.1666
35375POPC   C4B70491  10.413  19.507  12.373  0.1590  0.2905  0.3604
35376POPC   NC370492  14.018  25.810  15.612 -0.0174  0.0252  0.0946
35376POPC   PO470493  14.248  25.709  15.929 -0.0879  0.0382  0.0311
35376POPC   GL170494  14.152  25.288  16.010  0.1951 -0.2584 -0.1017
35376POPC   GL270495  14.290  25.241  16.225  0.0990  0.0420  0.4138
35376POPC   C1A70496  13.755  25.007  15.927 -0.0334 -0.1168  0.2330
35376POPC   D2A70497  13.293  24.883  15.843  0.1552  0.0711  0.1272
35376POPC   C3A70498  12.991  24.573  15.733 -0.0161  0.2127  0.2328
35376POPC   C4A70499  12.719  24.293  15.993  0.0694 -0.1488  0.2665
35376POPC   C1B70500  14.004  25.035  16.539 -0.1613 -0.1092  0.1490
35376POPC   C2B70501  13.694  25.232  16.807  0.0232 -0.1438  0.0977
35376POPC   C3B70502  13.561  25.259  17.224  0.0576  0.1195  0.1085
35376POPC   C4B70503  13.372  24.948  17.540  0.0755 -0.0654  0.0289
35377POPC   NC370504   2.876  24.600  15.425  0.0155  0.0552 -0.2657
35377POPC   PO470505   3.211  24.730  15.595 -0.0253  0.0662 -0.2835
35377POPC   GL170506   3.201  24.494  15.969 -0.3808 -0.0928  0.0528
35377POPC   GL270507   3.341  24.610  16.206 -0.1190  0.0884  0.0020
35377POPC   C1A70508   3.037  24.226  16.272  0.0023 -0.0713 -0.1960
35377POPC   D2A70509   2.901  24.258  16.712 -0.1488 -0.0080 -0.0218
35377POPC   C3A70510   2.946  24.048  17.149  0.1828 -0.2548  0.0501
35377POPC   C4A70511   2.979  23.924  17.584 -0.3676 -0.2657 -0.3251
35377POPC   C1B70512   3.144  24.688  16.646 -0.0600  0.1305  0.1181
35377POPC   C2B70513   3.165  24.568  17.035 -0.2063 -0.1404 -0.1306
35377POPC   C3B70514   3.046  24.486  17.497 -0.4009  0.1601 -0.0041
35377POPC   C4B70515   2.637  24.387  17.679  0.0915 -0.1793 -0.0897
35378POPC   NC370516   9.728  29.730   9.441 -0.0013 -0.2804 -0.0074
35378POPC   PO470517   9.547  29.489   9.200 -0.0377  0.0879 -0.1401
35378POPC   GL170518   9.438  29.330   8.911 -0.1953 -0.3085 -0.1935
35378POPC   GL270519   9.587  29.385   8.683  0.1944  0.1307  0.0796
35378POPC   C1A70520   9.553  28.913   8.649 -0.1415  0.1908  0.0475
35378POPC   D2A70521   9.681  28.667   8.266  0.2656  0.1685  0.1800
35378POPC   C3A70522   9.389  28.468   7.973  0.0937  0.1479  0.0355
35378POPC   C4A70523   9.003  28.283   7.920  0.2374 -0.2096  0.1302
35378POPC   C1B70524   9.793  29.551   8.304  0.0135 -0.0846 -0.0149
35378POPC   C2B70525   9.706  29.417   7.937  0.1073  0.1025 -0.0040
35378POPC   C3B70526   9.527  29.228   7.507 -0.2826 -0.1625 -0.0219
35378POPC   C4B70527   9.371  28.972   7.216 -0.0024 -0.3096 -0.1037
35379POPC   NC370528  11.937  26.214  14.707  0.3907  0.2115  0.0039
35379POPC   PO470529  12.266  26.350  14.916  0.3769 -0.3673  0.1815
35379POPC   GL170530  12.318  25.971  15.041 -0.1739  0.2152 -0.0131
35379POPC   GL270531  12.308  25.746  14.902 -0.3410 -0.1278 -0.1204
35379POPC   C1A70532  12.264  25.777  15.473 -0.0801 -0.0614 -0.0816
35379POPC   D2A70533  12.395  25.845  15.951  0.1939  0.0162  0.1029
35379POPC   C3A70534  12.003  25.783  16.183 -0.0053 -0.1958 -0.3185
35379POPC   C4A70535  11.778  25.603  16.577 -0.2051 -0.0423 -0.0069
35379POPC   C1B70536  12.056  25.419  15.134  0.1931  0.1007  0.0299
35379POPC   C2B70537  11.834  25.035  15.075  0.0067  0.0380 -0.1780
35379POPC   C3B70538  11.611  24.652  15.172  0.0264  0.3330 -0.0343
35379POPC   C4B70539  11.270  24.476  15.417  0.2791 -0.1221  0.1104
35380POPC   NC370540  13.673  26.052  15.831  0.1254  0.1329 -0.0228
35380POPC   PO470541  14.017  26.190  15.958 -0.0922  0.2675  0.0423
35380POPC   GL170542  13.976  25.885  16.262  0.1664 -0.1234 -0.0169
35380POPC   GL270543  13.721  25.957  16.383  0.1152  0.2387  0.1202
35380POPC   C1A70544  13.764  25.461  16.359  0.1317  0.1333  0.0362
35380POPC   D2A70545  13.490  25.170  16.266  0.1134 -0.1358 -0.0557
35380POPC   C3A70546  13.034  25.322  16.370 -0.0988 -0.0235 -0.2706
35380POPC   C4A70547  12.643  25.618  16.327 -0.1533  0.3296  0.1207
35380POPC   C1B70548  13.880  25.758  16.799  0.0351  0.0778  0.1076
35380POPC   C2B70549  13.794  25.695  17.219  0.0660 -0.0936  0.2851
35380POPC   C3B70550  13.768  25.696  17.705  0.1893 -0.0272  0.0097
35380POPC   C4B70551  13.907  25.708  18.149  0.2588 -0.0447 -0.3495
35381POPC   NC370552  11.122  26.511  14.506 -0.0204  0.0784 -0.1038
35381POPC   PO470553  11.450  26.600  14.582 -0.1215 -0.0293  0.0424
35381POPC   GL170554  11.492  26.394  14.991 -0.0828  0.0922  0.1149
35381POPC   GL270555  11.231  26.524  15.093  0.1044  0.3085  0.1396
35381POPC   C1A70556  11.751  26.040  15.178 -0.1630 -0.0927 -0.2637
35381POPC   D2A70557  11.701  25.682  15.449 -0.0566  0.2844 -0.1618
35381POPC   C3A70558  11.931  25.526  15.783 -0.5662  0.0123  0.1239
35381POPC   C4A70559  12.270  25.344  16.087  0.0285  0.3913  0.0975
35381POPC   C1B70560  11.023  26.588  15.502  0.0574 -0.2153  0.1430
35381POPC   C2B70561  10.738  26.384  15.841  0.2373  0.0428 -0.1643
35381POPC   C3B70562  10.693  25.962  15.953  0.1325  0.2771  0.0417
35381POPC   C4B70563  10.961  25.641  16.106 -0.0316 -0.0200 -0.0595
35382POPC   NC370564  12.816   0.672  15.931 -0.2828  0.0936 -0.2045
35382POPC   PO470565  13.017   0.343  15.799 -0.0136  0.2729  0.0705
35382POPC   GL170566  13.128   0.411  16.103  0.1060  0.2285  0.0058
35382POPC   GL270567  13.290   0.591  16.254 -0.1757  0.4850 -0.4028
35382POPC   C1A70568  12.922   0.354  16.531  0.0075 -0.1341 -0.1505
35382POPC   D2A70569  12.634   0.300  16.852  0.0301  0.2826  0.0607
35382POPC   C3A70570  12.750   0.401  17.287 -0.0011  0.2643  0.0785
35382POPC   C4A70571  13.137   0.376  17.509 -0.4434  0.0993  0.1170
35382POPC   C1B70572  13.180   1.016  16.473 -0.2017  0.1976  0.0367
35382POPC   C2B70573  13.103   1.185  16.878 -0.0344 -0.4165 -0.0388
35382POPC   C3B70574  12.896   1.308  17.278  0.0456  0.0923  0.0459
35382POPC   C4B70575  12.928   1.102  17.681 -0.0525 -0.0091 -0.0339
35383POPC   NC370576   1.902  19.915  14.995  0.0097 -0.1043 -0.1432
35383POPC   PO470577   1.689  19.947  15.344 -0.1342  0.2184 -0.2440
35383POPC   GL170578   1.580  19.858  15.738  0.0591 -0.1361  0.0621
35383POPC   GL270579   1.570  19.650  15.904  0.2697  0.0714  0.2965
35383POPC   C1A70580   1.728  20.177  16.071  0.0812 -0.3157  0.0721
35383POPC   D2A70581   1.876  20.420  16.459 -0.3923 -0.1781 -0.1774
35383POPC   C3A70582   2.243  20.222  16.707  0.2184  0.1736 -0.2865
35383POPC   C4A70583   2.434  19.869  16.967  0.0178 -0.2748 -0.2557
35383POPC   C1B70584   1.279  19.767  16.254 -0.2459  0.1420  0.0666
35383POPC   C2B70585   1.070  19.740  16.690 -0.0643 -0.1136  0.1327
35383POPC   C3B70586   1.028  19.471  17.091  0.2187 -0.0368  0.0838
35383POPC   C4B70587   1.099  19.101  17.330  0.0319  0.0489  0.0941
35384POPC   NC370588   5.779  29.225  16.797 -0.3288 -0.2812 -0.0705
35384POPC   PO470589   5.457  29.090  16.628 -0.2402 -0.0194  0.0089
35384POPC   GL170590   5.371  28.717  16.833  0.0300 -0.1499 -0.2040
35384POPC   GL270591   5.146  28.496  16.755  0.1764  0.1102 -0.2140
35384POPC   C1A70592   5.464  28.644  17.272 -0.1204 -0.1545  0.1184
35384POPC   D2A70593   5.716  28.409  17.534  0.0096  0.0635 -0.0793
35384POPC   C3A70594   5.689  28.021  17.642  0.3582  0.4666  0.0898
35384POPC   C4A70595   5.766  27.577  17.544  0.0168  0.1715 -0.2766
35384POPC   C1B70596   5.056  28.324  17.197  0.0151 -0.2063  0.3376
35384POPC   C2B70597   5.250  28.263  17.591  0.0330 -0.0209  0.1996
35384POPC   C3B70598   5.086  28.201  18.019 -0.2380 -0.2301 -0.0985
35384POPC   C4B70599   5.123  27.934  18.369 -0.1131  0.0227  0.2359
35385POPC   NC370600  11.195  28.368  16.451 -0.0603  0.1790  0.1495
35385POPC   PO470601  11.243  28.097  16.200 -0.2037  0.1634  0.3084
35385POPC   GL170602  11.345  27.929  16.497  0.1707 -0.0465 -0.1041
35385POPC   GL270603  11.330  27.588  16.576  0.1293  0.1410 -0.1145
35385POPC   C1A70604  11.293  27.921  16.935 -0.1761 -0.0712  0.0252
35385POPC   D2A70605  11.119  28.104  17.279  0.0987 -0.0744  0.1351
35385POPC   C3A70606  10.813  28.003  17.573  0.0297  0.1498 -0.3788
35385POPC   C4A70607  10.575  27.944  17.947  0.3256  0.0340 -0.0874
35385POPC   C1B70608  11.082  27.408  16.992 -0.1481 -0.0689  0.2510
35385POPC   C2B70609  10.809  27.182  17.185  0.0627  0.2480 -0.0044
35385POPC   C3B70610  10.712  26.851  17.502 -0.1427  0.2097 -0.2302
35385POPC   C4B70611  10.321  26.669  17.661 -0.0010 -0.1602  0.0556
35386POPC   NC370612   3.172  26.228  15.972  0.0840  0.0846  0.0863
35386POPC   PO470613   3.003  25.923  15.779  0.4620 -0.1467 -0.0554
35386POPC   GL170614   3.224  25.875  16.194  0.2479 -0.0712 -0.2914
35386POPC   GL270615   3.346  25.605  16.236  0.0715 -0.1053 -0.0334
35386POPC   C1A70616   2.941  25.793  16.579 -0.2474 -0.0690  0.0164
35386POPC   D2A70617   3.065  25.872  17.006 -0.0002 -0.1538  0.2670
35386POPC   C3A70618   3.476  25.795  17.113  0.2203  0.1005  0.0218
35386POPC   C4A70619   3.674  25.647  17.513  0.0230 -0.0725 -0.0250
35386POPC   C1B70620   3.694  25.417  16.478  0.1343 -0.2836 -0.2424
35386POPC   C2B70621   4.021  25.077  16.674  0.0119 -0.0344 -0.1545
35386POPC   C3B70622   4.202  24.854  17.048  0.1289 -0.1432  0.1105
35386POPC   C4B70623   4.159  24.710  17.500 -0.3698  0.3022 -0.5322
35387POPC   NC370624  12.118  29.407  16.673  0.0201  0.2121 -0.1714
35387POPC   PO470625  11.776  29.371  16.422 -0.0371 -0.2298 -0.1379
35387POPC   GL170626  11.700  29.492  16.758  0.0446  0.1230 -0.3761
35387POPC   GL270627  11.800  29.295  17.012  0.1340 -0.0601  0.0568
35387POPC   C1A70628  11.597  29.846  17.049  0.1781  0.3229  0.0294
35387POPC   D2A70629  11.258  29.925  17.335  0.0823  0.0226 -0.1854
35387POPC   C3A70630  11.133  29.790  17.738 -0.1234  0.1231  0.2238
35387POPC   C4A70631  11.079  29.676  18.209 -0.4223 -0.1029  0.2599
35387POPC   C1B70632  12.016  29.302  17.463 -0.0867 -0.0423  0.0114
35387POPC   C2B70633  11.951  29.504  17.869  0.2006  0.1629 -0.0950
35387POPC   C3B70634  12.014  29.471  18.342  0.1267  0.0709 -0.0497
35387POPC   C4B70635  11.782  29.527  18.706 -0.0300 -0.2040 -0.0457
35388POPC   NC370636   1.323  18.359  16.101 -0.1284 -0.1391 -0.1001
35388POPC   PO470637   1.573  18.642  15.918 -0.1921  0.1586  0.0980
35388POPC   GL170638   1.410  18.852  16.226  0.2577  0.3717  0.1518
35388POPC   GL270639   1.108  18.788  16.370  0.1016  0.2277  0.1107
35388POPC   C1A70640   1.545  19.020  16.626 -0.1435 -0.3193  0.0115
35388POPC   D2A70641   1.521  19.169  17.000  0.0844  0.2038  0.0856
35388POPC   C3A70642   1.762  19.502  17.204  0.1746 -0.0256 -0.1812
35388POPC   C4A70643   1.854  19.691  17.614  0.0771 -0.0206  0.1893
35388POPC   C1B70644   1.428  18.521  16.563  0.1103 -0.1447  0.1741
35388POPC   C2B70645   1.548  18.603  16.993  0.1935  0.0196 -0.1325
35388POPC   C3B70646   1.543  18.885  17.377 -0.1756  0.0884 -0.0622
35388POPC   C4B70647   1.577  19.258  17.625  0.1383 -0.0445 -0.0037
35389POPC   NC370648   8.887  26.539  13.363  0.1411  0.1853 -0.1039
35389POPC   PO470649   8.530  26.427  13.476 -0.0362 -0.1069 -0.1456
35389POPC   GL170650   8.669  26.034  13.720 -0.1672  0.2838  0.3268
35389POPC   GL270651   8.433  25.833  13.607 -0.0888  0.1864 -0.1492
35389POPC   C1A70652   8.863  25.641  13.935 -0.0297  0.1871  0.0389
35389POPC   D2A70653   9.287  25.503  13.891 -0.0203 -0.3667 -0.2364
35389POPC   C3A70654   9.740  25.443  13.727  0.0048 -0.3442  0.0082
35389POPC   C4A70655  10.066  25.174  13.962  0.3457 -0.0838  0.0713
35389POPC   C1B70656   8.494  25.374  13.652  0.2385 -0.1587  0.1522
35389POPC   C2B70657   8.657  24.905  13.688 -0.1077 -0.0258  0.0138
35389POPC   C3B70658   8.615  24.443  13.775  0.0224 -0.1535 -0.0913
35389POPC   C4B70659   8.489  24.021  13.942 -0.1425 -0.0102 -0.0731
35390POPC   NC370660   3.426  17.873  16.135  0.2767  0.0375  0.1894
35390POPC   PO470661   3.731  17.849  15.914  0.1346  0.1963 -0.2038
35390POPC   GL170662   4.008  17.978  16.182 -0.0349  0.5131 -0.2756
35390POPC   GL270663   3.793  18.116  16.333  0.0245 -0.5716 -0.2196
35390POPC   C1A70664   4.381  18.046  16.493  0.2010 -0.2391 -0.1158
35390POPC   D2A70665   4.400  17.705  16.789  0.0411  0.1697 -0.1850
35390POPC   C3A70666   4.206  17.791  17.168 -0.3137  0.1994 -0.0659
35390POPC   C4A70667   4.532  17.687  17.511  0.2907  0.2139  0.1305
35390POPC   C1B70668   4.081  18.465  16.549  0.1062  0.2213 -0.2384
35390POPC   C2B70669   4.374  18.437  16.958  0.1248  0.1522 -0.0320
35390POPC   C3B70670   4.810  18.554  17.046 -0.1445 -0.3392  0.1997
35390POPC   C4B70671   5.203  18.571  17.280  0.0401 -0.0178 -0.2969
35391POPC   NC370672   6.444  25.440  14.319 -0.3059  0.2165  0.0883
35391POPC   PO470673   6.341  25.183  14.004  0.0219 -0.0364 -0.0070
35391POPC   GL170674   6.682  25.066  13.990 -0.0731 -0.3269 -0.1725
35391POPC   GL270675   6.851  25.376  14.036 -0.1004 -0.1548 -0.0475
35391POPC   C1A70676   6.923  24.944  14.364 -0.1303  0.0902  0.0080
35391POPC   D2A70677   7.251  24.707  14.633  0.3292 -0.2424  0.2297
35391POPC   C3A70678   7.264  24.485  15.011  0.0302 -0.0693 -0.0529
35391POPC   C4A70679   7.495  24.241  15.329  0.2738  0.1596  0.2731
35391POPC   C1B70680   7.076  25.376  14.390 -0.0292 -0.1431 -0.0698
35391POPC   C2B70681   7.313  25.191  14.771 -0.0701  0.3981 -0.0963
35391POPC   C3B70682   7.438  24.934  15.146  0.1582  0.0803  0.3679
35391POPC   C4B70683   7.670  24.727  15.435 -0.3008  0.1049  0.0397
35392POPC   NC370684   6.668  26.091  11.643 -0.6016 -0.2037  0.0951
35392POPC   PO470685   6.474  25.905  11.331 -0.3109 -0.0959 -0.1377
35392POPC   GL170686   6.788  25.711  11.309  0.0087 -0.0420  0.3421
35392POPC   GL270687   6.753  25.424  11.356  0.6281  0.2104 -0.0479
35392POPC   C1A70688   7.179  25.738  11.004 -0.0433  0.0960 -0.4203
35392POPC   D2A70689   7.424  25.478  10.702 -0.0266  0.2697  0.1786
35392POPC   C3A70690   7.564  25.728  10.343  0.0674 -0.1001 -0.0188
35392POPC   C4A70691   7.773  25.738   9.953 -0.2137 -0.0044 -0.2309
35392POPC   C1B70692   7.110  25.233  11.155  0.1032 -0.2961  0.3090
35392POPC   C2B70693   7.396  25.036  10.854 -0.1682  0.0162  0.0052
35392POPC   C3B70694   7.690  24.947  10.510  0.1483  0.1129  0.3644
35392POPC   C4B70695   7.980  24.918  10.164  0.0760 -0.0814  0.0142
35393POPC   NC370696   0.157  28.975  16.761  0.1095 -0.0569 -0.0164
35393POPC   PO470697   0.049  28.613  16.888  0.0750  0.0761  0.1279
35393POPC   GL170698   0.385  28.636  17.114 -0.3437 -0.2359 -0.2991
35393POPC   GL270699   0.648  28.690  17.152  0.1091 -0.1216 -0.0003
35393POPC   C1A70700   0.379  28.470  17.589  0.1895 -0.1193  0.0635
35393POPC   D2A70701   0.441  28.338  17.986 -0.3630  0.0874  0.0123
35393POPC   C3A70702   0.268  27.919  18.119 -0.3983  0.1670 -0.1227
35393POPC   C4A70703   0.212  27.655  18.480  0.0406  0.2014  0.0827
35393POPC   C1B70704   0.856  28.956  17.518 -0.1440 -0.1508  0.1768
35393POPC   C2B70705   0.958  29.206  17.900 -0.1583 -0.5758 -0.1224
35393POPC   C3B70706   1.208  29.352  18.280  0.1041 -0.2355  0.4364
35393POPC   C4B70707   1.509  29.458  18.676  0.2405  0.1220 -0.2261
35394POPC   NC370708  14.954  15.711  15.867 -0.4202 -0.2968 -0.1511
35394POPC   PO470709  14.818  15.326  15.971  0.4191 -0.0914 -0.3025
35394POPC   GL170710  14.675  15.536  16.271 -0.3669 -0.2322 -0.1097
35394POPC   GL270711  14.506  15.735  16.091  0.1882 -0.1366  0.0607
35394POPC   C1A70712  14.855  15.512  16.660  0.0429 -0.2754 -0.0039
35394POPC   D2A70713  14.959  15.337  17.085 -0.4204  0.4182  0.2844
35394POPC   C3A70714  14.966  15.393  17.540  0.3004 -0.0854 -0.1858
35394POPC   C4A70715  14.683  15.188  17.858 -0.1665 -0.0913  0.1272
35394POPC   C1B70716  14.540  15.956  16.567 -0.1960  0.2951 -0.0694
35394POPC   C2B70717  14.271  16.019  16.962  0.2223  0.1292  0.1007
35394POPC   C3B70718  13.881  16.082  17.269 -0.2360 -0.2180 -0.2994
35394POPC   C4B70719  13.477  16.058  17.484  0.4412  0.0008 -0.1805
35395POPC   NC370720  14.177  27.580  16.242  0.0715  0.1110 -0.1011
35395POPC   PO470721  13.980  27.269  16.271  0.1761 -0.1455  0.3272
35395POPC   GL170722  14.078  27.070  16.656 -0.0951 -0.3533 -0.0056
35395POPC   GL270723  13.869  26.848  16.697 -0.2208 -0.1953  0.0611
35395POPC   C1A70724  13.990  27.123  17.099  0.0144  0.1449 -0.1688
35395POPC   D2A70725  14.284  27.063  17.472 -0.4187 -0.0993 -0.1146
35395POPC   C3A70726  14.650  26.983  17.736  0.1055  0.2114 -0.1926
35395POPC   C4A70727  14.786  26.781  18.114 -0.0089  0.2056  0.2444
35395POPC   C1B70728  13.772  26.636  17.129  0.2047  0.4055 -0.1001
35395POPC   C2B70729  13.825  26.748  17.555 -0.0887 -0.2191  0.0606
35395POPC   C3B70730  13.600  26.664  17.990  0.0603 -0.0810 -0.3196
35395POPC   C4B70731  13.337  26.906  18.268  0.2230 -0.1318 -0.4040
35396POPC   NC370732   9.049  28.119  16.102  0.2777  0.1499  0.1431
35396POPC   PO470733   9.058  27.784  15.900 -0.1648 -0.1293  0.1202
35396POPC   GL170734   9.145  27.386  16.062  0.3421  0.2814 -0.1899
35396POPC   GL270735   8.883  27.321  15.992 -0.1887  0.2622 -0.0426
35396POPC   C1A70736   9.145  26.979  16.311 -0.0941 -0.1645  0.2909
35396POPC   D2A70737   9.119  26.712  16.680  0.0363  0.1962  0.1155
35396POPC   C3A70738   8.882  26.449  16.953  0.0863  0.1019  0.0561
35396POPC   C4A70739   8.659  26.362  17.268  0.0945 -0.0972 -0.0735
35396POPC   C1B70740   8.747  26.844  16.074 -0.0505  0.0024 -0.0043
35396POPC   C2B70741   8.600  26.597  16.403 -0.0067  0.1871 -0.0472
35396POPC   C3B70742   8.455  26.730  16.773  0.1512  0.2755 -0.0170
35396POPC   C4B70743   8.306  27.068  16.945  0.1823  0.2070  0.0544
35397POPC   NC370744  15.713  23.982  15.537  0.2679  0.2387  0.1159
35397POPC   PO470745  15.861  24.338  15.584 -0.2000  0.0001 -0.4176
35397POPC   GL170746  15.618  24.351  15.938 -0.3073  0.4031  0.0072
35397POPC   GL270747  15.393  24.203  15.917 -0.2167 -0.2125  0.0675
35397POPC   C1A70748  15.770  24.111  16.317  0.2765  0.0888  0.0222
35397POPC   D2A70749  15.810  23.843  16.664  0.0455 -0.1737 -0.0294
35397POPC   C3A70750  15.821  23.804  17.158 -0.2718 -0.0488  0.1306
35397POPC   C4A70751  15.850  23.701  17.630  0.0842  0.0177  0.1937
35397POPC   C1B70752  15.031  23.964  16.131  0.0572  0.3152  0.0071
35397POPC   C2B70753  14.998  23.494  16.273 -0.3354  0.0232  0.0542
35397POPC   C3B70754  14.983  23.227  16.630 -0.4256  0.0399  0.1688
35397POPC   C4B70755  15.175  23.054  16.978 -0.3205  0.2806  0.1484
35398POPC   NC370756  15.949  26.046  16.466 -0.3268  0.0752 -0.0043
35398POPC   PO470757  15.843  26.375  16.289  0.0661 -0.0823  0.0168
35398POPC   GL170758  15.920  26.467  16.695 -0.1588  0.2774  0.0553
35398POPC   GL270759  15.660  26.427  16.782 -0.0182 -0.0168  0.0896
35398POPC   C1A70760  16.134  26.355  17.051  0.1034  0.0274  0.1856
35398POPC   D2A70761  16.112  26.245  17.467  0.0292 -0.0554 -0.0567
35398POPC   C3A70762  16.369  25.959  17.689 -0.0215  0.0687  0.2742
35398POPC   C4A70763  16.707  25.618  17.781  0.0008  0.4350 -0.1309
35398POPC   C1B70764  15.758  26.011  16.969 -0.0652 -0.1091 -0.1509
35398POPC   C2B70765  15.515  25.632  17.004 -0.1434  0.0247  0.1252
35398POPC   C3B70766  15.477  25.393  17.342  0.1866 -0.0838 -0.0535
35398POPC   C4B70767  15.329  25.343  17.735  0.0544 -0.0755  0.1028
35399POPC   NC370768   6.104  19.384  11.880  0.0267 -0.0080  0.0021
35399POPC   PO470769   5.984  19.689  12.142  0.2206  0.1672 -0.0970
35399POPC   GL170770   6.266  19.974  12.240  0.0272 -0.0432  0.3516
35399POPC   GL270771   6.340  19.840  12.432  0.1048 -0.1959  0.3890
35399POPC   C1A70772   6.491  20.429  12.151 -0.1660 -0.2961 -0.0424
35399POPC   D2A70773   6.853  20.620  12.335 -0.0240 -0.0670  0.0632
35399POPC   C3A70774   7.211  20.546  12.603  0.0614  0.0294  0.1502
35399POPC   C4A70775   7.544  20.449  12.918  0.1068  0.2333 -0.0078
35399POPC   C1B70776   6.766  20.093  12.504  0.1070  0.0149 -0.1054
35399POPC   C2B70777   7.124  20.232  12.272 -0.2110  0.2526  0.2290
35399POPC   C3B70778   7.310  20.524  12.057 -0.1203  0.1813  0.0911
35399POPC   C4B70779   7.791  20.620  11.908  0.0630 -0.1687 -0.2978
35400POPC   NC370780   2.174  29.721  16.794  0.0462 -0.2896 -0.1153
35400POPC   PO470781   1.803  29.780  16.708 -0.4107 -0.0214  0.0586
35400POPC   GL170782   1.837  29.710  17.092 -0.0753 -0.0243  0.0724
35400POPC   GL270783   1.938  29.975  17.153 -0.1434 -0.0008  0.0485
35400POPC   C1A70784   1.791  29.346  17.308 -0.0775 -0.1433 -0.1119
35400POPC   D2A70785   1.951  28.980  17.387  0.0650  0.0918 -0.1859
35400POPC   C3A70786   1.817  28.716  17.790  0.1630  0.0980 -0.0801
35400POPC   C4A70787   1.625  29.099  18.051  0.1300  0.2842 -0.0108
35400POPC   C1B70788   1.985  29.734  17.548  0.0375  0.0013 -0.0742
35400POPC   C2B70789   2.012  29.345  17.840  0.0106 -0.1677  0.2748
35400POPC   C3B70790   2.219  29.001  18.047 -0.0725 -0.0021 -0.1072
35400POPC   C4B70791   2.338  28.845  18.511  0.1496 -0.0931  0.1275
35401POPC   NC370792   0.145  23.749  15.869 -0.1613  0.2097  0.1434
35401POPC   PO470793   0.319  24.093  15.863  0.1546 -0.3143  0.3600
35401POPC   GL170794   0.235  23.978  16.228 -0.0658 -0.0941 -0.0947
35401POPC   GL270795   0.466  23.905  16.311  0.1632  0.0980  0.1673
35401POPC   C1A70796   0.171  24.102  16.639 -0.0634 -0.5186 -0.1584
35401POPC   D2A70797  -0.036  24.212  17.080  0.0724 -0.1892  0.1920
35401POPC   C3A70798  -0.072  23.845  17.360  0.0760  0.0007  0.2728
35401POPC   C4A70799  -0.248  23.440  17.355  0.2907 -0.0614 -0.1269
35401POPC   C1B70800   0.282  23.529  16.477 -0.2936 -0.2575  0.1732
35401POPC   C2B70801   0.316  23.277  16.877 -0.2918  0.1510 -0.0508
35401POPC   C3B70802   0.222  23.084  17.347 -0.0755  0.0816  0.1951
35401POPC   C4B70803   0.129  23.115  17.807 -0.0325 -0.1478  0.2093
35402POPC   NC370804   5.148  22.210  11.860  0.0668  0.0471  0.3991
35402POPC   PO470805   5.140  22.619  11.778 -0.2974 -0.1033 -0.0394
35402POPC   GL170806   5.318  22.558  11.516 -0.3485  0.1397 -0.1189
35402POPC   GL270807   5.286  22.971  11.505  0.0393 -0.0638 -0.2029
35402POPC   C1A70808   5.502  22.296  11.209 -0.0631  0.1052 -0.2970
35402POPC   D2A70809   5.850  21.979  11.050  0.3641  0.0749  0.1175
35402POPC   C3A70810   6.116  21.917  10.646 -0.0564  0.0666  0.0007
35402POPC   C4A70811   6.583  21.997  10.523 -0.1870 -0.0024 -0.2226
35402POPC   C1B70812   5.609  22.901  11.252  0.1403 -0.2481  0.4069
35402POPC   C2B70813   6.038  23.008  11.112  0.0163 -0.2016  0.1463
35402POPC   C3B70814   6.391  22.916  10.804  0.0215  0.1085 -0.2497
35402POPC   C4B70815   6.740  22.928  10.501  0.0413 -0.0398 -0.1184
35403POPC   NC370816   8.301  27.801  10.891  0.0800  0.0307 -0.0273
35403POPC   PO470817   8.275  28.021  10.535  0.1354 -0.3323 -0.2164
35403POPC   GL170818   8.287  27.892  10.134 -0.2785  0.2781 -0.0108
35403POPC   GL270819   8.586  27.800   9.975 -0.0998  0.1219  0.3869
35403POPC   C1A70820   8.110  27.521   9.903 -0.1113  0.2267  0.1353
35403POPC   D2A70821   7.822  27.191   9.875 -0.1070 -0.0825  0.0117
35403POPC   C3A70822   7.806  26.718   9.744 -0.2052  0.0518  0.0351
35403POPC   C4A70823   7.911  26.456   9.426  0.2779  0.0689  0.1721
35403POPC   C1B70824   8.762  27.485   9.647 -0.0512  0.0739  0.2421
35403POPC   C2B70825   8.950  27.142   9.364 -0.0258  0.2700 -0.0585
35403POPC   C3B70826   8.901  26.874   8.992 -0.0782  0.0416 -0.1314
35403POPC   C4B70827   9.037  26.576   8.645 -0.0827  0.1230  0.4189
35404POPC   NC370828   8.728  27.026  15.172 -0.2280 -0.0753  0.0080
35404POPC   PO470829   8.904  27.269  15.416 -0.3049  0.0920 -0.0388
35404POPC   GL170830   8.678  26.850  15.582 -0.1881 -0.0792 -0.3012
35404POPC   GL270831   8.976  26.753  15.656  0.2488  0.0873 -0.0663
35404POPC   C1A70832   8.399  26.590  15.886  0.1418 -0.0353 -0.1289
35404POPC   D2A70833   8.359  26.194  16.179 -0.0991 -0.1287 -0.2259
35404POPC   C3A70834   8.581  26.095  16.590  0.0432  0.0084  0.0226
35404POPC   C4A70835   8.279  25.774  16.733 -0.2557 -0.0046  0.0056
35404POPC   C1B70836   9.282  26.586  16.030  0.2073  0.1340  0.0031
35404POPC   C2B70837   9.566  26.345  16.375 -0.1650  0.1390  0.0554
35404POPC   C3B70838   9.761  25.943  16.546 -0.0065  0.0531 -0.0055
35404POPC   C4B70839  10.094  25.700  16.731  0.2688  0.0619 -0.3873
35405POPC   NC370840   8.565  26.435  13.951  0.0496  0.0820  0.3704
35405POPC   PO470841   8.874  26.265  14.151 -0.1519 -0.1219  0.0842
35405POPC   GL170842   9.049  26.048  14.406 -0.1339 -0.1064 -0.2755
35405POPC   GL270843   9.198  25.862  14.255  0.0941 -0.0587  0.2113
35405POPC   C1A70844   9.162  25.788  14.805 -0.0066 -0.0097 -0.3326
35405POPC   D2A70845   9.124  25.348  14.905 -0.1929  0.4908 -0.0997
35405POPC   C3A70846   8.751  25.206  15.113 -0.1531  0.4254 -0.0469
35405POPC   C4A70847   8.479  24.988  15.392 -0.0545 -0.2400  0.1636
35405POPC   C1B70848   9.214  25.405  14.358  0.2185  0.0418  0.2645
35405POPC   C2B70849   9.119  24.955  14.489  0.0294 -0.0157 -0.0812
35405POPC   C3B70850   9.338  24.582  14.420 -0.0175 -0.4986  0.1058
35405POPC   C4B70851   9.676  24.402  14.655  0.0238  0.2083  0.2255
35406POPC   NC370852   4.940  21.383  14.533 -0.1048  0.0705 -0.0583
35406POPC   PO470853   4.628  21.108  14.551 -0.1942 -0.0465 -0.0936
35406POPC   GL170854   4.711  21.249  14.959  0.1744 -0.2178 -0.5003
35406POPC   GL270855   4.623  21.521  15.080  0.1043 -0.4549 -0.2622
35406POPC   C1A70856   4.806  21.172  15.428  0.0906 -0.0605 -0.0195
35406POPC   D2A70857   5.033  20.928  15.734  0.0520 -0.4174 -0.1074
35406POPC   C3A70858   5.501  20.847  15.936 -0.0402 -0.0022 -0.0342
35406POPC   C4A70859   5.901  20.702  15.763  0.1434  0.1699  0.0172
35406POPC   C1B70860   5.108  21.545  15.071  0.1423  0.1257 -0.4027
35406POPC   C2B70861   5.536  21.662  15.262 -0.1523 -0.0737  0.0344
35406POPC   C3B70862   5.770  21.667  15.649 -0.0424  0.2000  0.1532
35406POPC   C4B70863   6.056  21.660  16.006  0.0200 -0.1571 -0.1190
35407POPC   NC370864   8.142  31.826  15.858  0.1444 -0.0263  0.0332
35407POPC   PO470865   8.071  31.421  15.911  0.5656 -0.0389 -0.2976
35407POPC   GL170866   8.268  31.685  16.267  0.1252 -0.2071 -0.0742
35407POPC   GL270867   7.968  31.794  16.366 -0.1045  0.1947  0.0401
35407POPC   C1A70868   8.328  31.642  16.693  0.0450  0.0485 -0.2637
35407POPC   D2A70869   8.579  31.717  17.080  0.2441  0.1398  0.3782
35407POPC   C3A70870   8.340  31.890  17.429  0.3109  0.0883 -0.0439
35407POPC   C4A70871   8.121  31.702  17.738 -0.1264  0.3083 -0.2310
35407POPC   C1B70872   7.535  31.789  16.506 -0.1158 -0.2784  0.1058
35407POPC   C2B70873   7.300  32.134  16.757  0.0752 -0.0174  0.0380
35407POPC   C3B70874   7.279  32.348  17.167  0.1503 -0.3170  0.2534
35407POPC   C4B70875   7.366  32.645  17.522 -0.0367 -0.0360 -0.2153
35408POPC   NC370876   5.272  24.214  14.799 -0.0560 -0.5932  0.3447
35408POPC   PO470877   4.972  24.419  14.923  0.0368  0.1498 -0.0757
35408POPC   GL170878   5.133  24.480  15.249  0.2307 -0.0196 -0.2530
35408POPC   GL270879   4.971  24.560  15.503 -0.0021  0.4530 -0.1522
35408POPC   C1A70880   5.354  24.161  15.475 -0.1062  0.5307 -0.1468
35408POPC   D2A70881   5.655  23.962  15.759  0.0350 -0.0023 -0.0714
35408POPC   C3A70882   5.892  23.994  16.178  0.0690 -0.0803  0.0811
35408POPC   C4A70883   6.066  24.018  16.605  0.1317 -0.3285  0.2035
35408POPC   C1B70884   5.197  24.374  15.885  0.5280 -0.1436  0.1808
35408POPC   C2B70885   5.339  24.121  16.265  0.1118  0.0064  0.1213
35408POPC   C3B70886   5.608  24.115  16.629  0.1869  0.2152 -0.0722
35408POPC   C4B70887   5.743  23.947  17.031  0.2369  0.2349 -0.0697
35409POPC   NC370888   0.920  28.813  16.789 -0.3037 -0.0248 -0.0460
35409POPC   PO470889   0.607  29.043  16.643 -0.0316  0.4301  0.3418
35409POPC   GL170890   0.593  29.197  17.031  0.4667  0.0463  0.2820
35409POPC   GL270891   0.403  29.071  17.278  0.3061 -0.1067 -0.0336
35409POPC   C1A70892   0.763  29.425  17.352  0.1481 -0.0485  0.2145
35409POPC   D2A70893   0.806  29.682  17.749 -0.2793 -0.1468 -0.0908
35409POPC   C3A70894   0.651  29.564  18.168  0.2293  0.5144 -0.2670
35409POPC   C4A70895   0.609  29.562  18.631  0.1774 -0.2477 -0.0852
35409POPC   C1B70896   0.428  28.912  17.726  0.1219 -0.2787 -0.2127
35409POPC   C2B70897   0.530  28.844  18.154 -0.1634  0.1382  0.0409
35409POPC   C3B70898   0.328  28.975  18.597  0.0022  0.4160  0.0708
35409POPC   C4B70899   0.221  29.307  18.886 -0.1225 -0.0236 -0.2660
35410POPC   NC370900  11.460  32.208  16.108 -0.3735 -0.0972 -0.2409
35410POPC   PO470901  11.429  32.411  15.766  0.1161  0.0097 -0.1840
35410POPC   GL170902  11.159  32.610  15.868  0.3950  0.1755  0.2020
35410POPC   GL270903  11.262  32.742  16.071  0.1001  0.4006  0.0849
35410POPC   C1A70904  10.956  32.398  16.277 -0.1236 -0.3303 -0.1181
35410POPC   D2A70905  10.763  32.478  16.688  0.1778 -0.0479 -0.3419
35410POPC   C3A70906  10.490  32.332  16.987 -0.1875 -0.1763 -0.1568
35410POPC   C4A70907  10.116  32.509  17.258 -0.2516  0.0610  0.0584
35410POPC   C1B70908  11.378  32.628  16.517  0.1647  0.2306 -0.2097
35410POPC   C2B70909  11.102  32.782  16.850  0.2038  0.1775  0.4896
35410POPC   C3B70910  11.247  32.693  17.262 -0.1396 -0.0711  0.0091
35410POPC   C4B70911  11.207  32.797  17.659 -0.0807 -0.0642 -0.0501
35411POPC   NC370912  12.760  16.748  14.915 -0.0116  0.1652 -0.0722
35411POPC   PO470913  12.967  16.857  15.217 -0.0705  0.0240  0.0876
35411POPC   GL170914  12.754  17.159  15.321 -0.3220  0.1432  0.0878
35411POPC   GL270915  12.527  17.187  15.114  0.0880  0.1643  0.1610
35411POPC   C1A70916  12.523  17.590  15.408  0.2207  0.0997  0.0883
35411POPC   D2A70917  12.554  18.016  15.577 -0.0576 -0.2452  0.0757
35411POPC   C3A70918  12.335  18.096  15.980  0.0034 -0.1030 -0.0099
35411POPC   C4A70919  12.188  17.985  16.421  0.2385 -0.0544 -0.1970
35411POPC   C1B70920  12.339  17.090  15.499 -0.1882  0.3876 -0.2130
35411POPC   C2B70921  12.099  17.146  15.902 -0.1601  0.0760 -0.4410
35411POPC   C3B70922  11.989  17.224  16.393  0.1061 -0.3084  0.0759
35411POPC   C4B70923  11.724  17.625  16.546 -0.1799 -0.1289 -0.0555
35412POPC   NC370924   5.841  29.267  15.984 -0.0905  0.0862 -0.1622
35412POPC   PO470925   5.875  29.064  16.334 -0.0384  0.0117  0.2955
35412POPC   GL170926   6.141  29.066  16.635  0.0952  0.3510  0.1106
35412POPC   GL270927   6.429  28.939  16.657  0.2383  0.0703  0.2929
35412POPC   C1A70928   5.989  28.719  16.965 -0.0908  0.1701 -0.0606
35412POPC   D2A70929   6.156  28.478  17.308  0.0056  0.1505 -0.2504
35412POPC   C3A70930   6.170  28.113  17.543  0.4176 -0.1487  0.1635
35412POPC   C4A70931   6.273  27.695  17.782 -0.0767  0.1126  0.0346
35412POPC   C1B70932   6.441  28.957  17.115  0.1858  0.1833 -0.0751
35412POPC   C2B70933   6.605  29.109  17.505  0.0969  0.1753 -0.1755
35412POPC   C3B70934   6.777  29.366  17.870  0.1723  0.0443  0.0912
35412POPC   C4B70935   6.974  29.690  18.215  0.2887  0.1208  0.1881
35413POPC   NC370936  14.700  30.713  16.443  0.0047  0.3265  0.4298
35413POPC   PO470937  14.320  30.697  16.287 -0.0219 -0.1177  0.1786
35413POPC   GL170938  14.157  30.898  16.614 -0.0846 -0.0555  0.0244
35413POPC   GL270939  14.226  31.220  16.736  0.0222 -0.1031  0.0547
35413POPC   C1A70940  14.212  30.772  17.030 -0.1362 -0.2050 -0.2318
35413POPC   D2A70941  14.522  30.503  17.248  0.1265  0.1216 -0.4691
35413POPC   C3A70942  14.660  30.601  17.658  0.0862  0.0391 -0.0096
35413POPC   C4A70943  14.743  30.444  18.070  0.2550  0.2045 -0.2109
35413POPC   C1B70944  14.277  31.601  17.053 -0.2242  0.1179  0.1001
35413POPC   C2B70945  14.272  31.935  17.328 -0.1343  0.0402 -0.0565
35413POPC   C3B70946  14.555  32.287  17.422  0.2334  0.0329  0.1098
35413POPC   C4B70947  14.561  32.482  17.893  0.0748  0.0233 -0.0179
35414POPC   NC370948   6.267  24.801  13.248  0.0887  0.1762 -0.1591
35414POPC   PO470949   6.498  24.891  13.569  0.2786 -0.0277  0.2843
35414POPC   GL170950   6.678  24.525  13.523  0.1415 -0.2297 -0.3150
35414POPC   GL270951   6.821  24.591  13.302 -0.0572  0.1473 -0.1145
35414POPC   C1A70952   6.819  24.126  13.401  0.1283  0.0258  0.0503
35414POPC   D2A70953   7.008  23.719  13.399  0.0234  0.0586 -0.1457
35414POPC   C3A70954   7.183  23.643  13.813 -0.2027 -0.2616 -0.2939
35414POPC   C4A70955   7.600  23.445  14.005 -0.1916 -0.2182  0.4628
35414POPC   C1B70956   7.210  24.448  13.395 -0.1771  0.1222  0.0935
35414POPC   C2B70957   7.641  24.193  13.224 -0.0995  0.1336 -0.2634
35414POPC   C3B70958   8.011  23.880  13.272 -0.4726  0.1906 -0.0646
35414POPC   C4B70959   8.334  23.706  13.012  0.1433  0.1928  0.2016
35415POPC   NC370960   4.068  28.762  16.763 -0.1543  0.1335 -0.0631
35415POPC   PO470961   4.139  29.136  16.618  0.0521  0.0764  0.0009
35415POPC   GL170962   4.215  29.133  17.079 -0.0026  0.1188  0.3566
35415POPC   GL270963   3.896  29.003  17.180 -0.1643 -0.0338  0.1530
35415POPC   C1A70964   4.313  28.788  17.369  0.1729  0.0976  0.1744
35415POPC   D2A70965   4.284  28.670  17.820  0.1552  0.0032  0.0175
35415POPC   C3A70966   4.149  28.893  18.155 -0.3478  0.0023 -0.1541
35415POPC   C4A70967   4.202  29.091  18.638 -0.2877 -0.0536  0.1368
35415POPC   C1B70968   3.724  28.983  17.570 -0.0095  0.1358 -0.1486
35415POPC   C2B70969   3.647  28.916  18.039  0.1482  0.1633  0.0054
35415POPC   C3B70970   3.551  29.124  18.409  0.1148 -0.2095  0.4244
35415POPC   C4B70971   3.672  29.539  18.609  0.0332  0.2537  0.0328
35416POPC   NC370972   2.035  23.985  16.100  0.1693  0.0884  0.0778
35416POPC   PO470973   1.852  24.316  16.074  0.3101  0.2084 -0.2117
35416POPC   GL170974   2.005  24.274  16.465  0.2267  0.1435 -0.0044
35416POPC   GL270975   2.338  24.164  16.478 -0.0761 -0.1912  0.0579
35416POPC   C1A70976   1.844  24.252  16.903  0.0499 -0.1257  0.1700
35416POPC   D2A70977   1.937  23.901  17.209 -0.1868 -0.1193  0.0662
35416POPC   C3A70978   1.929  23.830  17.699 -0.0650  0.0937 -0.1261
35416POPC   C4A70979   1.895  23.749  18.149 -0.1957  0.0552 -0.1670
35416POPC   C1B70980   2.437  24.082  16.952  0.0522  0.0832 -0.1968
35416POPC   C2B70981   2.486  23.929  17.370  0.0216 -0.2805  0.0652
35416POPC   C3B70982   2.465  23.894  17.785 -0.2582 -0.0512  0.0901
35416POPC   C4B70983   2.830  23.834  18.141  0.0664  0.0904 -0.1081
35417POPC   NC370984  10.196  26.654  14.726  0.1740 -0.0696  0.0376
35417POPC   PO470985   9.810  26.700  14.654  0.0691 -0.0206 -0.1769
35417POPC   GL170986   9.747  26.392  14.837 -0.2923  0.0250  0.3211
35417POPC   GL270987   9.860  26.054  14.887  0.2367 -0.0885  0.1689
35417POPC   C1A70988   9.410  26.164  15.063  0.2745 -0.1138  0.1451
35417POPC   D2A70989   8.974  26.018  15.272 -0.0483  0.0075 -0.1181
35417POPC   C3A70990   9.048  25.562  15.365 -0.2639  0.2774 -0.0117
35417POPC   C4A70991   8.972  25.177  15.556  0.1432  0.2197  0.0477
35417POPC   C1B70992   9.907  25.952  15.348  0.0936  0.0683  0.1033
35417POPC   C2B70993   9.975  25.514  15.475  0.1477 -0.2136 -0.0883
35417POPC   C3B70994  10.039  25.341  15.955  0.1837  0.0960 -0.0027
35417POPC   C4B70995   9.962  25.337  16.400  0.0560  0.0495  0.0315
35418POPC   NC370996   1.756  22.004  15.366  0.0970  0.3200 -0.0381
35418POPC   PO470997   1.503  21.696  15.476 -0.3493 -0.0390 -0.1051
35418POPC   GL170998   1.490  21.762  15.902 -0.1251  0.2615 -0.0340
35418POPC   GL270999   1.661  21.902  15.963 -0.0833  0.3706  0.0344
35418POPC   C1A71000   1.355  21.694  16.344  0.1048 -0.0544  0.0414
35418POPC   D2A71001   1.226  21.557  16.747 -0.1343 -0.1415 -0.0370
35418POPC   C3A71002   1.478  21.561  17.180  0.1521  0.3268 -0.0558
35418POPC   C4A71003   1.508  21.652  17.622 -0.4135 -0.1841 -0.0557
35418POPC   C1B71004   1.788  21.904  16.392  0.1224 -0.0268  0.0219
35418POPC   C2B71005   1.741  21.947  16.840  0.0894 -0.1831 -0.0465
35418POPC   C3B71006   1.733  22.150  17.272 -0.0243  0.1293 -0.0278
35418POPC   C4B71007   1.613  22.147  17.688  0.0603 -0.0217  0.2099
35419POPC   NC371008  14.022  26.722  15.994  0.2957  0.1910  0.1462
35419POPC   PO471009  14.383  26.535  15.965  0.3463 -0.2966  0.0444
35419POPC   GL171010  14.213  26.426  16.320 -0.4873 -0.1687  0.2137
35419POPC   GL271011  14.322  26.635  16.497  0.0138  0.1405  0.0208
35419POPC   C1A71012  14.256  26.094  16.628  0.0437  0.1283 -0.0923
35419POPC   D2A71013  14.282  25.665  16.543  0.0101  0.1524 -0.1463
35419POPC   C3A71014  14.155  25.367  16.933  0.3753  0.2193  0.2816
35419POPC   C4A71015  14.044  24.990  17.166 -0.0391  0.0787 -0.3394
35419POPC   C1B71016  14.308  26.552  16.943 -0.0057 -0.0926  0.3241
35419POPC   C2B71017  14.307  26.480  17.413  0.4004 -0.0962  0.2210
35419POPC   C3B71018  14.140  26.486  17.849  0.0079  0.1861  0.2500
35419POPC   C4B71019  14.210  26.321  18.351  0.1379 -0.1798  0.0402
35420POPC   NC371020  14.367  16.574  15.254  0.1989 -0.1979 -0.2424
35420POPC   PO471021  14.380  16.957  15.385  0.2341 -0.6378 -0.0870
35420POPC   GL171022  14.418  17.089  15.700 -0.0122  0.3737 -0.2838
35420POPC   GL271023  14.663  17.181  15.852 -0.1422  0.1223  0.1241
35420POPC   C1A71024  14.175  17.263  16.070 -0.0797 -0.0078  0.1300
35420POPC   D2A71025  13.975  17.403  16.473 -0.2405  0.0912  0.1644
35420POPC   C3A71026  13.523  17.529  16.469 -0.2161 -0.0081 -0.0488
35420POPC   C4A71027  13.298  17.944  16.587 -0.1891 -0.3301  0.1876
35420POPC   C1B71028  14.831  17.542  16.135  0.0115 -0.0218  0.0359
35420POPC   C2B71029  14.806  17.755  16.529  0.2536 -0.0055 -0.0528
35420POPC   C3B71030  14.637  17.992  16.919 -0.1061  0.0681 -0.1936
35420POPC   C4B71031  14.561  18.366  17.262 -0.2857 -0.4640  0.2323
35421POPC   NC371032   1.586  27.602  16.647  0.0517  0.1423  0.0745
35421POPC   PO471033   1.276  27.322  16.658  0.0565  0.0814 -0.0054
35421POPC   GL171034   1.328  27.271  17.057  0.2811 -0.1701  0.1335
35421POPC   GL271035   1.347  27.504  17.146 -0.0553 -0.3376 -0.1234
35421POPC   C1A71036   1.374  27.096  17.482  0.0698  0.2189 -0.2224
35421POPC   D2A71037   1.359  27.004  17.930  0.3036  0.3391 -0.0348
35421POPC   C3A71038   1.074  26.724  18.095 -0.2734  0.1006  0.0827
35421POPC   C4A71039   1.064  26.526  18.557  0.1950 -0.0163 -0.0423
35421POPC   C1B71040   1.073  27.509  17.532  0.2773 -0.0342 -0.3032
35421POPC   C2B71041   1.167  27.483  17.991  0.0881 -0.2467  0.4835
35421POPC   C3B71042   1.143  27.130  18.310 -0.0420 -0.2152 -0.0921
35421POPC   C4B71043   0.827  27.129  18.612  0.1770 -0.4023  0.1668
35422POPC   NC371044  10.759  29.166  16.584 -0.0254 -0.2910  0.0020
35422POPC   PO471045  11.075  29.447  16.599 -0.1194 -0.0278  0.1170
35422POPC   GL171046  10.827  29.604  16.906  0.0885 -0.3586 -0.2031
35422POPC   GL271047  10.499  29.731  16.945 -0.2043 -0.0395  0.0165
35422POPC   C1A71048  10.774  29.830  17.321  0.0794 -0.1598  0.1038
35422POPC   D2A71049  10.687  29.922  17.705  0.0308 -0.3011 -0.0981
35422POPC   C3A71050  10.443  29.725  18.055 -0.3244  0.0645 -0.4268
35422POPC   C4A71051  10.194  29.523  18.375 -0.1279  0.0898 -0.1395
35422POPC   C1B71052  10.440  29.302  17.071 -0.0561  0.0807 -0.2601
35422POPC   C2B71053  10.083  29.091  17.346  0.1097  0.0835  0.0732
35422POPC   C3B71054   9.840  28.985  17.704 -0.0149  0.3162 -0.3833
35422POPC   C4B71055   9.582  29.114  18.001 -0.1497 -0.2863  0.0376
35423POPC   NC371056  14.504  18.729  13.428  0.2645 -0.1458  0.1180
35423POPC   PO471057  14.534  19.020  13.649 -0.4661 -0.0178 -0.0758
35423POPC   GL171058  14.269  19.212  13.806  0.0304 -0.1427 -0.0117
35423POPC   GL271059  14.163  19.353  13.606  0.2280  0.0050 -0.1511
35423POPC   C1A71060  14.238  19.383  14.201  0.2459  0.0327  0.1056
35423POPC   D2A71061  13.928  19.472  14.542 -0.0010 -0.2756 -0.1472
35423POPC   C3A71062  13.636  19.603  14.859 -0.2069  0.3319  0.3626
35423POPC   C4A71063  13.214  19.742  14.939  0.0894  0.0104  0.0991
35423POPC   C1B71064  13.806  19.230  13.853 -0.2411 -0.1871 -0.1064
35423POPC   C2B71065  13.641  19.254  14.263  0.1622  0.0282 -0.0161
35423POPC   C3B71066  13.473  19.130  14.641 -0.0668 -0.3156  0.0681
35423POPC   C4B71067  13.399  19.306  15.111  0.1719  0.1904  0.0558
35424POPC   NC371068  13.716  31.672  16.301  0.1133 -0.1064  0.0256
35424POPC   PO471069  13.929  31.417  16.446  0.0861 -0.2845  0.0775
35424POPC   GL171070  13.792  31.703  16.737  0.3238  0.1228  0.0514
35424POPC   GL271071  13.790  31.524  16.928 -0.0890  0.0528 -0.2213
35424POPC   C1A71072  13.781  32.109  17.055 -0.2916  0.2038  0.0548
35424POPC   D2A71073  13.703  32.147  17.514  0.2277  0.0839 -0.0977
35424POPC   C3A71074  13.922  31.860  17.752 -0.0391 -0.1826 -0.2902
35424POPC   C4A71075  14.027  31.775  18.179  0.0624 -0.1758 -0.1890
35424POPC   C1B71076  13.672  31.596  17.358 -0.2762 -0.2435 -0.1401
35424POPC   C2B71077  13.631  31.463  17.842  0.3268  0.1438  0.1363
35424POPC   C3B71078  13.516  31.363  18.292 -0.2312  0.1060  0.1132
35424POPC   C4B71079  13.668  31.353  18.747  0.0009  0.0176  0.1854
35425POPC   NC371080   4.007  24.619  14.838 -0.1750  0.0799 -0.2036
35425POPC   PO471081   4.143  24.291  15.033  0.2063 -0.0803  0.2343
35425POPC   GL171082   4.391  24.226  15.398 -0.0114 -0.0389  0.0651
35425POPC   GL271083   4.631  24.221  15.349 -0.1589  0.1250 -0.2818
35425POPC   C1A71084   4.512  24.235  15.851  0.1779  0.0587  0.0064
35425POPC   D2A71085   4.423  24.334  16.302 -0.0017 -0.0947  0.0210
35425POPC   C3A71086   4.491  24.032  16.643 -0.1819 -0.0623 -0.1061
35425POPC   C4A71087   4.330  23.904  17.049  0.0524  0.0377 -0.3829
35425POPC   C1B71088   4.816  23.939  15.663 -0.1624 -0.3552  0.4751
35425POPC   C2B71089   5.198  23.725  15.880  0.1529 -0.0750 -0.1039
35425POPC   C3B71090   5.401  23.356  16.028  0.0405  0.4100 -0.2314
35425POPC   C4B71091   5.635  23.143  16.380 -0.2298 -0.0572 -0.1125
35426POPC   NC371092  11.115  27.000  12.514  0.1530  0.0308  0.0181
35426POPC   PO471093  11.505  27.020  12.586  0.0092 -0.2450  0.0462
35426POPC   GL171094  11.376  26.697  12.316 -0.3802 -0.2842 -0.0307
35426POPC   GL271095  11.338  26.814  12.055 -0.1849  0.0401 -0.0427
35426POPC   C1A71096  11.013  26.459  12.086 -0.0973 -0.1821 -0.1701
35426POPC   D2A71097  11.053  26.217  11.719  0.2344 -0.2266  0.3002
35426POPC   C3A71098  10.878  25.798  11.670  0.2367  0.0566  0.0314
35426POPC   C4A71099  11.043  25.424  11.386 -0.0488  0.1132 -0.2998
35426POPC   C1B71100  11.551  26.367  11.987 -0.0239  0.0344 -0.2779
35426POPC   C2B71101  11.768  26.017  12.196 -0.3626  0.2595 -0.1966
35426POPC   C3B71102  11.925  25.731  12.534 -0.0390  0.3376 -0.2022
35426POPC   C4B71103  12.020  25.678  13.044 -0.3746  0.0174 -0.0532
35427POPC   NC371104   1.135  23.919  16.473  0.2595  0.1285 -0.2062
35427POPC   PO471105   0.940  24.014  16.087 -0.0924 -0.2076  0.0120
35427POPC   GL171106   0.777  24.232  16.467 -0.2395 -0.5170 -0.3449
35427POPC   GL271107   0.582  24.456  16.587  0.0902 -0.0432  0.1859
35427POPC   C1A71108   0.752  23.872  16.776  0.0118 -0.4951  0.0639
35427POPC   D2A71109   1.042  23.808  17.108  0.0485 -0.2634 -0.0246
35427POPC   C3A71110   0.912  23.639  17.521  0.3570  0.0980  0.3264
35427POPC   C4A71111   0.894  23.621  18.003 -0.0474 -0.2044 -0.0262
35427POPC   C1B71112   0.749  24.376  17.031 -0.2698  0.0806 -0.2472
35427POPC   C2B71113   0.625  24.053  17.359  0.1008  0.0957 -0.3932
35427POPC   C3B71114   0.563  23.935  17.776 -0.1609 -0.0690  0.0019
35427POPC   C4B71115   0.393  23.748  18.195 -0.1355  0.0267  0.2639
35428POPC   NC371116  13.939  24.227  13.109 -0.1207  0.0495 -0.0930
35428POPC   PO471117  14.183  24.308  13.404  0.0335  0.1703  0.2353
35428POPC   GL171118  13.952  23.995  13.504  0.0017 -0.1277 -0.3494
35428POPC   GL271119  14.212  23.795  13.537  0.0029  0.0447 -0.0549
35428POPC   C1A71120  13.511  23.794  13.533 -0.1308  0.1283  0.0014
35428POPC   D2A71121  13.190  23.522  13.584 -0.4106  0.1206  0.3638
35428POPC   C3A71122  12.750  23.646  13.488 -0.0775 -0.2949 -0.0796
35428POPC   C4A71123  12.442  23.648  13.168  0.0406 -0.0243  0.2860
35428POPC   C1B71124  14.010  23.383  13.649 -0.2503 -0.0706  0.0873
35428POPC   C2B71125  13.604  23.218  13.592  0.3045  0.1513 -0.3367
35428POPC   C3B71126  13.170  22.995  13.488  0.2518 -0.1443  0.2648
35428POPC   C4B71127  12.782  23.127  13.610 -0.0458 -0.0622  0.2548
35429POPC   NC371128   6.831  25.469  12.297 -0.1233 -0.4052  0.2418
35429POPC   PO471129   7.175  25.481  12.140 -0.1692  0.0891 -0.1925
35429POPC   GL171130   7.496  25.126  12.140  0.3302  0.1763  0.3864
35429POPC   GL271131   7.300  24.929  12.000 -0.1142  0.3451  0.1372
35429POPC   C1A71132   7.830  24.863  11.947  0.1282  0.1252  0.3050
35429POPC   D2A71133   8.217  24.765  11.694  0.1270  0.3253  0.3359
35429POPC   C3A71134   8.670  24.745  11.767 -0.1778  0.1086 -0.2625
35429POPC   C4A71135   9.035  24.462  11.933  0.0404 -0.1632 -0.0794
35429POPC   C1B71136   7.448  24.487  12.198  0.0225  0.2653 -0.2691
35429POPC   C2B71137   7.694  24.069  12.124  0.0875 -0.4374 -0.0732
35429POPC   C3B71138   7.936  23.890  11.793 -0.1313  0.0746  0.0198
35429POPC   C4B71139   7.972  23.435  11.609 -0.2861 -0.0816 -0.0326
35430POPC   NC371140   9.870  28.131  16.341 -0.1337 -0.3641  0.1347
35430POPC   PO471141   9.850  28.030  15.978 -0.0878  0.0509  0.0129
35430POPC   GL171142   9.764  27.702  16.191 -0.0531  0.1994 -0.1398
35430POPC   GL271143   9.464  27.733  16.219 -0.1069 -0.1252 -0.1035
35430POPC   C1A71144   9.631  27.308  16.352  0.2622  0.1407  0.0069
35430POPC   D2A71145   9.596  26.832  16.350  0.1948 -0.3396  0.2616
35430POPC   C3A71146   9.691  26.662  16.778  0.0130 -0.1693 -0.0974
35430POPC   C4A71147   9.770  26.258  16.978  0.1031 -0.0598  0.1189
35430POPC   C1B71148   9.134  27.577  16.501 -0.0824 -0.0374 -0.1117
35430POPC   C2B71149   8.952  27.808  16.829  0.2773  0.0575  0.3354
35430POPC   C3B71150   8.840  27.762  17.284 -0.0473 -0.0411  0.0305
35430POPC   C4B71151   8.826  27.713  17.704  0.0968 -0.1187  0.3774
35431POPC   NC371152   6.752  31.118  16.520  0.0690 -0.3282 -0.0557
35431POPC   PO471153   6.938  30.979  16.179  0.2217 -0.1542  0.0230
35431POPC   GL171154   7.183  30.969  16.488 -0.1463  0.4157 -0.0437
35431POPC   GL271155   7.516  30.929  16.449  0.0368  0.2338  0.3555
35431POPC   C1A71156   7.290  31.304  16.771 -0.1544  0.2693 -0.2335
35431POPC   D2A71157   7.338  31.733  17.066  0.1427  0.1603  0.0767
35431POPC   C3A71158   7.722  31.920  16.967 -0.0242 -0.2447  0.0554
35431POPC   C4A71159   8.179  32.007  16.998 -0.1851  0.0807 -0.2257
35431POPC   C1B71160   7.564  30.749  16.842 -0.0536 -0.0946 -0.0063
35431POPC   C2B71161   7.464  30.979  17.225 -0.1345 -0.1997  0.2971
35431POPC   C3B71162   7.600  31.383  17.383 -0.0268  0.0241  0.1564
35431POPC   C4B71163   7.654  31.874  17.450  0.0551 -0.1486 -0.0523
35432POPC   NC371164   5.955  25.874  14.979 -0.0624 -0.0202  0.0920
35432POPC   PO471165   5.747  25.569  15.054 -0.1289  0.0376 -0.0528
35432POPC   GL171166   5.965  25.407  15.392 -0.0276  0.2155  0.1099
35432POPC   GL271167   5.624  25.334  15.454 -0.2477 -0.0207  0.2630
35432POPC   C1A71168   6.304  25.462  15.749 -0.1676 -0.1307  0.1732
35432POPC   D2A71169   6.342  25.065  15.988  0.0907  0.1641 -0.1161
35432POPC   C3A71170   6.302  24.783  16.353 -0.2360  0.0588  0.0474
35432POPC   C4A71171   6.467  24.368  16.550 -0.0572 -0.2568 -0.0969
35432POPC   C1B71172   5.718  25.036  15.780 -0.1183 -0.1607  0.4196
35432POPC   C2B71173   5.841  24.943  16.219  0.0192 -0.2642  0.1979
35432POPC   C3B71174   5.880  24.935  16.679 -0.2082 -0.0296 -0.0474
35432POPC   C4B71175   6.005  25.253  17.033 -0.0656 -0.1436  0.0225
35433POPC   NC371176   4.676  31.599  16.164 -0.0500 -0.0152 -0.0238
35433POPC   PO471177   5.100  31.517  16.269  0.0662  0.2167 -0.3246
35433POPC   GL171178   4.962  31.756  16.630 -0.0765 -0.3304 -0.0032
35433POPC   GL271179   5.029  31.630  16.878  0.0351 -0.2163 -0.0070
35433POPC   C1A71180   5.074  32.185  16.747  0.2811 -0.0476  0.1313
35433POPC   D2A71181   5.477  32.306  16.930  0.2649  0.0220  0.1747
35433POPC   C3A71182   5.410  32.293  17.426  0.1240  0.1075  0.3285
35433POPC   C4A71183   5.292  32.355  17.872  0.1114  0.2658 -0.1736
35433POPC   C1B71184   4.867  31.296  17.163  0.1039 -0.0917 -0.2481
35433POPC   C2B71185   4.876  31.217  17.625 -0.0116 -0.0010  0.1270
35433POPC   C3B71186   4.904  30.921  17.946 -0.0364  0.1831  0.2504
35433POPC   C4B71187   4.924  30.438  18.119 -0.1763 -0.0812  0.0926
35434POPC   NC371188  10.722  32.347  15.398  0.1851  0.1348  0.3381
35434POPC   PO471189  10.508  32.112  15.623  0.2107  0.0654  0.3757
35434POPC   GL171190  10.577  32.327  15.999 -0.1848 -0.2654  0.3405
35434POPC   GL271191  10.632  32.556  15.884  0.2628  0.0845 -0.2882
35434POPC   C1A71192  10.404  32.321  16.434  0.1328 -0.2006 -0.1836
35434POPC   D2A71193  10.300  32.751  16.608  0.0181 -0.3791 -0.1908
35434POPC   C3A71194  10.096  32.998  16.971 -0.0185  0.0485  0.0219
35434POPC   C4A71195   9.784  32.878  17.253 -0.0163 -0.2306 -0.0917
35434POPC   C1B71196  10.629  32.811  16.301 -0.2746 -0.2744  0.1250
35434POPC   C2B71197  10.659  32.990  16.756 -0.2218 -0.2174 -0.1355
35434POPC   C3B71198  10.555  32.787  17.104  0.3207  0.3624  0.5167
35434POPC   C4B71199  10.759  32.606  17.480 -0.0733  0.1373  0.1155
35435POPC   NC371200  11.768  30.143  16.129 -0.1451  0.1962 -0.2761
35435POPC   PO471201  11.910  29.913  16.433 -0.0194  0.2119 -0.3789
35435POPC   GL171202  11.973  30.049  16.817 -0.1316 -0.2104 -0.4862
35435POPC   GL271203  11.741  30.236  16.789  0.0592  0.1326  0.1257
35435POPC   C1A71204  12.080  30.321  17.224 -0.2490 -0.0367  0.0057
35435POPC   D2A71205  12.018  30.440  17.670  0.1048  0.2037 -0.2545
35435POPC   C3A71206  12.488  30.457  17.645 -0.1796 -0.2777 -0.0660
35435POPC   C4A71207  12.702  30.410  17.246 -0.0949 -0.0170 -0.0469
35435POPC   C1B71208  11.532  30.324  17.191  0.1001  0.2735 -0.1360
35435POPC   C2B71209  11.599  30.203  17.587  0.1106 -0.1182 -0.1123
35435POPC   C3B71210  11.592  29.880  17.889 -0.1515  0.0887 -0.4096
35435POPC   C4B71211  11.514  29.477  18.150 -0.1912 -0.1086  0.2512
35436POPC   NC371212   7.341  26.750  11.314  0.0336 -0.0214 -0.1467
35436POPC   PO471213   7.032  26.583  11.205  0.3741  0.1361  0.3929
35436POPC   GL171214   7.287  26.328  10.999  0.3353  0.1506  0.0483
35436POPC   GL271215   7.520  26.324  11.098  0.1013 -0.0658 -0.1606
35436POPC   C1A71216   7.331  26.083  10.568 -0.0800  0.1238 -0.0810
35436POPC   D2A71217   6.989  25.768  10.497  0.1020  0.0340 -0.1437
35436POPC   C3A71218   7.163  25.414  10.207 -0.0756  0.0304  0.1097
35436POPC   C4A71219   7.606  25.282  10.118  0.0194 -0.4739 -0.0443
35436POPC   C1B71220   7.659  25.900  10.914  0.0035  0.0239  0.0252
35436POPC   C2B71221   7.936  25.618  10.666  0.1104 -0.1235 -0.3217
35436POPC   C3B71222   8.034  25.419  10.299 -0.1622 -0.2460  0.2450
35436POPC   C4B71223   8.142  25.382   9.913  0.0700  0.1167  0.1315
35437POPC   NC371224   8.781  28.862  16.096 -0.3291  0.0791  0.1289
35437POPC   PO471225   9.001  28.594  15.954 -0.1707 -0.2644  0.1495
35437POPC   GL171226   9.036  28.467  16.349  0.5882  0.3088 -0.3992
35437POPC   GL271227   8.758  28.336  16.443 -0.1682  0.0855  0.0932
35437POPC   C1A71228   9.321  28.075  16.556  0.0133 -0.0902 -0.0319
35437POPC   D2A71229   9.451  27.934  16.982 -0.0314 -0.0981 -0.3026
35437POPC   C3A71230   9.454  27.632  17.343  0.0276  0.0022  0.0332
35437POPC   C4A71231   9.306  27.463  17.757 -0.2544 -0.2153 -0.2650
35437POPC   C1B71232   8.910  28.492  16.810 -0.1876 -0.2550 -0.3262
35437POPC   C2B71233   9.144  28.264  17.168 -0.0360 -0.0261  0.1537
35437POPC   C3B71234   9.112  28.155  17.568  0.0758  0.1349  0.0037
35437POPC   C4B71235   9.235  28.069  18.013 -0.3163 -0.0656  0.4091
35438POPC   NC371236   4.475  21.571  14.454  0.1955  0.1046 -0.2888
35438POPC   PO471237   4.741  21.788  14.636  0.0588 -0.0192  0.1528
35438POPC   GL171238   5.163  21.762  14.535 -0.1836 -0.3812 -0.2257
35438POPC   GL271239   5.395  21.917  14.777  0.0190  0.0574 -0.1802
35438POPC   C1A71240   5.515  21.446  14.543  0.1509  0.1149 -0.1386
35438POPC   D2A71241   5.932  21.305  14.743 -0.1611 -0.2309 -0.0246
35438POPC   C3A71242   6.315  21.634  14.768 -0.1587 -0.0117  0.0650
35438POPC   C4A71243   6.548  22.046  14.881 -0.0126  0.2965 -0.0869
35438POPC   C1B71244   5.611  22.222  15.036 -0.2126  0.2428  0.1296
35438POPC   C2B71245   5.861  22.640  15.060  0.1740 -0.0097  0.2423
35438POPC   C3B71246   6.330  22.739  14.961  0.0233  0.3174 -0.0653
35438POPC   C4B71247   6.626  22.936  14.617  0.1241  0.0738  0.2515
35439POPC   NC371248  12.433  26.258  15.350 -0.1632  0.2574  0.1272
35439POPC   PO471249  12.392  26.517  15.642 -0.1329 -0.1278  0.1580
35439POPC   GL171250  12.010  26.453  15.711 -0.3908  0.0931 -0.1523
35439POPC   GL271251  11.969  26.197  15.571  0.1083 -0.2004  0.0909
35439POPC   C1A71252  11.924  26.356  16.180  0.0042 -0.1392 -0.0568
35439POPC   D2A71253  11.825  26.145  16.502  0.3240 -0.1617 -0.0133
35439POPC   C3A71254  11.444  25.932  16.715  0.0548 -0.0010  0.1458
35439POPC   C4A71255  11.015  26.092  16.862  0.3771  0.0352  0.0302
35439POPC   C1B71256  11.679  25.981  15.832 -0.3320 -0.1729 -0.0545
35439POPC   C2B71257  11.465  25.778  16.142  0.2273  0.1867  0.2612
35439POPC   C3B71258  11.267  25.532  16.484 -0.0570  0.1345  0.0362
35439POPC   C4B71259  10.974  25.454  16.736  0.0296 -0.0111 -0.1692
35440POPC   NC371260   7.913  28.991  16.254 -0.1397 -0.3435  0.1693
35440POPC   PO471261   7.597  29.056  16.011 -0.3579 -0.0901  0.2029
35440POPC   GL171262   7.454  29.014  16.341  0.1275 -0.7081 -0.2221
35440POPC   GL271263   7.510  28.757  16.481  0.0468  0.3602  0.1848
35440POPC   C1A71264   7.343  29.208  16.777 -0.1969  0.0153 -0.0408
35440POPC   D2A71265   7.202  29.366  17.139  0.3156  0.0994  0.2619
35440POPC   C3A71266   7.124  29.094  17.472  0.0359  0.1794  0.0523
35440POPC   C4A71267   6.879  28.866  17.806  0.2888  0.1380 -0.2092
35440POPC   C1B71268   7.453  28.718  16.955 -0.5468 -0.2082 -0.3004
35440POPC   C2B71269   7.307  28.566  17.395  0.1563  0.2999 -0.1585
35440POPC   C3B71270   7.405  28.556  17.902 -0.1925  0.1488 -0.0181
35440POPC   C4B71271   7.562  28.477  18.314  0.1014 -0.1481  0.2721
35441POPC   NC371272   0.588  22.230  15.951 -0.0506  0.0331 -0.0417
35441POPC   PO471273   0.306  22.372  15.731  0.0068 -0.0138 -0.2142
35441POPC   GL171274   0.192  22.346  16.186 -0.1763  0.0443 -0.1393
35441POPC   GL271275  -0.060  22.156  16.181  0.2023  0.0254 -0.0048
35441POPC   C1A71276   0.249  22.512  16.596  0.0222  0.0718 -0.1659
35441POPC   D2A71277   0.260  22.742  16.993 -0.0032 -0.0920  0.0076
35441POPC   C3A71278   0.437  22.592  17.380 -0.1079 -0.1606  0.1304
35441POPC   C4A71279   0.697  22.331  17.705  0.2260 -0.0634  0.2898
35441POPC   C1B71280  -0.200  22.481  16.366  0.0735 -0.0291  0.1839
35441POPC   C2B71281  -0.256  22.609  16.799 -0.2433  0.2632 -0.1124
35441POPC   C3B71282  -0.539  22.503  17.180 -0.3674 -0.0189 -0.0097
35441POPC   C4B71283  -0.905  22.658  17.408 -0.1672 -0.1684  0.0083
35442POPC   NC371284  15.170  17.640  15.779 -0.4462  0.0635  0.1302
35442POPC   PO471285  14.989  17.530  15.481  0.1301 -0.1433  0.0129
35442POPC   GL171286  14.779  17.841  15.656  0.4247  0.2219  0.0289
35442POPC   GL271287  14.525  17.720  15.689  0.2300  0.2087 -0.1086
35442POPC   C1A71288  14.963  18.062  16.009 -0.0636 -0.0629 -0.1791
35442POPC   D2A71289  14.901  18.216  16.421  0.3144  0.1113 -0.1396
35442POPC   C3A71290  15.261  18.268  16.594  0.0674 -0.0139 -0.2558
35442POPC   C4A71291  15.632  18.522  16.640  0.0401 -0.0744 -0.0851
35442POPC   C1B71292  14.304  17.784  16.073 -0.3059  0.3332 -0.1700
35442POPC   C2B71293  14.247  17.797  16.534 -0.0220  0.1075 -0.2498
35442POPC   C3B71294  14.047  17.656  16.937 -0.0210  0.3379 -0.3168
35442POPC   C4B71295  13.922  17.627  17.389 -0.1450  0.1232 -0.0217
35443POPC   NC371296  14.902  28.388  16.270 -0.2253  0.1075  0.0191
35443POPC   PO471297  14.919  28.763  16.450  0.1541 -0.0593 -0.0900
35443POPC   GL171298  14.911  28.867  16.908 -0.0722  0.0040 -0.3145
35443POPC   GL271299  14.773  28.609  16.965  0.2926 -0.0930 -0.1065
35443POPC   C1A71300  15.007  29.302  17.140  0.2031 -0.1198 -0.0296
35443POPC   D2A71301  14.822  29.649  17.369  0.1620 -0.0081 -0.1210
35443POPC   C3A71302  14.853  29.669  17.817  0.0152 -0.0817 -0.0888
35443POPC   C4A71303  14.998  29.739  18.257  0.0382 -0.0760 -0.1108
35443POPC   C1B71304  14.513  28.610  17.324  0.2853  0.0375  0.0112
35443POPC   C2B71305  14.587  28.777  17.731  0.1533 -0.1684  0.1012
35443POPC   C3B71306  14.692  29.073  18.070  0.1473 -0.0656  0.3605
35443POPC   C4B71307  14.682  29.166  18.480 -0.0360 -0.2766 -0.1185
35444POPC   NC371308  12.909  26.518  13.430 -0.0268 -0.0731 -0.1263
35444POPC   PO471309  13.006  26.560  13.051  0.0255  0.2291  0.1707
35444POPC   GL171310  12.939  26.204  12.923 -0.2381 -0.2460  0.0683
35444POPC   GL271311  13.117  26.187  12.667 -0.1364  0.2182 -0.1501
35444POPC   C1A71312  12.802  25.748  12.842  0.3738  0.4359  0.1639
35444POPC   D2A71313  12.781  25.268  12.853 -0.1459 -0.1153  0.1250
35444POPC   C3A71314  12.485  25.006  12.650  0.1959 -0.0275 -0.1118
35444POPC   C4A71315  12.046  24.825  12.562 -0.0878 -0.0297  0.1406
35444POPC   C1B71316  12.908  25.878  12.360 -0.0178 -0.0020 -0.1766
35444POPC   C2B71317  12.688  25.519  12.317  0.2301  0.1996  0.2217
35444POPC   C3B71318  12.220  25.331  12.316  0.0637  0.1190  0.0124
35444POPC   C4B71319  11.809  25.101  12.205  0.1209 -0.4892 -0.0117
35445POPC   NC371320   9.761  28.458  10.650 -0.2508  0.0370 -0.2495
35445POPC   PO471321   9.624  28.303  10.344 -0.0774 -0.1880  0.1470
35445POPC   GL171322   9.582  27.925  10.394 -0.0888 -0.0959 -0.0230
35445POPC   GL271323   9.671  27.802  10.194  0.0664 -0.0292 -0.1940
35445POPC   C1A71324   9.798  27.661  10.683 -0.0786  0.1629 -0.0057
35445POPC   D2A71325  10.166  27.397  10.909  0.1005 -0.1107 -0.0116
35445POPC   C3A71326  10.201  26.936  11.012 -0.2196 -0.0915 -0.0024
35445POPC   C4A71327  10.187  26.505  10.891  0.1158  0.2054  0.1297
35445POPC   C1B71328   9.408  27.481  10.438  0.2062 -0.0886  0.1169
35445POPC   C2B71329   9.439  27.082  10.681  0.1099  0.0290 -0.0365
35445POPC   C3B71330   9.377  26.662  10.472 -0.0486 -0.1822 -0.0282
35445POPC   C4B71331   9.416  26.256  10.211  0.0227  0.2644 -0.0048
35446POPC   NC371332   1.493  17.630  15.674  0.0497 -0.0665 -0.2153
35446POPC   PO471333   1.325  17.907  15.916  0.0423  0.0124 -0.2788
35446POPC   GL171334   1.175  17.806  16.324 -0.1009 -0.4817 -0.0492
35446POPC   GL271335   1.241  17.985  16.430 -0.0969  0.0042  0.1410
35446POPC   C1A71336   0.918  17.442  16.486 -0.1712 -0.1795  0.0900
35446POPC   D2A71337   0.662  17.329  16.836  0.0452  0.1200 -0.1476
35446POPC   C3A71338   0.680  17.340  17.305  0.0094 -0.0942 -0.1224
35446POPC   C4A71339   0.961  17.143  17.530  0.1052  0.1652  0.0351
35446POPC   C1B71340   1.193  18.178  16.860 -0.0158 -0.1034 -0.1719
35446POPC   C2B71341   1.300  18.145  17.322  0.3344  0.0847  0.0648
35446POPC   C3B71342   1.119  18.255  17.721 -0.0178  0.1255  0.2712
35446POPC   C4B71343   0.931  18.095  18.134  0.0423 -0.0388  0.1771
35447POPC   NC371344  12.637  17.205  14.589 -0.2831 -0.1909 -0.0151
35447POPC   PO471345  13.032  17.122  14.635 -0.2437  0.0003 -0.2015
35447POPC   GL171346  13.010  17.356  14.995  0.0909  0.0221 -0.0789
35447POPC   GL271347  12.795  17.579  14.872 -0.0536  0.2072 -0.4668
35447POPC   C1A71348  13.027  17.592  15.418  0.0900  0.0889 -0.4430
35447POPC   D2A71349  13.066  17.992  15.625 -0.0712 -0.1161 -0.0103
35447POPC   C3A71350  12.870  18.140  15.959 -0.0261  0.2907  0.0825
35447POPC   C4A71351  12.939  18.475  16.238 -0.0245 -0.0862 -0.1918
35447POPC   C1B71352  12.807  17.938  15.156  0.1562  0.0557  0.0274
35447POPC   C2B71353  12.643  18.331  15.229 -0.0294 -0.1292  0.2939
35447POPC   C3B71354  12.225  18.572  15.211 -0.0925  0.1373  0.0452
35447POPC   C4B71355  12.070  18.902  14.941 -0.0149 -0.3952 -0.0004
35448POPC   NC371356  16.203  29.598  16.370 -0.0771  0.1326  0.2302
35448POPC   PO471357  16.417  29.476  16.672  0.5145  0.1191  0.4060
35448POPC   GL171358  16.339  29.513  17.069  0.0135 -0.0566 -0.0527
35448POPC   GL271359  16.566  29.497  17.231  0.1098  0.1472  0.4148
35448POPC   C1A71360  16.156  29.318  17.452 -0.0354  0.0406  0.0267
35448POPC   D2A71361  15.910  29.032  17.605 -0.2766  0.2469 -0.3443
35448POPC   C3A71362  15.504  29.150  17.839 -0.0060 -0.1039 -0.3083
35448POPC   C4A71363  15.143  29.321  18.033  0.0066  0.3204  0.2021
35448POPC   C1B71364  16.648  29.473  17.711  0.2605  0.1307  0.0813
35448POPC   C2B71365  16.568  29.264  18.148  0.1837 -0.1470 -0.3279
35448POPC   C3B71366  16.288  29.198  18.550  0.0042 -0.0391 -0.2428
35448POPC   C4B71367  15.896  29.254  18.831 -0.0513  0.4700  0.0966
35449POPC   NC371368  13.283  25.579  15.140 -0.1871  0.0239  0.1695
35449POPC   PO471369  13.419  25.729  14.825  0.0406 -0.4216 -0.2728
35449POPC   GL171370  13.163  25.636  14.594 -0.3458  0.0722  0.1245
35449POPC   GL271371  13.016  25.493  14.367 -0.1130 -0.1947 -0.1270
35449POPC   C1A71372  13.162  25.176  14.681 -0.0866  0.0731 -0.0301
35449POPC   D2A71373  13.171  24.745  14.596 -0.0137  0.0948 -0.2252
35449POPC   C3A71374  12.844  24.432  14.767  0.0727  0.1378 -0.1208
35449POPC   C4A71375  12.474  24.175  14.970  0.2683 -0.1155  0.2388
35449POPC   C1B71376  12.724  25.116  14.512  0.1766  0.1335  0.0578
35449POPC   C2B71377  12.476  24.766  14.543  0.1601  0.0994  0.0143
35449POPC   C3B71378  12.151  24.571  14.894  0.0958 -0.0019  0.1238
35449POPC   C4B71379  11.981  24.300  15.287 -0.2143  0.2129  0.0034
35450POPC   NC371380  14.867  25.052  15.500  0.2250 -0.0153  0.1730
35450POPC   PO471381  14.687  24.706  15.445 -0.0536 -0.0172 -0.0379
35450POPC   GL171382  14.582  24.748  15.778  0.0145 -0.5173  0.1985
35450POPC   GL271383  14.714  24.980  15.992 -0.0253  0.1678  0.0875
35450POPC   C1A71384  14.170  24.723  16.068 -0.0498 -0.5528 -0.0741
35450POPC   D2A71385  13.733  24.583  16.308  0.1799 -0.1678 -0.1608
35450POPC   C3A71386  13.348  24.775  16.586 -0.0990 -0.1872  0.0359
35450POPC   C4A71387  13.041  25.065  16.848 -0.1311  0.0165  0.1058
35450POPC   C1B71388  14.630  24.686  16.360 -0.0637  0.1348  0.1060
35450POPC   C2B71389  14.354  24.529  16.679  0.0047 -0.3000  0.0389
35450POPC   C3B71390  13.892  24.562  16.791 -0.1041 -0.0240  0.4922
35450POPC   C4B71391  13.538  24.555  17.088  0.0488  0.0170  0.2780
35451POPC   NC371392  16.099  24.523  16.020 -0.3479 -0.2672 -0.0128
35451POPC   PO471393  15.785  24.765  15.974 -0.0539  0.0478 -0.3417
35451POPC   GL171394  15.416  24.668  16.176  0.2517  0.0516  0.3786
35451POPC   GL271395  15.546  24.575  16.374  0.1623  0.1235  0.1052
35451POPC   C1A71396  15.140  24.842  16.457  0.0025 -0.0766  0.1297
35451POPC   D2A71397  15.042  24.685  16.814  0.2060 -0.0434  0.1192
35451POPC   C3A71398  14.687  24.515  17.054 -0.1066  0.1169 -0.0626
35451POPC   C4A71399  14.305  24.507  17.303  0.1457  0.0294 -0.1072
35451POPC   C1B71400  15.467  24.431  16.786  0.0337 -0.0501 -0.0079
35451POPC   C2B71401  15.207  24.391  17.179  0.1326 -0.1748  0.1232
35451POPC   C3B71402  14.998  24.008  17.308  0.0061 -0.2248  0.0565
35451POPC   C4B71403  14.797  23.702  17.588  0.0108 -0.0065 -0.0964
35452POPC   NC371404  11.252  29.398  17.040 -0.0768 -0.0715  0.0301
35452POPC   PO471405  11.397  29.127  16.778 -0.3620  0.5473  0.2013
35452POPC   GL171406  11.478  28.987  17.161  0.0160  0.1264 -0.2984
35452POPC   GL271407  11.696  28.863  17.113  0.1148 -0.1656  0.0591
35452POPC   C1A71408  11.396  28.605  17.460  0.5433  0.1884  0.0560
35452POPC   D2A71409  11.422  28.528  17.924  0.0143  0.3944  0.0301
35452POPC   C3A71410  11.658  28.534  18.356 -0.2202  0.2135 -0.1258
35452POPC   C4A71411  11.796  28.256  18.685 -0.1072  0.0151 -0.3635
35452POPC   C1B71412  11.680  28.940  17.613 -0.2823 -0.0854  0.0934
35452POPC   C2B71413  11.664  28.964  18.094  0.2327  0.0413 -0.1315
35452POPC   C3B71414  11.598  29.087  18.512 -0.2190  0.0299  0.0279
35452POPC   C4B71415  11.462  29.083  18.960 -0.0501  0.0485  0.1301
35453POPC   NC371416  14.805  18.248  14.754  0.3315 -0.0693  0.1631
35453POPC   PO471417  14.538  18.445  14.991  0.2121 -0.3179 -0.1285
35453POPC   GL171418  14.258  18.650  15.156 -0.2241  0.0012  0.0844
35453POPC   GL271419  13.985  18.515  15.160 -0.1829  0.3396  0.0990
35453POPC   C1A71420  14.239  18.555  15.640  0.1041 -0.0608 -0.1147
35453POPC   D2A71421  14.519  18.249  15.902  0.1121  0.1364 -0.0488
35453POPC   C3A71422  14.375  18.250  16.372 -0.2316  0.0417  0.1483
35453POPC   C4A71423  14.278  18.368  16.791  0.0122 -0.1606  0.0791
35453POPC   C1B71424  13.769  18.512  15.582 -0.1220  0.0864  0.0695
35453POPC   C2B71425  13.501  18.707  15.893  0.1867 -0.1795 -0.4483
35453POPC   C3B71426  13.223  18.854  16.314 -0.1818  0.0263  0.2013
35453POPC   C4B71427  13.346  18.889  16.746 -0.2494 -0.0109 -0.2168
35454POPC   NC371428   9.536  31.950  15.077  0.2039 -0.0649 -0.0169
35454POPC   PO471429   9.273  32.079  15.365 -0.0971 -0.0454  0.0192
35454POPC   GL171430   9.419  32.103  15.726 -0.1167 -0.2014  0.2361
35454POPC   GL271431   9.421  31.971  16.041 -0.0339  0.1587  0.3645
35454POPC   C1A71432   9.117  32.374  15.912  0.1989 -0.0815 -0.1140
35454POPC   D2A71433   8.951  32.835  16.010  0.2133  0.2786 -0.1508
35454POPC   C3A71434   9.241  33.105  16.268 -0.2402 -0.4345  0.1875
35454POPC   C4A71435   9.182  33.335  16.659  0.0985  0.0459 -0.0008
35454POPC   C1B71436   9.451  31.832  16.475  0.0358 -0.1508  0.1624
35454POPC   C2B71437   9.525  32.042  16.854  0.1024 -0.1877 -0.0491
35454POPC   C3B71438   9.704  32.274  17.208  0.0668 -0.2982 -0.1759
35454POPC   C4B71439   9.431  32.543  17.464 -0.0158  0.0020 -0.0286
35455POPC   NC371440  14.485  31.567  16.517 -0.0790  0.1329 -0.0551
35455POPC   PO471441  14.728  31.272  16.483  0.3835  0.2517  0.0162
35455POPC   GL171442  14.780  31.205  16.847  0.0618  0.0720 -0.0998
35455POPC   GL271443  14.679  30.927  16.860  0.3732 -0.3932  0.0592
35455POPC   C1A71444  14.462  31.165  17.221 -0.2276  0.3425 -0.1372
35455POPC   D2A71445  14.267  30.908  17.574  0.1531 -0.0103  0.0473
35455POPC   C3A71446  13.878  31.002  17.865  0.0930  0.2840  0.0138
35455POPC   C4A71447  13.690  30.885  18.247 -0.1496 -0.0895  0.1757
35455POPC   C1B71448  14.885  30.833  17.289 -0.1979  0.0452 -0.3389
35455POPC   C2B71449  15.046  30.848  17.809  0.1604  0.0317  0.1151
35455POPC   C3B71450  15.036  31.042  18.216 -0.1863 -0.2193 -0.0745
35455POPC   C4B71451  14.902  31.194  18.595 -0.1002  0.0633 -0.1586
35456POPC   NC371452   4.235  21.237  14.919 -0.1861 -0.0374 -0.3037
35456POPC   PO471453   4.362  20.851  14.933 -0.1721 -0.0603 -0.1825
35456POPC   GL171454   4.745  20.817  14.943  0.1170 -0.0899 -0.2968
35456POPC   GL271455   4.789  20.525  15.050  0.0550  0.2894  0.1735
35456POPC   C1A71456   5.123  20.954  15.153  0.1722  0.1005 -0.0834
35456POPC   D2A71457   5.480  21.161  14.984  0.0450  0.0584  0.1021
35456POPC   C3A71458   5.868  21.305  15.236  0.0813 -0.2768  0.0102
35456POPC   C4A71459   6.308  21.352  15.155 -0.1021  0.2319  0.2849
35456POPC   C1B71460   4.803  20.593  15.504 -0.0320  0.0727 -0.2504
35456POPC   C2B71461   4.969  20.406  15.921  0.0222  0.2033 -0.0513
35456POPC   C3B71462   5.403  20.395  16.096 -0.1607  0.2594 -0.1088
35456POPC   C4B71463   5.743  20.613  16.367 -0.1812  0.2414 -0.0567
35457POPC   NC371464  12.202  15.593  15.387  0.6475 -0.2828  0.0586
35457POPC   PO471465  12.182  15.455  15.745  0.2939 -0.1547  0.1870
35457POPC   GL171466  12.132  15.756  15.913 -0.3759 -0.0994  0.2560
35457POPC   GL271467  11.984  15.689  16.144  0.0069  0.2111 -0.0562
35457POPC   C1A71468  12.047  16.210  15.856  0.0941  0.0150  0.0712
35457POPC   D2A71469  11.963  16.665  15.922 -0.0201  0.0133 -0.0476
35457POPC   C3A71470  11.645  16.988  16.139  0.0871  0.1610  0.1083
35457POPC   C4A71471  11.381  17.275  16.393  0.1922 -0.3711  0.0643
35457POPC   C1B71472  12.191  15.874  16.555  0.1671 -0.0798 -0.0566
35457POPC   C2B71473  12.183  16.092  16.963  0.1904  0.0573 -0.1697
35457POPC   C3B71474  11.898  16.312  17.270  0.0608  0.0124 -0.0699
35457POPC   C4B71475  11.547  16.225  17.518  0.0306 -0.0956  0.0390
35458POPC   NC371476  14.978  16.738  15.910 -0.1991 -0.0615  0.0720
35458POPC   PO471477  14.606  16.669  15.788 -0.1283 -0.3801  0.1910
35458POPC   GL171478  14.546  16.862  16.145  0.3475  0.0266  0.1158
35458POPC   GL271479  14.403  16.753  16.325 -0.1027 -0.2447 -0.1181
35458POPC   C1A71480  14.515  17.288  16.441 -0.0953 -0.0851  0.3080
35458POPC   D2A71481  14.442  17.410  16.873 -0.2452  0.0075  0.3517
35458POPC   C3A71482  14.193  17.231  17.188 -0.0642  0.0198 -0.1510
35458POPC   C4A71483  14.130  16.951  17.557 -0.0227 -0.3020 -0.1041
35458POPC   C1B71484  13.989  16.925  16.485  0.1400 -0.2051  0.0872
35458POPC   C2B71485  13.779  16.992  16.892  0.1428 -0.1467 -0.2288
35458POPC   C3B71486  13.675  17.134  17.349  0.0310 -0.0177 -0.2487
35458POPC   C4B71487  13.621  17.380  17.733  0.1738  0.0377  0.2881
35459POPC   NC371488  14.151  24.660  12.157  0.0468 -0.0863 -0.1681
35459POPC   PO471489  14.555  24.582  12.267  0.0648 -0.0048 -0.0625
35459POPC   GL171490  14.406  24.296  12.094 -0.2093 -0.2346 -0.1464
35459POPC   GL271491  14.328  24.236  11.829  0.2879  0.0535  0.3526
35459POPC   C1A71492  14.043  24.139  12.321  0.0815 -0.0433 -0.0275
35459POPC   D2A71493  13.702  24.007  12.594  0.3926 -0.0488 -0.0962
35459POPC   C3A71494  13.303  23.843  12.484  0.1822 -0.2026 -0.0308
35459POPC   C4A71495  12.809  23.819  12.378  0.0199  0.0429  0.0199
35459POPC   C1B71496  13.967  23.968  11.890  0.4170  0.0920  0.2251
35459POPC   C2B71497  13.608  23.701  12.046 -0.1252  0.0157 -0.2966
35459POPC   C3B71498  13.383  23.306  12.134  0.0389 -0.2273 -0.2067
35459POPC   C4B71499  13.192  22.947  12.305 -0.2761  0.0670 -0.0196
35460POPC   NC371500   7.461  28.606   9.304  0.2926 -0.0925  0.3171
35460POPC   PO471501   7.328  28.299   9.469  0.4216  0.0145 -0.1487
35460POPC   GL171502   7.539  28.110   9.269  0.2247  0.0568  0.0711
35460POPC   GL271503   7.426  27.827   9.402 -0.2358  0.0100 -0.1066
35460POPC   C1A71504   7.647  28.208   8.788  0.0080  0.1436 -0.1826
35460POPC   D2A71505   7.989  28.244   8.494 -0.2102 -0.0485 -0.3277
35460POPC   C3A71506   8.024  28.127   8.049 -0.0121  0.0239 -0.0678
35460POPC   C4A71507   7.760  27.998   7.659  0.0087  0.0853 -0.2194
35460POPC   C1B71508   7.550  27.741   8.997 -0.1044  0.3373  0.1783
35460POPC   C2B71509   7.874  27.764   8.616 -0.1387 -0.0655  0.1870
35460POPC   C3B71510   8.132  27.538   8.279 -0.0503  0.0621 -0.1086
35460POPC   C4B71511   8.276  27.045   8.211  0.3568 -0.2161  0.0497
35461POPC   NC371512  15.504  24.688  15.548 -0.0405  0.0411  0.1570
35461POPC   PO471513  15.178  24.703  15.724  0.0935 -0.2447  0.1050
35461POPC   GL171514  15.024  24.591  16.051  0.2627 -0.0264  0.1206
35461POPC   GL271515  14.772  24.409  15.975 -0.1949  0.0331  0.2247
35461POPC   C1A71516  15.108  24.358  16.408  0.2247 -0.1661  0.1348
35461POPC   D2A71517  15.007  24.161  16.780 -0.0396 -0.5257  0.2533
35461POPC   C3A71518  14.912  23.690  16.793 -0.3292 -0.1449 -0.2978
35461POPC   C4A71519  14.848  23.407  17.185 -0.2271 -0.2173 -0.0110
35461POPC   C1B71520  14.605  24.158  16.299 -0.1663  0.0145 -0.1687
35461POPC   C2B71521  14.508  24.021  16.767  0.0935 -0.0431  0.2272
35461POPC   C3B71522  14.528  23.911  17.167  0.3529  0.0310  0.0398
35461POPC   C4B71523  14.305  24.060  17.618 -0.1351 -0.0013 -0.1235
35462POPC   NC371524   4.461  25.427  10.032  0.1916 -0.1294  0.1148
35462POPC   PO471525   4.311  25.821  10.002  0.1626  0.1326  0.1230
35462POPC   GL171526   4.611  25.977   9.833 -0.0999  0.1220  0.3077
35462POPC   GL271527   4.655  25.771   9.651 -0.1772  0.3440 -0.3332
35462POPC   C1A71528   4.812  26.237   9.435  0.3066 -0.2372 -0.1126
35462POPC   D2A71529   4.916  26.615   9.198  0.0136  0.1875 -0.4649
35462POPC   C3A71530   4.831  26.589   8.759 -0.0319  0.0961  0.1596
35462POPC   C4A71531   5.114  26.442   8.400 -0.1564 -0.0332 -0.0158
35462POPC   C1B71532   4.869  25.428   9.505  0.3053 -0.0166 -0.2139
35462POPC   C2B71533   4.930  25.134   9.193 -0.2810 -0.0613  0.0338
35462POPC   C3B71534   5.167  24.748   8.954 -0.3508 -0.3062  0.2790
35462POPC   C4B71535   5.111  24.309   8.753 -0.5114  0.2067  0.1608
35463POPC   NC371536   2.051  23.288  16.273  0.0802  0.2778  0.2042
35463POPC   PO471537   2.303  23.117  16.081  0.0245  0.1008  0.2342
35463POPC   GL171538   2.539  23.092  16.412  0.0356 -0.2800  0.0849
35463POPC   GL271539   2.363  22.832  16.555 -0.0448  0.0344  0.3543
35463POPC   C1A71540   2.587  23.125  16.872  0.2310  0.0392 -0.3899
35463POPC   D2A71541   2.816  23.021  17.209  0.0166  0.0032 -0.1292
35463POPC   C3A71542   2.760  22.736  17.544  0.1034 -0.0629 -0.1491
35463POPC   C4A71543   3.018  22.572  17.904  0.0810 -0.0571 -0.2556
35463POPC   C1B71544   2.425  22.624  16.966 -0.4962  0.0869 -0.2968
35463POPC   C2B71545   2.664  22.344  17.260 -0.1417 -0.0002  0.0332
35463POPC   C3B71546   2.682  22.239  17.715  0.1090  0.2967  0.1823
35463POPC   C4B71547   2.703  21.815  17.816 -0.0429  0.0395 -0.2804
35464POPC   NC371548   4.736  22.653  10.735 -0.0956 -0.0104 -0.0304
35464POPC   PO471549   4.546  22.346  10.950 -0.1432  0.3529  0.0824
35464POPC   GL171550   4.864  22.257  10.790  0.2753  0.4265 -0.0825
35464POPC   GL271551   4.754  22.082  10.588  0.0911  0.1079 -0.0375
35464POPC   C1A71552   5.162  22.311  10.401  0.1814 -0.1054  0.0082
35464POPC   D2A71553   5.554  22.342  10.107  0.0146  0.0552 -0.3337
35464POPC   C3A71554   5.543  22.341   9.704  0.0223 -0.2053  0.0537
35464POPC   C4A71555   5.721  22.404   9.274  0.3355 -0.3786 -0.2677
35464POPC   C1B71556   4.960  21.940  10.144 -0.1502  0.3064 -0.1015
35464POPC   C2B71557   5.191  22.021   9.755  0.1341  0.0166  0.3669
35464POPC   C3B71558   5.301  22.025   9.239 -0.2919  0.0778  0.0851
35464POPC   C4B71559   5.524  22.000   8.821  0.1069 -0.1451 -0.0842
35465POPC   NC371560   4.860  30.572  16.619  0.0739 -0.3647 -0.1950
35465POPC   PO471561   4.624  30.847  16.500 -0.2515 -0.0824 -0.4477
35465POPC   GL171562   4.653  30.944  16.879  0.1006 -0.1612 -0.1438
35465POPC   GL271563   4.414  31.108  17.018  0.1733  0.2478 -0.2232
35465POPC   C1A71564   4.631  30.770  17.323  0.1379 -0.0983  0.2498
35465POPC   D2A71565   4.925  30.503  17.588  0.0159  0.4041  0.1588
35465POPC   C3A71566   4.981  30.088  17.727  0.0660 -0.0557 -0.0152
35465POPC   C4A71567   5.086  29.679  17.889 -0.3391 -0.1277  0.0707
35465POPC   C1B71568   4.423  31.239  17.457  0.0007 -0.1800 -0.2066
35465POPC   C2B71569   4.440  31.342  17.921 -0.1424  0.2649  0.1138
35465POPC   C3B71570   4.032  31.208  18.207 -0.2963  0.0418 -0.1567
35465POPC   C4B71571   3.795  31.386  18.548  0.3693 -0.0225 -0.2102
35466POPC   NC371572   1.439  30.039  16.970 -0.1951  0.1530 -0.0731
35466POPC   PO471573   1.728  30.374  16.970  0.2284 -0.1151 -0.4406
35466POPC   GL171574   1.721  30.419  17.305 -0.3222  0.0941 -0.1156
35466POPC   GL271575   1.983  30.371  17.446  0.1922 -0.0056  0.0878
35466POPC   C1A71576   1.533  30.062  17.577 -0.0373  0.0839 -0.0234
35466POPC   D2A71577   1.230  29.906  17.899  0.3206  0.1204  0.0464
35466POPC   C3A71578   0.936  30.077  18.145  0.0767  0.1320 -0.0114
35466POPC   C4A71579   0.567  30.038  18.417  0.0715  0.0933  0.1250
35466POPC   C1B71580   1.956  30.224  17.840 -0.1152  0.4003 -0.1580
35466POPC   C2B71581   1.773  30.032  18.218  0.2719 -0.0418 -0.1437
35466POPC   C3B71582   1.744  29.973  18.685  0.2093 -0.2571 -0.1157
35466POPC   C4B71583   1.452  29.840  18.982  0.1050 -0.0882 -0.2208
35467POPC   NC371584   2.194  21.687   9.561  0.0533  0.2124  0.4601
35467POPC   PO471585   2.107  21.562   9.217  0.0991 -0.1001  0.0258
35467POPC   GL171586   2.192  21.502   8.842  0.0809  0.0012 -0.1564
35467POPC   GL271587   2.127  21.356   8.653 -0.0653  0.2928 -0.0974
35467POPC   C1A71588   2.644  21.545   8.750  0.1003  0.4366 -0.0460
35467POPC   D2A71589   2.979  21.694   8.541  0.1226 -0.1129 -0.2904
35467POPC   C3A71590   3.195  21.460   8.179  0.0679 -0.0882 -0.3050
35467POPC   C4A71591   3.378  21.314   7.815 -0.0294 -0.2335 -0.1377
35467POPC   C1B71592   2.261  21.674   8.329 -0.1746 -0.1674 -0.2117
35467POPC   C2B71593   2.662  21.646   8.076 -0.0773 -0.0479  0.2452
35467POPC   C3B71594   2.941  21.662   7.709  0.1026  0.0492 -0.0233
35467POPC   C4B71595   3.351  21.690   7.358 -0.3462 -0.1057  0.0300
35468POPC   NC371596  10.309  28.038  15.790 -0.0149 -0.0502  0.2554
35468POPC   PO471597  10.410  28.284  16.073 -0.0955 -0.1429 -0.1717
35468POPC   GL171598  10.433  28.165  16.420  0.1380 -0.3751 -0.3472
35468POPC   GL271599  10.571  28.385  16.562  0.1621 -0.2777 -0.0435
35468POPC   C1A71600  10.193  27.878  16.688  0.1772 -0.0890 -0.3416
35468POPC   D2A71601   9.932  27.737  16.972  0.0187 -0.0709 -0.3491
35468POPC   C3A71602   9.612  27.543  16.794 -0.1279 -0.3832  0.2438
35468POPC   C4A71603   9.424  27.114  16.771 -0.1199 -0.1093  0.1088
35468POPC   C1B71604  10.350  28.237  17.029  0.2325 -0.2740  0.0765
35468POPC   C2B71605  10.344  28.182  17.524 -0.1808  0.2393  0.0323
35468POPC   C3B71606  10.133  28.180  17.972  0.1166 -0.0930 -0.0459
35468POPC   C4B71607   9.699  28.305  18.160 -0.2084 -0.0790 -0.0981
35469POPC   NC371608  14.901  22.502  13.378  0.2489 -0.1682  0.3313
35469POPC   PO471609  14.904  22.732  13.713 -0.1072  0.0465  0.1591
35469POPC   GL171610  14.524  22.751  13.623  0.0943 -0.2573  0.0935
35469POPC   GL271611  14.523  23.000  13.531  0.0196 -0.1292 -0.3802
35469POPC   C1A71612  14.388  22.398  13.443  0.0989  0.0323  0.0453
35469POPC   D2A71613  14.236  22.352  12.948 -0.2780 -0.0692  0.1208
35469POPC   C3A71614  14.173  22.722  12.578 -0.0319  0.2657  0.0113
35469POPC   C4A71615  14.287  22.765  12.165  0.2397 -0.2890 -0.0241
35469POPC   C1B71616  14.094  22.918  13.562 -0.0609  0.2674  0.0042
35469POPC   C2B71617  13.639  22.742  13.465 -0.0386  0.0143  0.0746
35469POPC   C3B71618  13.324  22.483  13.236  0.0310  0.2711 -0.3649
35469POPC   C4B71619  13.180  22.230  12.966 -0.1616  0.4455 -0.1031
35470POPC   NC371620  12.844  26.815  10.266 -0.3605  0.0443 -0.2428
35470POPC   PO471621  13.032  26.970   9.984  0.0192 -0.1564  0.2275
35470POPC   GL171622  12.794  26.705   9.798  0.3102  0.0797  0.0450
35470POPC   GL271623  12.831  26.737   9.587  0.2059  0.1131  0.0629
35470POPC   C1A71624  12.770  26.255   9.663 -0.3661  0.1011  0.2446
35470POPC   D2A71625  12.857  25.862   9.859  0.0032  0.2472 -0.2996
35470POPC   C3A71626  12.668  25.493   9.898  0.1279 -0.1997 -0.3884
35470POPC   C4A71627  12.571  25.080   9.725  0.2012 -0.2264 -0.0175
35470POPC   C1B71628  12.546  26.921   9.264 -0.1735  0.2378  0.2289
35470POPC   C2B71629  12.373  26.762   8.833  0.2081  0.0162 -0.0387
35470POPC   C3B71630  12.600  26.611   8.392 -0.4460  0.1168  0.0996
35470POPC   C4B71631  12.666  26.542   7.958  0.0412 -0.2547 -0.0417
35471POPC   NC371632   7.476  29.537  15.825  0.1303  0.3446 -0.1205
35471POPC   PO471633   7.292  29.763  16.085 -0.1675 -0.0683 -0.0726
35471POPC   GL171634   7.429  29.849  16.395  0.2734 -0.1247 -0.2078
35471POPC   GL271635   7.386  30.113  16.506 -0.0716  0.0736 -0.1207
35471POPC   C1A71636   7.733  29.694  16.712 -0.1810  0.3345 -0.3859
35471POPC   D2A71637   8.178  29.665  16.928 -0.1846  0.0377  0.1037
35471POPC   C3A71638   8.360  29.742  17.316  0.2945  0.1414 -0.0226
35471POPC   C4A71639   8.348  29.641  17.755 -0.0041  0.0301 -0.0719
35471POPC   C1B71640   7.428  30.268  16.954  0.1038  0.1504  0.1459
35471POPC   C2B71641   7.568  30.440  17.301 -0.0856  0.1747 -0.1771
35471POPC   C3B71642   7.760  30.467  17.707  0.0551 -0.1683 -0.1219
35471POPC   C4B71643   7.506  30.549  18.065  0.4124  0.1774  0.0391
35472POPC   NC371644  13.485  16.815  15.233  0.0608 -0.0373  0.0909
35472POPC   PO471645  13.870  16.663  15.211 -0.0754  0.2546 -0.0827
35472POPC   GL171646  13.763  16.824  15.600  0.0354 -0.2777  0.0335
35472POPC   GL271647  13.951  17.001  15.712 -0.1644  0.0728  0.0198
35472POPC   C1A71648  13.372  17.093  15.661  0.0899  0.2089  0.1102
35472POPC   D2A71649  13.114  17.388  15.879 -0.0886  0.2048 -0.1248
35472POPC   C3A71650  12.751  17.553  15.872  0.0376  0.0205  0.3170
35472POPC   C4A71651  12.307  17.587  15.911  0.2237 -0.1147 -0.1319
35472POPC   C1B71652  13.677  17.232  16.026  0.2472 -0.0227 -0.0255
35472POPC   C2B71653  13.295  17.151  16.297  0.1382  0.3519 -0.1217
35472POPC   C3B71654  13.225  17.303  16.751  0.0686 -0.1964 -0.0058
35472POPC   C4B71655  13.505  17.519  17.007  0.0206 -0.5279 -0.0122
35473POPC   NC371656   3.552  16.080  16.585 -0.3416 -0.4216 -0.0610
35473POPC   PO471657   3.456  16.267  16.269  0.1952  0.1658  0.2387
35473POPC   GL171658   3.431  16.513  16.522 -0.1040 -0.0320 -0.2914
35473POPC   GL271659   3.199  16.473  16.713 -0.0028 -0.1670 -0.1866
35473POPC   C1A71660   3.627  16.508  16.976 -0.0948  0.3632  0.0112
35473POPC   D2A71661   3.871  16.542  17.363 -0.0540  0.0649  0.0247
35473POPC   C3A71662   3.906  16.907  17.570 -0.2398 -0.3762 -0.1534
35473POPC   C4A71663   3.790  17.208  17.868  0.0753 -0.2036  0.2099
35473POPC   C1B71664   3.126  16.679  17.156 -0.0332 -0.0053 -0.0692
35473POPC   C2B71665   3.379  16.908  17.482 -0.1010  0.1877  0.1522
35473POPC   C3B71666   3.634  17.342  17.397 -0.2238 -0.0099 -0.2723
35473POPC   C4B71667   3.862  17.696  17.610 -0.4731 -0.1543 -0.0504
35474POPC   NC371668  14.173  23.665  14.046  0.0180 -0.0621  0.0556
35474POPC   PO471669  14.048  24.003  13.961 -0.4472  0.1323  0.3669
35474POPC   GL171670  13.721  23.870  14.066  0.0735  0.0568  0.4423
35474POPC   GL271671  13.685  23.855  14.324  0.0393 -0.0650  0.3888
35474POPC   C1A71672  13.452  23.468  14.004 -0.3328 -0.0774 -0.0374
35474POPC   D2A71673  13.218  23.032  13.976  0.0019 -0.0126 -0.0280
35474POPC   C3A71674  12.738  22.926  14.029 -0.0057 -0.0881 -0.1264
35474POPC   C4A71675  12.290  23.105  13.915  0.0378 -0.0860 -0.1067
35474POPC   C1B71676  13.483  23.629  14.676 -0.1427 -0.2822 -0.1551
35474POPC   C2B71677  13.259  23.387  15.047  0.0765 -0.1632 -0.5164
35474POPC   C3B71678  12.909  23.260  15.334  0.1108 -0.2621  0.2230
35474POPC   C4B71679  12.690  22.896  15.465 -0.1697  0.0830  0.0734
35475POPC   NC371680  15.295  26.027   9.109 -0.1646  0.0002  0.1540
35475POPC   PO471681  15.319  26.380   9.265  0.1783 -0.1054 -0.0822
35475POPC   GL171682  15.212  26.445   8.907 -0.0411  0.0297  0.1955
35475POPC   GL271683  15.385  26.274   8.693  0.3257 -0.5235 -0.0153
35475POPC   C1A71684  15.257  26.882   8.688  0.1421 -0.2327 -0.1840
35475POPC   D2A71685  15.425  27.042   8.338  0.0344 -0.0689  0.0450
35475POPC   C3A71686  15.589  26.941   7.933  0.0484 -0.1928 -0.0937
35475POPC   C4A71687  15.584  26.785   7.511 -0.1214 -0.3492 -0.0402
35475POPC   C1B71688  15.365  25.891   8.454  0.2160 -0.1918 -0.1097
35475POPC   C2B71689  15.326  25.550   8.184 -0.2859 -0.1939  0.2639
35475POPC   C3B71690  15.386  25.466   7.726 -0.2884  0.0968 -0.1382
35475POPC   C4B71691  15.134  25.687   7.449  0.0170  0.1961 -0.0658
35476POPC   NC371692   2.393  30.771  16.348  0.2248  0.1452 -0.2208
35476POPC   PO471693   2.495  30.540  16.613 -0.3165 -0.1179 -0.2847
35476POPC   GL171694   2.557  30.702  16.986  0.0826  0.1071  0.0508
35476POPC   GL271695   2.300  30.552  17.133  0.2512 -0.1145 -0.1156
35476POPC   C1A71696   2.800  31.045  17.173  0.0530  0.5226  0.0568
35476POPC   D2A71697   3.132  31.191  17.506 -0.0649  0.3622  0.1195
35476POPC   C3A71698   3.027  31.160  17.963 -0.1594 -0.0406  0.1905
35476POPC   C4A71699   2.911  31.125  18.371  0.3330  0.0576  0.1561
35476POPC   C1B71700   2.311  30.981  17.388 -0.1704  0.0763 -0.0174
35476POPC   C2B71701   2.554  31.146  17.708  0.0152  0.0561 -0.2137
35476POPC   C3B71702   2.477  30.975  18.125  0.1575  0.0037 -0.4472
35476POPC   C4B71703   2.528  30.886  18.583  0.2372  0.1096 -0.0634
35477POPC   NC371704  13.579  26.512  11.732 -0.0046  0.2100  0.1358
35477POPC   PO471705  13.196  26.487  11.782  0.1062 -0.0860  0.1932
35477POPC   GL171706  13.242  26.113  11.853  0.1252  0.2367  0.0042
35477POPC   GL271707  12.983  26.060  11.855 -0.0027 -0.1982 -0.4011
35477POPC   C1A71708  13.155  25.663  11.976  0.1276 -0.0289  0.3508
35477POPC   D2A71709  12.971  25.331  11.771 -0.3093 -0.0876 -0.2352
35477POPC   C3A71710  12.629  25.333  11.429 -0.2093 -0.2164 -0.0886
35477POPC   C4A71711  12.430  25.029  11.099  0.2420 -0.0378 -0.0503
35477POPC   C1B71712  12.625  25.742  11.848 -0.5208  0.1625 -0.1016
35477POPC   C2B71713  12.445  25.322  11.873 -0.4160 -0.1229  0.0815
35477POPC   C3B71714  12.179  24.965  11.654 -0.1055  0.2241  0.0498
35477POPC   C4B71715  12.064  24.751  11.276 -0.2681  0.1482  0.2263
35478POPC   NC371716   3.046  16.736  16.261 -0.0993  0.0077 -0.1395
35478POPC   PO471717   2.957  17.112  16.304 -0.2655 -0.0416 -0.0990
35478POPC   GL171718   2.668  17.286  16.508  0.1555  0.0224  0.1421
35478POPC   GL271719   2.844  17.349  16.755  0.1625 -0.0810 -0.1887
35478POPC   C1A71720   2.388  17.522  16.789  0.0040 -0.0585  0.4465
35478POPC   D2A71721   2.302  17.811  17.090  0.0320  0.3536  0.2007
35478POPC   C3A71722   2.363  17.942  17.498 -0.0166 -0.0427  0.1011
35478POPC   C4A71723   2.649  18.001  17.898  0.2809 -0.3127 -0.1838
35478POPC   C1B71724   2.675  17.031  17.123 -0.1395  0.0577 -0.0191
35478POPC   C2B71725   2.840  16.904  17.514 -0.4856  0.0253 -0.0725
35478POPC   C3B71726   2.847  16.887  17.965 -0.0491 -0.0200  0.0852
35478POPC   C4B71727   3.023  16.650  18.352  0.0784  0.0568 -0.0335
35479POPC   NC371728   2.763  26.391  15.728 -0.0440 -0.1002  0.1486
35479POPC   PO471729   2.778  26.527  16.067 -0.2637 -0.1327  0.0159
35479POPC   GL171730   2.504  26.640  16.389  0.0528  0.0295  0.0791
35479POPC   GL271731   2.658  26.509  16.609  0.0813  0.0541 -0.1854
35479POPC   C1A71732   2.184  26.378  16.663  0.0147  0.0097  0.2632
35479POPC   D2A71733   2.028  26.104  17.007  0.0985 -0.2051 -0.4694
35479POPC   C3A71734   1.745  26.120  17.411 -0.1580 -0.1843 -0.4421
35479POPC   C4A71735   1.816  26.171  17.837 -0.2913  0.0353  0.0113
35479POPC   C1B71736   2.603  26.627  17.063  0.0586  0.1808 -0.0443
35479POPC   C2B71737   2.633  26.821  17.498  0.1147  0.0363  0.2363
35479POPC   C3B71738   2.490  26.507  17.851  0.1958  0.4056 -0.1884
35479POPC   C4B71739   2.559  26.258  18.218 -0.0200 -0.2291  0.0244
35480POPC   NC371740  15.742  17.075  15.850  0.0008  0.1372  0.1050
35480POPC   PO471741  15.342  17.104  15.826 -0.0573 -0.1277  0.0535
35480POPC   GL171742  14.970  17.128  16.165 -0.2497  0.0947  0.2285
35480POPC   GL271743  15.171  17.234  16.435  0.1263 -0.2083 -0.1289
35480POPC   C1A71744  14.822  16.909  16.531  0.3130 -0.0141  0.1774
35480POPC   D2A71745  14.930  16.824  16.973 -0.1207 -0.0629  0.1162
35480POPC   C3A71746  14.751  17.165  17.230 -0.2471  0.3259 -0.3365
35480POPC   C4A71747  14.939  17.438  17.594 -0.0346 -0.2038  0.3134
35480POPC   C1B71748  15.077  17.339  16.843 -0.0671  0.0660  0.0433
35480POPC   C2B71749  14.922  17.660  17.140 -0.1551 -0.0046  0.0909
35480POPC   C3B71750  14.730  17.928  17.438  0.3879 -0.3925 -0.0897
35480POPC   C4B71751  14.464  18.025  17.768 -0.2467 -0.0475  0.1607
35481POPC   NC371752   6.368  18.497  13.757 -0.0115  0.2843 -0.2418
35481POPC   PO471753   6.187  18.851  13.609  0.1903 -0.2514 -0.1643
35481POPC   GL171754   6.447  19.016  13.823 -0.0672  0.0679  0.0219
35481POPC   GL271755   6.714  19.037  13.915 -0.0125  0.2410 -0.0757
35481POPC   C1A71756   6.378  19.391  14.021  0.0546 -0.3710  0.0258
35481POPC   D2A71757   6.500  19.842  14.038 -0.3727  0.3141 -0.3029
35481POPC   C3A71758   6.672  20.224  14.176  0.1165 -0.1086 -0.2314
35481POPC   C4A71759   6.684  20.379  14.625 -0.3149 -0.0920 -0.2636
35481POPC   C1B71760   6.413  19.014  14.308 -0.0937 -0.0660  0.0993
35481POPC   C2B71761   6.455  19.066  14.724 -0.0451  0.0855 -0.0508
35481POPC   C3B71762   6.547  18.898  15.159 -0.0996  0.0228  0.4493
35481POPC   C4B71763   6.792  19.084  15.527  0.0251 -0.2205  0.1670
35482POPC   NC371764   9.997  27.358  12.214 -0.1745 -0.4149  0.0588
35482POPC   PO471765   9.902  27.290  12.562 -0.3028  0.0054 -0.0534
35482POPC   GL171766   9.958  26.979  12.403 -0.0853  0.1235  0.0143
35482POPC   GL271767   9.748  26.820  12.327  0.2204  0.1092 -0.2444
35482POPC   C1A71768  10.214  26.538  12.289 -0.0224  0.2194 -0.0458
35482POPC   D2A71769  10.284  26.062  12.338  0.0489  0.1184  0.0314
35482POPC   C3A71770  10.199  25.612  12.168 -0.0296 -0.2366  0.0104
35482POPC   C4A71771  10.342  25.257  11.836 -0.2529 -0.1516 -0.3048
35482POPC   C1B71772   9.784  26.325  12.160 -0.0109 -0.1314 -0.2343
35482POPC   C2B71773   9.631  25.926  11.968  0.0430  0.1337 -0.4548
35482POPC   C3B71774   9.677  25.503  12.025 -0.0316  0.0026  0.1445
35482POPC   C4B71775   9.926  25.079  11.947 -0.3240 -0.0296 -0.1282
35483POPC   NC371776   6.089  26.225  10.463 -0.1077  0.1836  0.4140
35483POPC   PO471777   6.431  26.320  10.664  0.1342  0.1058  0.0494
35483POPC   GL171778   6.506  26.358  10.277  0.0232 -0.2965 -0.0093
35483POPC   GL271779   6.867  26.308  10.252  0.0655 -0.3168 -0.1153
35483POPC   C1A71780   6.645  26.208   9.824  0.0709 -0.2130 -0.0404
35483POPC   D2A71781   6.584  26.097   9.331 -0.0492  0.1649 -0.3890
35483POPC   C3A71782   6.936  25.928   9.115 -0.2491  0.0129 -0.3993
35483POPC   C4A71783   7.129  25.622   8.828  0.2407 -0.1276 -0.0159
35483POPC   C1B71784   7.147  26.028  10.045 -0.0614  0.3161  0.0735
35483POPC   C2B71785   7.320  25.684   9.789 -0.0935  0.1164  0.0680
35483POPC   C3B71786   7.674  25.405   9.559  0.0655  0.0779  0.1339
35483POPC   C4B71787   8.055  25.252   9.289 -0.1552 -0.1140 -0.4299
35484POPC   NC371788  12.217  27.825  10.229  0.0519  0.0009 -0.3474
35484POPC   PO471789  12.415  27.574  10.015 -0.1863  0.0328 -0.1542
35484POPC   GL171790  12.157  27.310   9.823  0.3457 -0.1707 -0.4227
35484POPC   GL271791  12.103  27.326   9.498 -0.2584 -0.0779 -0.0060
35484POPC   C1A71792  12.183  26.856   9.744 -0.0852  0.0916 -0.0684
35484POPC   D2A71793  12.365  26.514   9.553 -0.1250 -0.1382  0.3592
35484POPC   C3A71794  12.177  26.360   9.123  0.1209 -0.0035  0.0561
35484POPC   C4A71795  12.050  26.287   8.652 -0.2187  0.1558  0.1232
35484POPC   C1B71796  12.060  26.942   9.206 -0.0833  0.1788 -0.1726
35484POPC   C2B71797  11.849  26.683   8.914  0.1882 -0.1461 -0.0976
35484POPC   C3B71798  11.652  26.532   8.511  0.1358  0.3075 -0.0646
35484POPC   C4B71799  11.756  26.166   8.253  0.0899  0.1676  0.2097
35485POPC   NC371800  11.295  27.570  11.624 -0.0831  0.4104  0.0373
35485POPC   PO471801  11.026  27.335  11.752 -0.0761 -0.0287 -0.0556
35485POPC   GL171802  10.816  26.974  11.578  0.2842 -0.1359 -0.1047
35485POPC   GL271803  10.561  27.073  11.487 -0.0275 -0.1219  0.0723
35485POPC   C1A71804  10.685  26.653  11.784 -0.1787  0.1876 -0.0126
35485POPC   D2A71805  10.566  26.232  11.914 -0.2882  0.1131  0.1455
35485POPC   C3A71806  10.182  25.964  11.838 -0.0878  0.3151 -0.0987
35485POPC   C4A71807  10.045  25.594  11.633 -0.0242 -0.0343 -0.0412
35485POPC   C1B71808  10.503  26.601  11.287  0.1535 -0.1293  0.4472
35485POPC   C2B71809  10.644  26.186  11.442 -0.2023  0.0212  0.2363
35485POPC   C3B71810  10.465  25.754  11.398 -0.0023  0.1108  0.0394
35485POPC   C4B71811  10.378  25.332  11.314  0.0216 -0.1380 -0.2592
35486POPC   NC371812   1.754  16.734  16.171  0.3668 -0.3261  0.1122
35486POPC   PO471813   1.553  16.410  16.253 -0.2447  0.3680  0.1214
35486POPC   GL171814   1.512  16.538  16.589  0.0429 -0.0571 -0.0357
35486POPC   GL271815   1.724  16.663  16.704  0.3189 -0.0638 -0.1051
35486POPC   C1A71816   1.376  16.552  17.013  0.3119  0.3556  0.1510
35486POPC   D2A71817   1.101  16.750  17.268  0.1525 -0.2040  0.1624
35486POPC   C3A71818   1.434  16.824  17.679 -0.1381 -0.0262  0.0318
35486POPC   C4A71819   1.630  16.650  18.105 -0.0414  0.1308 -0.0560
35486POPC   C1B71820   1.784  16.628  17.167 -0.4036 -0.0516 -0.2284
35486POPC   C2B71821   1.874  16.519  17.654 -0.2456  0.0114  0.2565
35486POPC   C3B71822   2.162  16.672  18.017  0.0446  0.0453  0.3093
35486POPC   C4B71823   2.366  17.061  17.997 -0.0005  0.0317  0.3221
35487POPC   NC371824   7.212  16.802  15.139 -0.0844 -0.0446  0.1287
35487POPC   PO471825   7.179  16.789  14.747 -0.3193 -0.1696  0.0056
35487POPC   GL171826   7.213  17.156  14.823 -0.2169 -0.1682  0.2501
35487POPC   GL271827   7.110  17.291  15.024  0.0285 -0.2089 -0.1202
35487POPC   C1A71828   7.535  17.481  14.835  0.1255  0.0228  0.0056
35487POPC   D2A71829   7.718  17.865  15.024 -0.0178 -0.0578  0.2741
35487POPC   C3A71830   8.145  18.000  15.175 -0.0922 -0.0235 -0.2839
35487POPC   C4A71831   8.559  18.113  15.211 -0.0893  0.2479  0.1887
35487POPC   C1B71832   7.358  17.661  15.274  0.1832 -0.1477  0.1453
35487POPC   C2B71833   7.657  17.936  15.509 -0.2038 -0.0297 -0.1886
35487POPC   C3B71834   8.130  18.072  15.670 -0.0357 -0.1311 -0.1055
35487POPC   C4B71835   8.529  18.014  15.754 -0.2417  0.3065 -0.0612
35488POPC   NC371836  15.742  23.526  14.831 -0.3512  0.0365  0.0442
35488POPC   PO471837  15.864  23.576  15.218 -0.1026 -0.0345  0.3023
35488POPC   GL171838  15.928  23.562  15.575  0.1553  0.1871 -0.3384
35488POPC   GL271839  15.947  23.301  15.660 -0.3753  0.1137 -0.2075
35488POPC   C1A71840  15.921  23.678  16.052 -0.2435 -0.1192  0.1642
35488POPC   D2A71841  16.240  23.915  16.345 -0.3464  0.0863  0.1334
35488POPC   C3A71842  16.319  23.763  16.784 -0.2576  0.2127 -0.2781
35488POPC   C4A71843  16.729  23.859  17.014 -0.1169  0.1562  0.2643
35488POPC   C1B71844  15.656  23.242  16.040 -0.2191  0.4853 -0.2346
35488POPC   C2B71845  15.521  23.329  16.497  0.0977 -0.1802  0.0311
35488POPC   C3B71846  15.402  23.507  16.926 -0.1107 -0.1114  0.0460
35488POPC   C4B71847  15.377  23.597  17.432 -0.1206 -0.0168  0.1078
35489POPC   NC371848   1.149  24.698  16.305 -0.1994 -0.1821  0.0686
35489POPC   PO471849   1.293  24.331  16.192 -0.1394 -0.0877 -0.4827
35489POPC   GL171850   1.481  24.339  16.506 -0.3043  0.0888 -0.2227
35489POPC   GL271851   1.592  24.090  16.517  0.1372 -0.1157  0.0896
35489POPC   C1A71852   1.371  24.259  16.945 -0.0795 -0.0535  0.2347
35489POPC   D2A71853   1.580  24.196  17.403 -0.0436 -0.1915  0.0437
35489POPC   C3A71854   1.660  24.647  17.579 -0.0823 -0.0465  0.2460
35489POPC   C4A71855   1.685  25.097  17.721 -0.0169 -0.0857  0.1377
35489POPC   C1B71856   1.542  23.791  16.853  0.0094  0.1223  0.2938
35489POPC   C2B71857   1.449  23.713  17.338  0.0087  0.2464 -0.1644
35489POPC   C3B71858   1.399  23.800  17.801 -0.1358  0.2529  0.1423
35489POPC   C4B71859   1.574  24.148  18.030  0.1689  0.2487  0.0558
35490POPC   NC371860   0.478  17.888  15.670  0.1193 -0.2153  0.1253
35490POPC   PO471861   0.366  18.252  15.903 -0.2182  0.1639  0.2531
35490POPC   GL171862   0.214  18.365  16.198 -0.0918  0.0779 -0.0105
35490POPC   GL271863   0.058  18.154  16.287 -0.3703  0.1072 -0.1902
35490POPC   C1A71864   0.382  18.234  16.632  0.1072 -0.0524  0.0252
35490POPC   D2A71865   0.781  17.927  16.726 -0.0285 -0.2642 -0.1100
35490POPC   C3A71866   0.649  17.837  17.143 -0.1060  0.1391 -0.1423
35490POPC   C4A71867   0.564  18.173  17.479  0.2180  0.2503  0.2236
35490POPC   C1B71868  -0.253  18.143  16.594  0.1469 -0.0156 -0.1048
35490POPC   C2B71869  -0.447  18.243  17.004  0.0537 -0.0348  0.0401
35490POPC   C3B71870  -0.797  18.550  17.241 -0.0119 -0.2113  0.2140
35490POPC   C4B71871  -1.157  18.645  17.047  0.2303 -0.0980  0.1109
35491POPC   NC371872  14.394  28.308  16.209  0.0752  0.2540  0.1789
35491POPC   PO471873  14.506  28.451  16.541  0.0847  0.1676  0.1600
35491POPC   GL171874  14.387  28.327  16.933 -0.0978 -0.1154 -0.1353
35491POPC   GL271875  14.501  28.099  17.089 -0.0334  0.3102  0.2227
35491POPC   C1A71876  14.089  28.157  17.311  0.1266 -0.3395 -0.1218
35491POPC   D2A71877  14.053  27.836  17.640  0.0206 -0.0666  0.1835
35491POPC   C3A71878  13.959  27.641  18.025 -0.0246  0.0025  0.0100
35491POPC   C4A71879  13.837  27.376  18.349  0.0910 -0.2474 -0.0889
35491POPC   C1B71880  14.666  27.952  17.512  0.0622 -0.1032  0.2966
35491POPC   C2B71881  14.971  27.876  17.809  0.2317 -0.0679 -0.0410
35491POPC   C3B71882  15.395  27.717  17.914  0.2937 -0.0309 -0.0035
35491POPC   C4B71883  15.718  27.567  18.190  0.2972 -0.1198  0.1607
35492POPC   NC371884   5.675  23.585  13.719 -0.1495  0.1225 -0.0098
35492POPC   PO471885   5.538  23.963  13.808  0.0463  0.1458  0.0685
35492POPC   GL171886   5.874  23.862  14.052  0.1003 -0.1004 -0.3451
35492POPC   GL271887   5.959  24.091  14.042  0.1415 -0.2404 -0.0200
35492POPC   C1A71888   6.318  23.733  14.181 -0.0382  0.1760  0.0875
35492POPC   D2A71889   6.591  23.921  14.509  0.0205  0.1166 -0.0556
35492POPC   C3A71890   6.952  23.848  14.775  0.1296 -0.2742 -0.2304
35492POPC   C4A71891   7.316  23.957  14.992 -0.1176 -0.1460 -0.0646
35492POPC   C1B71892   6.056  23.993  14.541  0.0816 -0.1388 -0.1384
35492POPC   C2B71893   6.147  23.619  14.807  0.0764 -0.0758  0.0538
35492POPC   C3B71894   6.212  23.584  15.319  0.2896 -0.0787 -0.0529
35492POPC   C4B71895   6.161  23.326  15.619 -0.1940 -0.4785 -0.1382
35493POPC   NC371896   6.889  27.152   9.875 -0.1649  0.2640 -0.1826
35493POPC   PO471897   6.703  27.164  10.190  0.2995 -0.2609  0.2393
35493POPC   GL171898   6.767  26.755  10.080  0.0988  0.1745 -0.0825
35493POPC   GL271899   7.030  26.729  10.245  0.3507 -0.1643 -0.2176
35493POPC   C1A71900   7.075  26.511   9.808  0.0237 -0.0144 -0.1294
35493POPC   D2A71901   7.151  26.119   9.521  0.2308  0.0988  0.0854
35493POPC   C3A71902   6.873  25.767   9.620 -0.0152 -0.1290 -0.1426
35493POPC   C4A71903   6.789  25.314   9.852 -0.0171  0.0114 -0.1808
35493POPC   C1B71904   7.363  26.428  10.247  0.1690  0.0799  0.2310
35493POPC   C2B71905   7.614  26.222   9.910  0.0477 -0.1676  0.1212
35493POPC   C3B71906   7.691  26.023   9.509 -0.2165 -0.0695 -0.2688
35493POPC   C4B71907   7.862  25.723   9.218  0.0527 -0.2779  0.0530
35494POPC   NC371908   2.747  31.700  16.555  0.0206  0.2015  0.2780
35494POPC   PO471909   3.026  31.599  16.305 -0.1541  0.0561 -0.4057
35494POPC   GL171910   3.183  31.680  16.589  0.2505 -0.0716  0.2225
35494POPC   GL271911   3.290  31.855  16.685  0.1430 -0.2042  0.0293
35494POPC   C1A71912   3.012  31.515  16.982 -0.4073 -0.2517 -0.1227
35494POPC   D2A71913   2.774  31.742  17.315  0.3164 -0.0845  0.0256
35494POPC   C3A71914   2.542  31.637  17.709 -0.2664  0.1544  0.1010
35494POPC   C4A71915   2.363  31.533  18.117  0.0226  0.0692 -0.0594
35494POPC   C1B71916   3.214  31.924  17.143 -0.0654  0.1487 -0.3394
35494POPC   C2B71917   3.231  32.165  17.590  0.0653  0.4382  0.1264
35494POPC   C3B71918   3.163  32.199  18.089 -0.1447  0.2107  0.0502
35494POPC   C4B71919   2.988  32.067  18.534 -0.4059  0.0982 -0.0426
35495POPC   NC371920   5.491  24.102  14.301 -0.1758  0.1831  0.1612
35495POPC   PO471921   5.310  23.838  14.528  0.1613 -0.0913 -0.1446
35495POPC   GL171922   5.590  23.749  14.781 -0.0421 -0.2153  0.0196
35495POPC   GL271923   5.767  23.913  14.932  0.1314 -0.1225  0.0519
35495POPC   C1A71924   5.774  23.509  15.184  0.0644  0.1961  0.2987
35495POPC   D2A71925   5.834  23.094  15.402 -0.1243 -0.0336  0.0134
35495POPC   C3A71926   6.221  22.852  15.413  0.1079  0.1908  0.0304
35495POPC   C4A71927   6.532  22.528  15.607 -0.0585  0.2133  0.2220
35495POPC   C1B71928   5.902  24.059  15.367  0.3419 -0.0276 -0.3096
35495POPC   C2B71929   6.179  23.950  15.668  0.0184 -0.1286 -0.4782
35495POPC   C3B71930   6.309  23.704  16.038  0.0743 -0.0238 -0.0955
35495POPC   C4B71931   6.423  23.784  16.424 -0.0295 -0.6390 -0.2407
35496POPC   NC371932  14.665  29.963  16.789 -0.1400  0.2412  0.2477
35496POPC   PO471933  14.376  29.903  16.587  0.3009 -0.1028  0.2373
35496POPC   GL171934  14.244  29.929  16.961  0.2584  0.0483  0.1802
35496POPC   GL271935  14.052  30.159  16.988 -0.0312  0.0809 -0.1147
35496POPC   C1A71936  14.244  29.933  17.413  0.1261  0.1969 -0.1009
35496POPC   D2A71937  14.420  29.962  17.872 -0.1789  0.0920 -0.1337
35496POPC   C3A71938  14.207  29.578  18.073  0.0249  0.0112  0.2110
35496POPC   C4A71939  14.137  29.247  18.399 -0.0992 -0.0242 -0.2946
35496POPC   C1B71940  14.019  30.496  17.369 -0.2969  0.0246 -0.3405
35496POPC   C2B71941  14.197  30.430  17.792 -0.2352  0.2721  0.0747
35496POPC   C3B71942  14.210  30.434  18.251 -0.0738  0.0701 -0.0883
35496POPC   C4B71943  14.060  30.323  18.680 -0.0241  0.4543  0.0981
35497POPC   NC371944   5.788  21.881  13.809  0.3468 -0.1371 -0.5480
35497POPC   PO471945   5.728  21.545  14.011 -0.1232 -0.1939  0.2609
35497POPC   GL171946   6.085  21.527  14.190  0.0927  0.0044 -0.3226
35497POPC   GL271947   5.994  21.778  14.337  0.0723  0.0273  0.0684
35497POPC   C1A71948   6.539  21.579  14.236  0.2847 -0.0683  0.1226
35497POPC   D2A71949   6.882  21.668  14.563 -0.1835  0.0326  0.0858
35497POPC   C3A71950   6.924  21.754  15.049  0.0084  0.0734  0.3189
35497POPC   C4A71951   6.865  21.829  15.492  0.3369 -0.1176 -0.3248
35497POPC   C1B71952   5.830  21.766  14.799 -0.1359  0.0060  0.2442
35497POPC   C2B71953   6.062  21.789  15.168 -0.2165  0.1050 -0.1340
35497POPC   C3B71954   6.435  21.836  15.377  0.3534  0.0377  0.0944
35497POPC   C4B71955   6.486  21.854  15.836  0.1891  0.0635 -0.1141
35498POPC   NC371956  14.473  18.901  14.781 -0.3152  0.2018 -0.1290
35498POPC   PO471957  14.700  19.078  15.044  0.0862  0.0308  0.3118
35498POPC   GL171958  14.477  19.162  15.286 -0.0052  0.0613 -0.0632
35498POPC   GL271959  14.735  19.312  15.445  0.2858  0.0712  0.0410
35498POPC   C1A71960  14.243  19.445  15.562 -0.3896  0.4711 -0.0820
35498POPC   D2A71961  13.852  19.574  15.893  0.0650 -0.1476  0.4919
35498POPC   C3A71962  13.818  20.014  15.812 -0.2039 -0.3967  0.0710
35498POPC   C4A71963  14.115  20.299  15.927 -0.2883  0.1186  0.1376
35498POPC   C1B71964  15.034  19.580  15.562 -0.0534 -0.0617  0.0950
35498POPC   C2B71965  15.113  19.845  15.959 -0.2634 -0.0299 -0.1897
35498POPC   C3B71966  15.445  19.828  16.276  0.0674 -0.1511 -0.1685
35498POPC   C4B71967  15.471  19.619  16.693  0.0906 -0.0400  0.0084
35499POPC   NC371968  12.615  15.580  15.888  0.0855  0.4438 -0.1364
35499POPC   PO471969  12.518  15.848  15.636 -0.3711 -0.3200 -0.0575
35499POPC   GL171970  12.542  16.131  15.756  0.1892  0.0678  0.2493
35499POPC   GL271971  12.813  16.225  15.924  0.1062 -0.0654  0.0892
35499POPC   C1A71972  12.381  16.275  16.190 -0.1425  0.0839 -0.2801
35499POPC   D2A71973  12.399  16.440  16.645 -0.1104 -0.1685  0.0614
35499POPC   C3A71974  12.505  16.860  16.821 -0.1891 -0.0312 -0.0463
35499POPC   C4A71975  12.732  17.209  16.676  0.1583  0.0627  0.0542
35499POPC   C1B71976  12.832  16.490  16.252 -0.1656 -0.0434 -0.0109
35499POPC   C2B71977  13.013  16.355  16.654 -0.0121  0.3082 -0.3724
35499POPC   C3B71978  12.792  16.304  17.027 -0.1223 -0.2471  0.0980
35499POPC   C4B71979  12.742  16.384  17.515 -0.0205 -0.0175  0.2742
35500POPC   NC371980  13.057  17.834  12.447  0.1234 -0.1668 -0.0335
35500POPC   PO471981  13.085  17.869  12.861 -0.0429  0.0416  0.2607
35500POPC   GL171982  12.912  18.202  12.731  0.0828  0.0108 -0.3108
35500POPC   GL271983  12.698  18.218  12.567  0.1743 -0.0950  0.1669
35500POPC   C1A71984  12.783  18.621  12.926 -0.0539  0.0846 -0.2703
35500POPC   D2A71985  12.560  19.017  12.736 -0.3722 -0.2218  0.0181
35500POPC   C3A71986  12.775  19.383  12.586 -0.1084  0.2201  0.0098
35500POPC   C4A71987  13.101  19.701  12.728  0.0488  0.0910 -0.0309
35500POPC   C1B71988  12.573  18.575  12.317  0.1950  0.1778 -0.0809
35500POPC   C2B71989  12.427  18.753  11.907  0.2343  0.0622  0.1825
35500POPC   C3B71990  12.117  19.047  11.756  0.0426 -0.0813  0.1437
35500POPC   C4B71991  11.674  18.940  11.654  0.2214 -0.0830 -0.2007
35501POPC   NC371992  15.849  31.927  16.583  0.2290 -0.0617  0.1849
35501POPC   PO471993  16.082  31.681  16.356  0.0230 -0.1855 -0.1597
35501POPC   GL171994  16.309  31.681  16.721  0.0916  0.0901 -0.1519
35501POPC   GL271995  16.272  31.425  16.829 -0.2434  0.0530  0.1251
35501POPC   C1A71996  16.369  31.837  17.191  0.2269 -0.1204 -0.1200
35501POPC   D2A71997  16.344  32.108  17.594 -0.0156  0.0558  0.1476
35501POPC   C3A71998  16.305  31.835  18.016 -0.0560 -0.1096  0.2360
35501POPC   C4A71999  16.274  31.864  18.439 -0.1104 -0.1085  0.1809
35501POPC   C1B72000  15.879  31.610  17.041 -0.0351 -0.1145 -0.0664
35501POPC   C2B72001  15.806  31.885  17.396 -0.0495 -0.2932  0.0012
35501POPC   C3B72002  15.380  32.111  17.455 -0.0295  0.1471  0.0565
35501POPC   C4B72003  14.939  32.014  17.635  0.1301 -0.4677 -0.1914
35502POPC   NC372004   8.040  26.727  11.894 -0.2395  0.1390 -0.0873
35502POPC   PO472005   8.209  27.043  12.068 -0.4380  0.4064 -0.2268
35502POPC   GL172006   8.387  26.895  11.717 -0.2444  0.2844  0.1882
35502POPC   GL272007   8.634  27.066  11.626  0.1730 -0.1755  0.2212
35502POPC   C1A72008   8.269  26.588  11.407  0.2039  0.0523  0.1650
35502POPC   D2A72009   8.340  26.166  11.307 -0.1529  0.1794  0.0916
35502POPC   C3A72010   8.750  26.019  11.044  0.0702 -0.1002  0.0110
35502POPC   C4A72011   8.911  25.668  10.813 -0.0662  0.0008  0.1815
35502POPC   C1B72012   8.791  26.923  11.236 -0.0579  0.1454  0.2981
35502POPC   C2B72013   8.936  26.882  10.752 -0.1320 -0.0932 -0.2685
35502POPC   C3B72014   8.888  26.530  10.496 -0.1265 -0.2136  0.1743
35502POPC   C4B72015   8.941  26.411  10.020  0.1564 -0.1565  0.0193
35503POPC   NC372016   8.414  17.773  11.964 -0.0985 -0.1730 -0.0874
35503POPC   PO472017   8.368  17.613  12.348 -0.1380  0.1637  0.1806
35503POPC   GL172018   8.498  17.985  12.369 -0.0187  0.3743 -0.0582
35503POPC   GL272019   8.732  18.050  12.457 -0.0602  0.0508  0.2541
35503POPC   C1A72020   8.440  18.440  12.419  0.5242  0.2928  0.0026
35503POPC   D2A72021   8.727  18.791  12.544  0.2818  0.0139  0.2269
35503POPC   C3A72022   8.840  18.972  12.935  0.0042 -0.2701  0.1049
35503POPC   C4A72023   8.773  19.276  13.298  0.1918 -0.2000 -0.0092
35503POPC   C1B72024   8.997  18.401  12.527  0.2941  0.1764  0.0675
35503POPC   C2B72025   9.218  18.759  12.570  0.2127  0.0496 -0.0658
35503POPC   C3B72026   9.557  19.061  12.460  0.3763 -0.2434 -0.0998
35503POPC   C4B72027   9.727  19.500  12.470 -0.0630  0.0676  0.2304
35504POPC   NC372028  15.646  16.169  15.657  0.0020 -0.0903  0.1513
35504POPC   PO472029  15.336  16.270  15.875  0.2176  0.1937  0.0063
35504POPC   GL172030  15.300  16.529  16.186 -0.4751 -0.3021 -0.1059
35504POPC   GL272031  15.449  16.766  16.180 -0.0360  0.0686 -0.1931
35504POPC   C1A72032  15.299  16.610  16.643  0.1122 -0.0876  0.1076
35504POPC   D2A72033  15.381  16.487  17.062  0.0051  0.1334  0.1014
35504POPC   C3A72034  15.124  16.489  17.407 -0.0714  0.1037 -0.0944
35504POPC   C4A72035  14.986  16.334  17.803 -0.1476 -0.0250 -0.0061
35504POPC   C1B72036  15.613  17.005  16.560 -0.2011 -0.2148 -0.3722
35504POPC   C2B72037  15.563  17.026  17.000  0.2064 -0.1729 -0.0009
35504POPC   C3B72038  15.373  17.087  17.384 -0.0316 -0.1343  0.3878
35504POPC   C4B72039  15.001  16.893  17.619 -0.0045 -0.3821  0.3188
35505POPC   NC372040  15.750  28.419  16.983 -0.1017  0.1159 -0.1645
35505POPC   PO472041  16.041  28.391  16.757  0.0122  0.0130 -0.3693
35505POPC   GL172042  16.170  28.234  17.170 -0.0706 -0.1533  0.1096
35505POPC   GL272043  16.352  28.367  17.274  0.4180  0.1779 -0.2709
35505POPC   C1A72044  16.313  27.848  17.269  0.1146 -0.1501  0.2748
35505POPC   D2A72045  16.498  27.626  17.661 -0.0271 -0.1152 -0.1775
35505POPC   C3A72046  16.583  27.336  18.003  0.4089  0.1754 -0.1336
35505POPC   C4A72047  16.608  27.189  18.438  0.1019 -0.0014  0.2050
35505POPC   C1B72048  16.301  28.175  17.647  0.1575 -0.2607  0.1019
35505POPC   C2B72049  16.370  28.276  18.144 -0.1870 -0.2103  0.0614
35505POPC   C3B72050  16.687  28.444  18.461 -0.4207 -0.1654  0.1268
35505POPC   C4B72051  17.141  28.532  18.427  0.0127  0.0800 -0.3014
35506POPC   NC372052   5.562  31.652  16.199  0.0118 -0.1044  0.2741
35506POPC   PO472053   5.713  31.340  16.379 -0.0680 -0.4962 -0.3140
35506POPC   GL172054   5.926  31.660  16.620  0.0877 -0.2442 -0.0377
35506POPC   GL272055   5.603  31.758  16.680 -0.0963 -0.2888  0.1983
35506POPC   C1A72056   5.954  32.036  16.862 -0.0610 -0.1733 -0.2976
35506POPC   D2A72057   5.975  32.103  17.273  0.4155  0.0861 -0.0097
35506POPC   C3A72058   5.832  32.260  17.670 -0.5142 -0.1099 -0.3854
35506POPC   C4A72059   5.781  32.160  18.137  0.0093  0.0579  0.1978
35506POPC   C1B72060   5.605  31.786  17.172  0.3996 -0.1364 -0.0585
35506POPC   C2B72061   5.497  31.855  17.629 -0.0697  0.0344 -0.3660
35506POPC   C3B72062   5.402  31.731  18.101  0.0457 -0.1536  0.1876
35506POPC   C4B72063   5.083  31.666  18.447  0.1211  0.3508  0.1742
35507POPC   NC372064  15.196  28.456  16.682  0.2549 -0.0538  0.3188
35507POPC   PO472065  15.324  28.790  16.905 -0.1587  0.0551 -0.0206
35507POPC   GL172066  15.318  28.710  17.233  0.1910  0.0066  0.0995
35507POPC   GL272067  15.393  28.540  17.388 -0.1216 -0.2342  0.2654
35507POPC   C1A72068  15.150  28.930  17.567  0.1458  0.0115  0.1547
35507POPC   D2A72069  15.103  28.735  17.980  0.2877 -0.0145  0.1266
35507POPC   C3A72070  14.994  28.830  18.404 -0.1686  0.0245 -0.2140
35507POPC   C4A72071  14.873  28.942  18.865 -0.0978  0.1587 -0.1020
35507POPC   C1B72072  15.567  28.656  17.751  0.1838  0.0983 -0.1342
35507POPC   C2B72073  15.575  28.582  18.247 -0.1005  0.1282 -0.1004
35507POPC   C3B72074  15.893  28.390  18.504  0.1801 -0.1473  0.1298
35507POPC   C4B72075  16.311  28.212  18.637  0.1186 -0.2446  0.2770
35508POPC   NC372076   6.369  30.148  16.605  0.1395 -0.0039 -0.0827
35508POPC   PO472077   5.969  30.028  16.578  0.0580 -0.1466 -0.0994
35508POPC   GL172078   5.879  30.217  16.880 -0.3082  0.1231 -0.3846
35508POPC   GL272079   5.667  30.411  17.004  0.0961  0.0534 -0.1728
35508POPC   C1A72080   5.799  30.047  17.365 -0.1907 -0.0828 -0.0201
35508POPC   D2A72081   6.067  29.947  17.710  0.0086 -0.0750  0.3106
35508POPC   C3A72082   6.040  30.063  18.135 -0.5006 -0.0046  0.1100
35508POPC   C4A72083   6.242  29.987  18.530 -0.0814  0.1767  0.0370
35508POPC   C1B72084   5.458  30.433  17.376 -0.2559 -0.2033  0.0732
35508POPC   C2B72085   5.518  30.277  17.778 -0.3096 -0.0171 -0.0763
35508POPC   C3B72086   5.377  30.097  18.143 -0.0906  0.3473  0.1473
35508POPC   C4B72087   5.255  29.674  18.364 -0.0846 -0.2868  0.1614
35509POPC   NC372088  15.099  23.216  13.578 -0.1301 -0.0996 -0.0712
35509POPC   PO472089  15.027  22.994  13.262 -0.0231  0.4029 -0.2306
35509POPC   GL172090  14.654  22.893  13.147 -0.1634 -0.4521 -0.2780
35509POPC   GL272091  14.683  22.729  12.956  0.2031 -0.0774  0.2436
35509POPC   C1A72092  14.215  22.819  13.108  0.0195  0.0802 -0.2428
35509POPC   D2A72093  13.773  22.645  12.991 -0.0702 -0.2779 -0.1283
35509POPC   C3A72094  13.671  22.260  12.814  0.1215 -0.3832 -0.2469
35509POPC   C4A72095  13.464  21.834  12.934 -0.1035  0.2764 -0.0690
35509POPC   C1B72096  14.431  23.075  12.761  0.0624 -0.0579  0.1558
35509POPC   C2B72097  14.060  23.263  12.671  0.1082  0.1137  0.0323
35509POPC   C3B72098  13.621  23.493  12.662  0.2211  0.1737 -0.0966
35509POPC   C4B72099  13.203  23.333  12.636  0.0560  0.1387 -0.0211
35510POPC   NC372100   9.600  27.663  15.761 -0.0651  0.0400 -0.0005
35510POPC   PO472101  10.014  27.660  15.719  0.0344  0.0860  0.4024
35510POPC   GL172102  10.235  27.627  15.989 -0.5147 -0.0254 -0.0412
35510POPC   GL272103  10.246  27.786  16.247  0.0065 -0.2874 -0.1564
35510POPC   C1A72104  10.538  27.286  16.183 -0.0020  0.1296 -0.0593
35510POPC   D2A72105  10.937  27.248  16.298  0.0568  0.0523 -0.0773
35510POPC   C3A72106  11.035  26.995  16.711  0.0079 -0.2242  0.0022
35510POPC   C4A72107  11.020  26.674  17.063 -0.1527  0.1151  0.0346
35510POPC   C1B72108  10.161  27.382  16.443 -0.0452  0.0685  0.0577
35510POPC   C2B72109   9.983  27.125  16.777 -0.0904  0.3028  0.2087
35510POPC   C3B72110   9.810  27.200  17.202  0.3499 -0.1482  0.1284
35510POPC   C4B72111   9.751  27.307  17.591 -0.1175 -0.0786  0.0966
35511POPC   NC372112   5.814  30.665  16.653 -0.1201  0.2701  0.0772
35511POPC   PO472113   6.197  30.562  16.649  0.2166 -0.0635  0.1332
35511POPC   GL172114   6.111  30.529  17.043  0.1473  0.0289  0.0593
35511POPC   GL272115   6.086  30.870  17.091  0.2803  0.1360 -0.0128
35511POPC   C1A72116   5.935  30.528  17.435  0.1858 -0.0566  0.0120
35511POPC   D2A72117   5.914  30.621  17.904  0.0551 -0.2153 -0.0255
35511POPC   C3A72118   5.554  30.606  18.222  0.0661 -0.0610 -0.1812
35511POPC   C4A72119   5.305  30.362  18.562 -0.2087  0.0934 -0.0915
35511POPC   C1B72120   6.422  30.803  17.422 -0.0652 -0.0965 -0.0860
35511POPC   C2B72121   6.784  30.582  17.730  0.2033  0.5114 -0.0282
35511POPC   C3B72122   6.975  30.567  18.161 -0.0968  0.2104 -0.3414
35511POPC   C4B72123   7.264  30.521  18.495  0.1827 -0.2091 -0.3121
35512POPC   NC372124   8.017  27.409  15.650  0.0706 -0.0806 -0.0054
35512POPC   PO472125   7.794  27.684  15.631  0.1808 -0.1313 -0.0373
35512POPC   GL172126   7.650  27.481  15.967 -0.0345 -0.0384 -0.1503
35512POPC   GL272127   7.831  27.192  16.129  0.3786 -0.0082  0.3361
35512POPC   C1A72128   7.410  27.048  15.970 -0.0752  0.2515  0.0117
35512POPC   D2A72129   7.184  26.625  15.983 -0.4577 -0.3463 -0.1716
35512POPC   C3A72130   7.098  26.433  16.371 -0.2824 -0.3208  0.1755
35512POPC   C4A72131   7.129  26.335  16.763  0.0097 -0.0247  0.2523
35512POPC   C1B72132   7.770  26.952  16.559 -0.2688 -0.1790  0.3283
35512POPC   C2B72133   7.920  26.716  16.947 -0.0696  0.1369  0.2569
35512POPC   C3B72134   7.895  26.497  17.412 -0.4033  0.2311  0.1195
35512POPC   C4B72135   8.084  26.090  17.647  0.0969 -0.0281 -0.0319
35513POPC   NC372136  13.141  32.589   8.899  0.0871  0.0175 -0.2745
35513POPC   PO472137  12.977  32.312   8.662  0.1555 -0.1098 -0.0157
35513POPC   GL172138  13.026  32.575   8.384 -0.2157 -0.0366 -0.0628
35513POPC   GL272139  13.374  32.687   8.483  0.2402 -0.1225  0.1879
35513POPC   C1A72140  13.057  32.764   7.956 -0.2628 -0.0386 -0.1196
35513POPC   D2A72141  12.886  32.903   7.567  0.0609 -0.0312  0.0859
35513POPC   C3A72142  12.671  33.285   7.451 -0.1475  0.2126  0.1212
35513POPC   C4A72143  12.269  33.444   7.391 -0.0382 -0.0688  0.0661
35513POPC   C1B72144  13.444  32.522   8.049 -0.2146 -0.1756 -0.2257
35513POPC   C2B72145  13.370  32.677   7.606 -0.3799 -0.1109  0.1122
35513POPC   C3B72146  13.240  32.711   7.140 -0.1469 -0.0151 -0.1120
35513POPC   C4B72147  13.452  32.818   6.711  0.3215 -0.1614 -0.1722
35514POPC   NC372148  15.102  24.147  15.022  0.1058  0.2106 -0.0697
35514POPC   PO472149  15.340  24.236  15.351  0.2617  0.2074 -0.1695
35514POPC   GL172150  15.248  23.817  15.547 -0.0752 -0.1121 -0.1842
35514POPC   GL272151  15.439  23.571  15.737  0.0855 -0.0503  0.0193
35514POPC   C1A72152  14.928  23.562  15.720 -0.0435 -0.2162 -0.0940
35514POPC   D2A72153  14.625  23.799  15.970  0.1818  0.0850  0.3060
35514POPC   C3A72154  14.533  23.652  16.351  0.0150 -0.3133 -0.2715
35514POPC   C4A72155  14.477  23.443  16.770  0.0660 -0.1722 -0.1453
35514POPC   C1B72156  15.446  23.733  16.132 -0.0068 -0.1159  0.0449
35514POPC   C2B72157  15.316  23.892  16.548  0.0845  0.0031  0.2566
35514POPC   C3B72158  15.412  23.979  17.007  0.2390  0.0302 -0.1784
35514POPC   C4B72159  15.560  24.137  17.461  0.0957  0.2392  0.0793
35515POPC   NC372160  15.033  20.186  13.318  0.0799  0.0589  0.1071
35515POPC   PO472161  14.837  19.838  13.377  0.1061  0.1741 -0.4540
35515POPC   GL172162  14.513  19.734  13.657  0.0668  0.1332 -0.1732
35515POPC   GL272163  14.407  19.817  13.882 -0.2013 -0.2365  0.2653
35515POPC   C1A72164  14.114  19.882  13.428 -0.1192 -0.0899  0.0128
35515POPC   D2A72165  13.639  19.965  13.519 -0.0362 -0.0900  0.1711
35515POPC   C3A72166  13.324  20.272  13.533  0.2492  0.0832  0.0314
35515POPC   C4A72167  12.964  20.134  13.232  0.0601 -0.0962 -0.2766
35515POPC   C1B72168  13.923  19.726  13.903 -0.2481  0.1331 -0.0202
35515POPC   C2B72169  13.453  19.630  13.890 -0.0771 -0.0404 -0.1408
35515POPC   C3B72170  13.007  19.686  14.057  0.1203  0.0557 -0.2709
35515POPC   C4B72171  12.718  20.035  14.209  0.0676 -0.2321 -0.2101
35516POPC   NC372172   8.948  31.241  15.971 -0.0671  0.0801 -0.0798
35516POPC   PO472173   8.540  31.154  15.901  0.0970  0.0918 -0.0844
35516POPC   GL172174   8.500  31.037  16.229  0.0381  0.0052 -0.1592
35516POPC   GL272175   8.547  31.249  16.418  0.1069 -0.0952  0.1357
35516POPC   C1A72176   8.639  30.771  16.601 -0.0720  0.0917  0.4832
35516POPC   D2A72177   8.626  30.750  17.047  0.0202 -0.0376 -0.0207
35516POPC   C3A72178   8.610  30.829  17.474 -0.0248  0.1239 -0.1442
35516POPC   C4A72179   8.433  31.055  17.841 -0.1028 -0.0205  0.0154
35516POPC   C1B72180   8.663  31.248  16.886 -0.0787 -0.0268  0.3508
35516POPC   C2B72181   9.023  31.387  17.156  0.1627 -0.0571  0.3056
35516POPC   C3B72182   9.348  31.763  17.258  0.0480  0.2685  0.3052
35516POPC   C4B72183   9.385  32.086  17.620 -0.1157  0.1524 -0.2132
35517POPC   NC372184  12.656  27.871  16.511 -0.1302 -0.0880 -0.1311
35517POPC   PO472185  12.972  27.640  16.540 -0.0168  0.2705  0.0152
35517POPC   GL172186  12.857  27.411  16.830 -0.4911  0.2949 -0.0857
35517POPC   GL272187  12.580  27.474  16.838 -0.2212  0.2050  0.0778
35517POPC   C1A72188  12.728  26.950  16.894 -0.5071  0.0441  0.0374
35517POPC   D2A72189  12.857  26.476  17.027  0.3565  0.0004 -0.1540
35517POPC   C3A72190  13.048  26.235  17.389 -0.2732  0.2127 -0.1865
35517POPC   C4A72191  12.935  26.041  17.824  0.0214 -0.2075 -0.1113
35517POPC   C1B72192  12.181  27.612  17.139  0.4362 -0.3577  0.2749
35517POPC   C2B72193  11.878  27.599  17.505 -0.1889  0.0256  0.2297
35517POPC   C3B72194  11.650  27.771  17.857  0.0987 -0.1689  0.4240
35517POPC   C4B72195  11.257  27.607  18.011  0.1930 -0.2402 -0.1530
35518POPC   NC372196  12.644  25.804  14.557 -0.0621 -0.1203  0.0436
35518POPC   PO472197  12.700  25.859  14.173  0.1012  0.0364  0.0980
35518POPC   GL172198  12.538  25.515  14.222 -0.1479 -0.1214  0.0593
35518POPC   GL272199  12.370  25.469  14.423 -0.0107  0.2412  0.1401
35518POPC   C1A72200  12.418  25.040  14.154 -0.2284  0.1796 -0.0488
35518POPC   D2A72201  12.122  24.727  13.986  0.0052  0.0452 -0.0761
35518POPC   C3A72202  11.947  24.564  13.589 -0.2633  0.0064  0.0873
35518POPC   C4A72203  11.561  24.559  13.328  0.1830  0.1308  0.0263
35518POPC   C1B72204  12.053  25.162  14.607 -0.0448  0.1167  0.0269
35518POPC   C2B72205  11.943  24.742  14.495  0.1025  0.1150 -0.0825
35518POPC   C3B72206  11.778  24.339  14.264 -0.4241 -0.0970  0.2293
35518POPC   C4B72207  11.493  24.065  14.130  0.0841 -0.0896  0.0336
35519POPC   NC372208  15.537  17.547  15.181  0.1056 -0.1025  0.3141
35519POPC   PO472209  15.595  17.604  15.561 -0.1055  0.0839 -0.3060
35519POPC   GL172210  15.652  17.689  15.935  0.2959  0.1442  0.0804
35519POPC   GL272211  15.545  17.472  16.042 -0.0843 -0.3686 -0.1576
35519POPC   C1A72212  15.470  18.103  16.033 -0.1197 -0.1340  0.2178
35519POPC   D2A72213  15.390  18.518  16.137  0.0996 -0.1070 -0.1078
35519POPC   C3A72214  15.107  18.733  16.368  0.2179 -0.1085  0.1479
35519POPC   C4A72215  15.059  19.060  16.688 -0.0489  0.1049 -0.0605
35519POPC   C1B72216  15.293  17.722  16.361 -0.2268  0.0861  0.1569
35519POPC   C2B72217  15.245  17.850  16.815 -0.0378 -0.1271  0.2235
35519POPC   C3B72218  15.064  18.194  17.096 -0.2370 -0.1859 -0.0207
35519POPC   C4B72219  15.185  18.369  17.534 -0.2074  0.1105  0.1433
35520POPC   NC372220  15.707  23.090  15.317 -0.0944 -0.0762  0.0625
35520POPC   PO472221  15.411  23.356  15.200 -0.0781  0.2386  0.1952
35520POPC   GL172222  15.269  23.206  15.521  0.3049  0.2760 -0.0259
35520POPC   GL272223  15.333  23.048  15.660 -0.0275 -0.0316  0.0071
35520POPC   C1A72224  14.829  23.063  15.715  0.1720 -0.2368  0.4432
35520POPC   D2A72225  14.510  23.321  15.907  0.2531  0.4108 -0.2978
35520POPC   C3A72226  14.166  23.317  16.269  0.1788 -0.0096 -0.1650
35520POPC   C4A72227  13.981  23.202  16.636  0.1490  0.2326 -0.3189
35520POPC   C1B72228  15.202  23.070  16.107  0.6062 -0.0533 -0.2937
35520POPC   C2B72229  14.849  22.880  16.382  0.1746  0.2854 -0.1088
35520POPC   C3B72230  14.359  22.936  16.479 -0.0277  0.0832 -0.1449
35520POPC   C4B72231  13.958  22.709  16.347 -0.0472 -0.1840 -0.0079
35521POPC   NC372232   8.948  26.787  14.396 -0.1018  0.2502 -0.0441
35521POPC   PO472233   8.655  26.966  14.609 -0.0114  0.0599  0.1384
35521POPC   GL172234   8.812  26.663  14.802 -0.0182 -0.0304  0.2631
35521POPC   GL272235   8.889  26.371  14.707 -0.0592  0.2707  0.2027
35521POPC   C1A72236   8.992  26.602  15.220 -0.3054  0.0687  0.1095
35521POPC   D2A72237   9.235  26.364  15.565  0.3118 -0.0981 -0.2953
35521POPC   C3A72238   9.459  25.929  15.509  0.0216  0.4078 -0.2800
35521POPC   C4A72239   9.469  25.682  15.147  0.0301  0.1015 -0.0467
35521POPC   C1B72240   8.712  25.938  14.854  0.0825  0.2876 -0.2522
35521POPC   C2B72241   8.612  25.652  15.208 -0.2100 -0.0211 -0.2043
35521POPC   C3B72242   8.284  25.462  15.428  0.2923 -0.3172  0.1917
35521POPC   C4B72243   8.042  25.050  15.514 -0.0411 -0.0157 -0.1482
35522POPC   NC372244   6.939  30.107  15.960 -0.1775  0.0085 -0.2926
35522POPC   PO472245   6.896  30.051  16.393 -0.0896  0.3935  0.4182
35522POPC   GL172246   7.014  30.044  16.796  0.1030 -0.0745 -0.2437
35522POPC   GL272247   6.786  29.847  16.922 -0.0437  0.3746 -0.3654
35522POPC   C1A72248   7.270  29.792  17.141  0.2369 -0.0206 -0.1631
35522POPC   D2A72249   7.181  29.693  17.626  0.1653  0.4738 -0.1203
35522POPC   C3A72250   7.383  29.545  18.011  0.4689 -0.0569 -0.2361
35522POPC   C4A72251   7.578  29.143  18.104  0.1254 -0.1822 -0.1812
35522POPC   C1B72252   7.010  30.156  17.215 -0.0916 -0.1041  0.0370
35522POPC   C2B72253   7.089  30.210  17.704  0.2776 -0.0301 -0.5725
35522POPC   C3B72254   7.157  30.106  18.100  0.2253  0.2210 -0.0793
35522POPC   C4B72255   7.614  29.969  18.179  0.1289  0.2727  0.1021
35523POPC   NC372256  15.125  22.082  12.847 -0.0241  0.0544 -0.1403
35523POPC   PO472257  15.125  22.006  13.229 -0.1500  0.1933 -0.0330
35523POPC   GL172258  14.740  22.027  13.375  0.0922 -0.2533  0.4739
35523POPC   GL272259  14.663  22.128  13.108  0.4255  0.2223 -0.0597
35523POPC   C1A72260  14.261  21.877  13.322 -0.2064  0.2515 -0.2906
35523POPC   D2A72261  13.861  22.091  13.263 -0.2565 -0.1593  0.1933
35523POPC   C3A72262  13.432  22.045  13.420  0.0668 -0.0271  0.1769
35523POPC   C4A72263  13.341  21.727  13.743 -0.0657  0.1593 -0.0588
35523POPC   C1B72264  14.491  21.750  12.905 -0.0686 -0.0029  0.3564
35523POPC   C2B72265  14.386  21.328  12.718  0.2818 -0.2206  0.1880
35523POPC   C3B72266  14.437  20.961  12.412 -0.0453 -0.3688  0.0520
35523POPC   C4B72267  14.529  20.516  12.320 -0.0961 -0.1516  0.3362
35524POPC   NC372268  15.007  22.436  10.539  0.1085  0.0081 -0.0770
35524POPC   PO472269  15.149  22.688  10.820  0.1268 -0.0740  0.1081
35524POPC   GL172270  14.780  22.691  10.829 -0.2523 -0.5883  0.1797
35524POPC   GL272271  14.656  22.895  10.976 -0.0207  0.0488  0.2086
35524POPC   C1A72272  14.407  22.785  10.550 -0.0991 -0.0330 -0.4405
35524POPC   D2A72273  14.044  22.656  10.349 -0.3499 -0.1901  0.1602
35524POPC   C3A72274  13.604  22.511  10.254 -0.0150  0.0947 -0.4423
35524POPC   C4A72275  13.199  22.340  10.225  0.1034 -0.0882 -0.0651
35524POPC   C1B72276  14.209  22.835  11.093 -0.0353  0.0298  0.1252
35524POPC   C2B72277  13.792  22.982  11.114 -0.1338 -0.1203 -0.0417
35524POPC   C3B72278  13.404  23.058  10.931  0.1856 -0.2283 -0.0985
35524POPC   C4B72279  12.908  22.962  10.834 -0.2348 -0.2488  0.3412
35525POPC   NC372280   3.221  25.299  15.090 -0.1761 -0.1037 -0.1288
35525POPC   PO472281   3.419  25.170  15.419  0.1038  0.1522 -0.1033
35525POPC   GL172282   3.517  25.097  15.813  0.1949 -0.1485 -0.1717
35525POPC   GL272283   3.617  25.383  15.927 -0.2012  0.3707 -0.0003
35525POPC   C1A72284   3.390  25.129  16.274  0.0892  0.2440 -0.0240
35525POPC   D2A72285   3.506  24.983  16.726 -0.1206  0.1017  0.0235
35525POPC   C3A72286   3.689  24.826  17.129  0.2009 -0.0025 -0.0027
35525POPC   C4A72287   3.674  24.687  17.599  0.1060  0.1560  0.4025
35525POPC   C1B72288   3.849  25.011  16.134 -0.1679 -0.0314  0.0523
35525POPC   C2B72289   3.863  24.665  16.476  0.0749 -0.0634 -0.1043
35525POPC   C3B72290   4.014  24.356  16.753 -0.1043 -0.2447  0.1046
35525POPC   C4B72291   4.005  24.306  17.181 -0.0339  0.1819  0.1729
35526POPC   NC372292   7.278  26.102  13.709 -0.1458  0.0136  0.2487
35526POPC   PO472293   6.925  25.929  13.846  0.0575 -0.3521 -0.2506
35526POPC   GL172294   7.174  25.779  14.102  0.1177 -0.0105 -0.2108
35526POPC   GL272295   7.272  25.524  13.973  0.1435  0.2032 -0.3687
35526POPC   C1A72296   7.492  25.781  14.420  0.0256 -0.0776  0.2987
35526POPC   D2A72297   7.789  25.915  14.752 -0.1299 -0.2061  0.1303
35526POPC   C3A72298   7.891  25.685  15.109  0.2218 -0.1595  0.0466
35526POPC   C4A72299   7.832  25.211  15.105 -0.1140  0.0262  0.0832
35526POPC   C1B72300   7.556  25.365  13.680  0.1244 -0.0209 -0.1615
35526POPC   C2B72301   7.671  24.911  13.705  0.1684  0.1914  0.1601
35526POPC   C3B72302   7.955  24.554  13.818  0.1256  0.1216 -0.0284
35526POPC   C4B72303   8.167  24.165  13.631 -0.3712  0.0808 -0.1849
35527POPC   NC372304   6.428  27.578  15.665 -0.2663  0.2489 -0.1721
35527POPC   PO472305   6.813  27.710  15.537  0.0213  0.1662 -0.5804
35527POPC   GL172306   6.769  27.287  15.756 -0.2376  0.2622 -0.0122
35527POPC   GL272307   6.992  27.293  15.842  0.0968 -0.1736  0.0092
35527POPC   C1A72308   6.666  26.833  15.840  0.1320 -0.2162 -0.2490
35527POPC   D2A72309   6.511  26.445  16.068  0.0680  0.3036  0.1189
35527POPC   C3A72310   6.644  26.139  16.363  0.0863  0.1941 -0.0944
35527POPC   C4A72311   6.680  26.075  16.851  0.4219  0.3718  0.2039
35527POPC   C1B72312   7.015  27.166  16.210 -0.1647 -0.2477 -0.1432
35527POPC   C2B72313   7.074  26.917  16.560  0.1994 -0.0433  0.1553
35527POPC   C3B72314   7.361  26.949  16.904  0.0304  0.0769  0.0169
35527POPC   C4B72315   7.400  26.590  17.187  0.0037 -0.1105 -0.1064
35528POPC   NC372316   7.673  31.678  15.993  0.0160  0.0727  0.0324
35528POPC   PO472317   7.573  31.944  15.686 -0.0210  0.0031 -0.0458
35528POPC   GL172318   7.679  32.356  15.878  0.3033  0.0257 -0.2140
35528POPC   GL272319   7.734  32.184  16.135 -0.2754 -0.0124 -0.0439
35528POPC   C1A72320   7.747  32.641  16.256  0.1153  0.1039  0.1583
35528POPC   D2A72321   7.407  32.979  16.325 -0.1349  0.1231  0.1947
35528POPC   C3A72322   7.409  33.292  16.664 -0.0812  0.0653  0.4285
35528POPC   C4A72323   7.406  33.658  16.955 -0.3679  0.0969  0.4118
35528POPC   C1B72324   7.737  32.264  16.581  0.1230  0.1139 -0.0528
35528POPC   C2B72325   7.767  32.415  17.042  0.0935 -0.1406  0.1696
35528POPC   C3B72326   7.998  32.301  17.418  0.0878 -0.0524  0.1437
35528POPC   C4B72327   8.216  32.186  17.768 -0.0100  0.0647  0.1550
35529POPC   NC372328  16.289  25.465  16.024  0.1640 -0.0176 -0.1372
35529POPC   PO472329  16.154  25.113  16.106  0.1929  0.0998  0.2163
35529POPC   GL172330  16.093  24.816  16.407 -0.0773 -0.0847  0.1303
35529POPC   GL272331  16.031  24.974  16.620 -0.0373 -0.0074  0.1025
35529POPC   C1A72332  16.063  24.406  16.587  0.1438 -0.0106  0.1807
35529POPC   D2A72333  15.849  24.249  16.961 -0.0537 -0.1780 -0.2110
35529POPC   C3A72334  16.014  24.257  17.394  0.3561 -0.0836  0.1986
35529POPC   C4A72335  15.913  24.181  17.814  0.2933  0.0049 -0.0888
35529POPC   C1B72336  15.886  24.761  16.975 -0.3911 -0.0462  0.3504
35529POPC   C2B72337  15.659  24.627  17.358 -0.0054 -0.0141  0.1082
35529POPC   C3B72338  15.513  24.621  17.795  0.3637  0.3094  0.0705
35529POPC   C4B72339  15.677  24.706  18.217  0.1639  0.0857 -0.2534
35530POPC   NC372340   2.461  28.142  16.646 -0.0736 -0.0413 -0.0062
35530POPC   PO472341   2.258  28.498  16.553 -0.3016  0.3083  0.1277
35530POPC   GL172342   2.258  28.385  16.947 -0.0246  0.3586  0.1000
35530POPC   GL272343   2.546  28.337  17.075  0.0749 -0.0184 -0.0126
35530POPC   C1A72344   2.215  27.952  17.155 -0.0078 -0.2380  0.1856
35530POPC   D2A72345   2.305  27.938  17.613  0.0808  0.2290  0.3060
35530POPC   C3A72346   2.131  27.640  17.927  0.2213  0.4321  0.3279
35530POPC   C4A72347   2.054  27.419  18.307 -0.4371 -0.0722 -0.0512
35530POPC   C1B72348   2.158  28.430  17.372  0.0740  0.1386 -0.2474
35530POPC   C2B72349   2.324  28.530  17.788 -0.1094  0.0464  0.0584
35530POPC   C3B72350   2.612  28.674  18.119 -0.2790 -0.3406  0.0619
35530POPC   C4B72351   2.978  28.422  18.379 -0.2045 -0.2745  0.0765
35531POPC   NC372352   3.686  16.922  15.678 -0.0329  0.0698  0.0970
35531POPC   PO472353   3.812  17.236  15.853 -0.0093 -0.1863  0.1293
35531POPC   GL172354   4.013  17.465  16.142  0.0178 -0.4413  0.1212
35531POPC   GL272355   3.779  17.419  16.375  0.0560  0.0050  0.1429
35531POPC   C1A72356   4.441  17.627  16.244 -0.0731  0.1256 -0.0113
35531POPC   D2A72357   4.824  17.743  16.455  0.2797 -0.0989 -0.0342
35531POPC   C3A72358   4.905  18.162  16.733  0.1170 -0.2002  0.0686
35531POPC   C4A72359   5.280  18.396  16.855 -0.0867  0.1261 -0.2004
35531POPC   C1B72360   3.919  17.789  16.659  0.1149 -0.2179  0.0923
35531POPC   C2B72361   3.846  18.167  16.862  0.2078 -0.2747 -0.1059
35531POPC   C3B72362   3.765  18.283  17.324  0.3825  0.1025 -0.1117
35531POPC   C4B72363   3.898  18.204  17.703  0.2080 -0.0121 -0.0342
35532POPC   NC372364   1.209  27.973  16.351  0.1641 -0.0559  0.1983
35532POPC   PO472365   1.613  28.013  16.409 -0.1161 -0.0113  0.0220
35532POPC   GL172366   1.387  28.121  16.777 -0.1372 -0.0950  0.0659
35532POPC   GL272367   1.225  27.911  16.861 -0.1203  0.1797  0.4026
35532POPC   C1A72368   1.660  28.104  17.120 -0.4260  0.3688  0.2058
35532POPC   D2A72369   1.815  28.072  17.571  0.1152  0.2007 -0.2363
35532POPC   C3A72370   1.909  28.216  17.986  0.3087  0.2079  0.0027
35532POPC   C4A72371   2.121  28.506  18.248 -0.1787 -0.1746 -0.1341
35532POPC   C1B72372   1.110  27.959  17.294  0.2902 -0.0140 -0.1243
35532POPC   C2B72373   1.283  27.915  17.742 -0.1077 -0.0047  0.2524
35532POPC   C3B72374   1.377  27.961  18.187  0.1652 -0.0272 -0.0066
35532POPC   C4B72375   1.687  28.160  18.436 -0.1446  0.2343  0.0792
35533POPC   NC372376   4.153  30.936  16.644 -0.1291  0.2250 -0.4061
35533POPC   PO472377   4.213  31.207  16.380 -0.1033  0.0143 -0.2482
35533POPC   GL172378   4.211  31.537  16.659 -0.3094 -0.1047  0.0926
35533POPC   GL272379   3.992  31.444  16.898 -0.0824  0.1283 -0.0583
35533POPC   C1A72380   4.487  31.570  17.026 -0.1898  0.3464 -0.1627
35533POPC   D2A72381   4.604  31.797  17.413 -0.0177  0.0598  0.0937
35533POPC   C3A72382   4.375  31.948  17.822  0.0493  0.0077 -0.2267
35533POPC   C4A72383   4.205  32.250  18.166  0.1698 -0.0618 -0.3537
35533POPC   C1B72384   3.926  31.465  17.334  0.0320 -0.0586 -0.0453
35533POPC   C2B72385   3.858  31.367  17.793 -0.1916  0.1116  0.2438
35533POPC   C3B72386   3.559  31.571  18.108 -0.0453 -0.6048  0.1115
35533POPC   C4B72387   3.162  31.555  18.365 -0.1568 -0.3931  0.4025
35534POPC   NC372388  11.881  16.965  14.429  0.2261 -0.5156 -0.1338
35534POPC   PO472389  11.903  17.056  14.020 -0.1788  0.0464 -0.1634
35534POPC   GL172390  11.735  17.410  14.087  0.0267 -0.1997  0.4228
35534POPC   GL272391  11.993  17.586  14.216  0.0610  0.2536 -0.3544
35534POPC   C1A72392  11.441  17.780  14.151  0.0422  0.1503  0.0560
35534POPC   D2A72393  11.210  18.204  14.170  0.1928 -0.0208 -0.0071
35534POPC   C3A72394  11.349  18.478  14.521 -0.2290  0.0778 -0.0431
35534POPC   C4A72395  11.277  18.495  15.021  0.1100 -0.1703  0.0996
35534POPC   C1B72396  11.895  17.986  14.211  0.1388 -0.0486  0.1259
35534POPC   C2B72397  11.920  18.416  14.449 -0.1681  0.2702 -0.1111
35534POPC   C3B72398  11.732  18.747  14.682  0.0066 -0.0576  0.1148
35534POPC   C4B72399  11.301  18.894  14.743 -0.3315 -0.0979  0.0814
35535POPC   NC372400   6.855  26.307  15.009  0.1133  0.0747  0.0125
35535POPC   PO472401   6.552  26.517  15.107  0.1353 -0.0827 -0.0796
35535POPC   GL172402   6.729  26.499  15.430  0.1208 -0.1299  0.0555
35535POPC   GL272403   6.675  26.314  15.564 -0.1708  0.1995 -0.0262
35535POPC   C1A72404   7.168  26.392  15.442 -0.0497  0.0532 -0.1011
35535POPC   D2A72405   7.583  26.164  15.302  0.4715 -0.1162  0.0353
35535POPC   C3A72406   7.783  25.840  15.572  0.1344  0.1734  0.0683
35535POPC   C4A72407   7.939  25.429  15.814 -0.0383 -0.1838  0.0874
35535POPC   C1B72408   6.913  26.191  15.914  0.0364 -0.0032 -0.0891
35535POPC   C2B72409   7.084  25.824  16.250  0.0275  0.2885 -0.0649
35535POPC   C3B72410   7.175  25.779  16.689 -0.2761  0.3304  0.3279
35535POPC   C4B72411   7.213  25.431  16.989 -0.1737  0.0739  0.2806
35536POPC   NC372412   7.684  31.227  15.616 -0.0201  0.1067  0.1687
35536POPC   PO472413   7.526  31.207  16.002 -0.1480  0.0240  0.0783
35536POPC   GL172414   7.697  31.409  16.338  0.2492 -0.0121 -0.0734
35536POPC   GL272415   7.952  31.264  16.348  0.1243 -0.3331 -0.0400
35536POPC   C1A72416   7.764  31.456  16.777 -0.1786 -0.1227 -0.0957
35536POPC   D2A72417   8.097  31.502  17.130 -0.0800  0.2432  0.2296
35536POPC   C3A72418   8.412  31.404  17.463 -0.0136  0.1513  0.1623
35536POPC   C4A72419   8.815  31.259  17.599 -0.0968 -0.3189  0.2137
35536POPC   C1B72420   8.222  31.020  16.698 -0.0924  0.2021 -0.3858
35536POPC   C2B72421   8.155  31.030  17.186 -0.0873  0.2040 -0.0046
35536POPC   C3B72422   7.976  30.999  17.583  0.0279 -0.2398  0.0304
35536POPC   C4B72423   7.991  31.075  18.050 -0.2206 -0.0944 -0.1315
35537POPC   NC372424   8.310  28.467  15.725 -0.1901  0.0312  0.1713
35537POPC   PO472425   8.332  28.637  16.083 -0.1283 -0.0299 -0.0654
35537POPC   GL172426   8.387  28.641  16.395 -0.1543 -0.2778  0.2115
35537POPC   GL272427   8.589  28.767  16.657 -0.0810 -0.1193  0.0526
35537POPC   C1A72428   8.331  28.375  16.779  0.0040  0.2006  0.1617
35537POPC   D2A72429   8.640  28.112  16.976  0.1222 -0.2175 -0.1069
35537POPC   C3A72430   8.611  28.221  17.433 -0.4795  0.1482 -0.0817
35537POPC   C4A72431   8.276  28.507  17.605 -0.0047 -0.1018 -0.0676
35537POPC   C1B72432   8.476  28.696  17.095  0.0040 -0.0307 -0.0703
35537POPC   C2B72433   8.386  28.960  17.485 -0.1595 -0.0962 -0.1377
35537POPC   C3B72434   8.066  29.160  17.765 -0.0012  0.0435  0.4999
35537POPC   C4B72435   7.903  29.539  17.954  0.1386 -0.0525 -0.0538
35538POPC   NC372436  13.754  19.001  13.144  0.3397  0.0536  0.0378
35538POPC   PO472437  13.950  18.706  13.288  0.1117  0.1280 -0.0068
35538POPC   GL172438  13.575  18.769  13.494 -0.3238  0.0419  0.3897
35538POPC   GL272439  13.510  18.812  13.770 -0.2291  0.0955  0.3840
35538POPC   C1A72440  13.163  18.511  13.511  0.0498  0.0123 -0.2386
35538POPC   D2A72441  12.781  18.697  13.404  0.3839 -0.1304  0.0201
35538POPC   C3A72442  12.552  19.044  13.302 -0.4180  0.3722 -0.0416
35538POPC   C4A72443  12.150  18.952  13.098 -0.2941 -0.1268 -0.0551
35538POPC   C1B72444  13.254  19.151  13.904  0.0911 -0.0034  0.2029
35538POPC   C2B72445  13.026  19.232  14.274 -0.3758  0.0661 -0.1835
35538POPC   C3B72446  12.626  19.418  14.221 -0.1652  0.4217 -0.0731
35538POPC   C4B72447  12.382  19.595  13.921 -0.1548  0.1300 -0.0896
35539POPC   NC372448  15.107  29.911  16.395  0.0005 -0.0950 -0.2312
35539POPC   PO472449  15.110  30.336  16.409  0.1180 -0.3153  0.2299
35539POPC   GL172450  15.016  30.583  16.740 -0.2354  0.0141  0.1592
35539POPC   GL272451  14.853  30.421  16.879  0.1802 -0.0689 -0.0708
35539POPC   C1A72452  15.292  30.654  17.114  0.1077  0.0943 -0.1488
35539POPC   D2A72453  15.691  30.683  17.217 -0.2063  0.0378  0.0165
35539POPC   C3A72454  15.828  31.128  17.298 -0.0450  0.2759  0.1103
35539POPC   C4A72455  15.698  31.470  17.629  0.1273  0.0361  0.1426
35539POPC   C1B72456  14.849  30.152  17.245  0.1095  0.0785  0.2786
35539POPC   C2B72457  14.963  30.155  17.673 -0.0051 -0.0055  0.0049
35539POPC   C3B72458  15.184  30.239  18.072 -0.0442 -0.0997  0.2803
35539POPC   C4B72459  15.487  30.370  18.382  0.1744 -0.2678  0.0016
35540POPC   NC372460   6.241  28.306  16.005  0.0596 -0.0195  0.1280
35540POPC   PO472461   6.278  27.905  15.967  0.1517 -0.2304 -0.2015
35540POPC   GL172462   6.296  27.580  16.215 -0.1002 -0.1103  0.1057
35540POPC   GL272463   6.511  27.375  16.105 -0.0884 -0.0991  0.0852
35540POPC   C1A72464   6.282  27.575  16.645  0.0943  0.2080 -0.1443
35540POPC   D2A72465   6.575  27.571  16.942 -0.0852  0.0096  0.0265
35540POPC   C3A72466   6.624  27.688  17.358 -0.0828 -0.0105 -0.0201
35540POPC   C4A72467   6.771  27.701  17.869  0.1532  0.1079  0.0553
35540POPC   C1B72468   6.493  26.982  16.322 -0.0946 -0.1980 -0.1004
35540POPC   C2B72469   6.615  26.674  16.618  0.0390  0.0217 -0.0247
35540POPC   C3B72470   6.625  26.519  17.041  0.0337 -0.0179  0.0432
35540POPC   C4B72471   6.545  26.346  17.471  0.3331 -0.0842  0.3340
35541POPC   NC372472   6.244  31.697  16.007  0.0371  0.1302  0.3742
35541POPC   PO472473   5.940  31.835  15.779  0.2424  0.1181 -0.0864
35541POPC   GL172474   6.052  32.087  16.059 -0.1911  0.0754 -0.2801
35541POPC   GL272475   5.914  32.019  16.281  0.1922 -0.1181 -0.2153
35541POPC   C1A72476   6.354  32.105  16.410 -0.3614 -0.0597 -0.1077
35541POPC   D2A72477   6.357  32.310  16.817  0.3496 -0.2011 -0.0541
35541POPC   C3A72478   6.388  32.526  17.231 -0.1387  0.1469  0.1271
35541POPC   C4A72479   6.325  32.364  17.657  0.0898  0.1607 -0.1207
35541POPC   C1B72480   5.951  32.414  16.528  0.1641 -0.2940  0.0448
35541POPC   C2B72481   5.926  32.660  16.933  0.1521 -0.3028  0.0322
35541POPC   C3B72482   5.860  33.077  17.170 -0.1075 -0.0372 -0.0798
35541POPC   C4B72483   6.134  33.352  17.447  0.3570 -0.4371  0.1709
35542POPC   NC372484  11.631  26.898  15.102 -0.0906 -0.2268 -0.2556
35542POPC   PO472485  11.846  27.223  15.253 -0.2045  0.1362 -0.1554
35542POPC   GL172486  11.720  27.049  15.561 -0.4352  0.2414 -0.0054
35542POPC   GL272487  11.869  27.072  15.787 -0.1743 -0.4335 -0.3248
35542POPC   C1A72488  11.530  26.621  15.518 -0.1340 -0.0490  0.1644
35542POPC   D2A72489  11.361  26.199  15.465 -0.1425 -0.1842 -0.1140
35542POPC   C3A72490  11.145  25.903  15.699 -0.0562 -0.3717 -0.0905
35542POPC   C4A72491  11.193  25.557  15.539  0.1670  0.3767  0.1769
35542POPC   C1B72492  11.691  26.740  16.036 -0.0857 -0.4291  0.0287
35542POPC   C2B72493  11.512  26.482  16.385 -0.0462  0.1640 -0.3092
35542POPC   C3B72494  11.377  26.439  16.809 -0.0732 -0.0499 -0.0693
35542POPC   C4B72495  11.532  26.451  17.234  0.0377 -0.1189  0.1012
35543POPC   NC372496  10.154  27.174  13.000  0.0094  0.2946  0.2005
35543POPC   PO472497  10.501  27.186  13.145 -0.2335  0.1646  0.3667
35543POPC   GL172498  10.497  26.856  12.894  0.0703 -0.0885  0.2279
35543POPC   GL272499  10.783  26.824  12.972 -0.0985  0.0984 -0.1843
35543POPC   C1A72500  10.423  26.433  12.709 -0.3400 -0.3427 -0.2083
35543POPC   D2A72501  10.421  26.005  12.941 -0.2693 -0.2829  0.1819
35543POPC   C3A72502  10.503  25.666  12.643  0.2199 -0.1813  0.1037
35543POPC   C4A72503  10.612  25.242  12.556 -0.2445 -0.1408 -0.0053
35543POPC   C1B72504  10.871  26.425  13.179 -0.0912 -0.3970  0.3296
35543POPC   C2B72505  10.917  25.999  12.959  0.1123  0.0400 -0.2353
35543POPC   C3B72506  10.978  25.675  12.660  0.3377  0.0020  0.3290
35543POPC   C4B72507  11.303  25.486  12.444  0.1531  0.0675 -0.2669
35544POPC   NC372508   0.545  26.037  15.945 -0.0780  0.1199  0.0842
35544POPC   PO472509   0.336  25.728  16.009  0.3160  0.0258 -0.2384
35544POPC   GL172510   0.197  25.651  16.337  0.2806  0.0046 -0.1023
35544POPC   GL272511  -0.068  25.796  16.418 -0.0121 -0.2093  0.1776
35544POPC   C1A72512   0.299  25.604  16.769  0.1052  0.0776 -0.0363
35544POPC   D2A72513   0.222  25.640  17.258 -0.0226  0.1439  0.1291
35544POPC   C3A72514  -0.057  25.338  17.432 -0.0864 -0.2029  0.2809
35544POPC   C4A72515  -0.204  25.168  17.843 -0.1303 -0.0054  0.1966
35544POPC   C1B72516  -0.417  25.563  16.631  0.0004 -0.0541 -0.3685
35544POPC   C2B72517  -0.544  25.252  16.992  0.0999  0.2263 -0.2704
35544POPC   C3B72518  -0.518  25.024  17.440  0.0254 -0.0891  0.1236
35544POPC   C4B72519  -0.668  25.042  17.854 -0.4839  0.0379  0.0869
35545POPC   NC372520  14.144  25.094  13.655  0.1775 -0.1485  0.0366
35545POPC   PO472521  14.092  25.085  13.274  0.1407 -0.2507  0.0305
35545POPC   GL172522  13.755  24.941  13.335 -0.3367  0.3594  0.3395
35545POPC   GL272523  13.793  24.695  13.500  0.2131  0.0551 -0.3247
35545POPC   C1A72524  13.408  24.768  13.113  0.0646 -0.0632  0.1456
35545POPC   D2A72525  13.338  24.381  12.839 -0.3305  0.0998  0.0047
35545POPC   C3A72526  12.870  24.286  12.874 -0.0992  0.1078 -0.2031
35545POPC   C4A72527  12.527  24.003  12.784 -0.1035  0.1488 -0.2885
35545POPC   C1B72528  13.476  24.309  13.401  0.1187  0.0910  0.1053
35545POPC   C2B72529  13.101  24.038  13.342 -0.0193 -0.0361 -0.1041
35545POPC   C3B72530  13.004  23.731  12.983 -0.0602  0.0906 -0.0913
35545POPC   C4B72531  12.661  23.524  12.721 -0.0789 -0.1191 -0.0870
35546POPC   NC372532   5.506  30.014  16.717 -0.0269 -0.0996  0.2919
35546POPC   PO472533   5.290  30.324  16.745  0.0132  0.1182 -0.2487
35546POPC   GL172534   5.334  30.692  16.935 -0.0302  0.2199  0.1694
35546POPC   GL272535   5.105  30.882  16.948 -0.2542  0.0703 -0.3303
35546POPC   C1A72536   5.642  30.919  17.189 -0.2926  0.0133  0.0012
35546POPC   D2A72537   5.869  31.016  17.520  0.1988  0.3443  0.0910
35546POPC   C3A72538   6.225  31.105  17.744 -0.0534  0.2206 -0.1104
35546POPC   C4A72539   6.488  30.931  18.056  0.1683  0.2240  0.1951
35546POPC   C1B72540   5.181  30.847  17.372  0.2286 -0.2301  0.0771
35546POPC   C2B72541   5.468  30.822  17.722  0.1218 -0.2157  0.1407
35546POPC   C3B72542   5.730  31.076  17.985 -0.3529  0.1035 -0.2091
35546POPC   C4B72543   6.111  31.254  18.224  0.1336 -0.1626 -0.0681
35547POPC   NC372544  16.226  26.079  16.006  0.2730 -0.3234 -0.0556
35547POPC   PO472545  16.526  26.235  16.200 -0.1472  0.1837  0.3181
35547POPC   GL172546  16.364  26.212  16.643 -0.2789 -0.2102  0.4242
35547POPC   GL272547  16.635  26.193  16.710 -0.2050  0.2038  0.0200
35547POPC   C1A72548  16.223  25.876  16.936 -0.1236  0.1936 -0.1323
35547POPC   D2A72549  16.065  25.808  17.356 -0.0026 -0.0961  0.1736
35547POPC   C3A72550  15.951  25.543  17.725  0.0652  0.0337  0.3596
35547POPC   C4A72551  15.679  25.479  18.124 -0.0466  0.0780  0.2034
35547POPC   C1B72552  16.625  26.144  17.210 -0.2582 -0.0597  0.2584
35547POPC   C2B72553  16.838  26.191  17.652  0.3536  0.1217 -0.0201
35547POPC   C3B72554  16.997  26.086  18.036  0.0937  0.0560 -0.0161
35547POPC   C4B72555  16.892  25.687  18.298 -0.2097  0.3963 -0.1041
35548POPC   NC372556   9.807  15.354  15.513 -0.0859  0.3842 -0.0025
35548POPC   PO472557   9.816  15.506  15.150  0.0570  0.3469 -0.0420
35548POPC   GL172558   9.749  15.849  15.263 -0.3430 -0.1006 -0.5386
35548POPC   GL272559   9.867  15.876  15.502 -0.1161  0.3277 -0.0674
35548POPC   C1A72560   9.931  16.293  15.239 -0.2000 -0.2664  0.0818
35548POPC   D2A72561   9.796  16.796  15.393  0.0301  0.2169  0.0031
35548POPC   C3A72562   9.877  17.148  15.684 -0.0111 -0.0008 -0.0527
35548POPC   C4A72563   9.725  17.565  15.849 -0.0080  0.0917  0.1349
35548POPC   C1B72564   9.845  16.275  15.693  0.2279  0.4239  0.0194
35548POPC   C2B72565   9.961  16.593  15.994  0.2729  0.1405 -0.1144
35548POPC   C3B72566  10.108  16.997  16.196  0.0728 -0.2733  0.1312
35548POPC   C4B72567  10.290  17.280  16.462  0.1010 -0.3071  0.0404
35549POPC   NC372568   2.208  27.222  16.052 -0.0999 -0.0522  0.3220
35549POPC   PO472569   1.894  27.287  16.304 -0.1171  0.2412  0.2718
35549POPC   GL172570   1.687  27.103  16.610 -0.1188  0.3114  0.0203
35549POPC   GL272571   1.860  26.825  16.712 -0.0153 -0.1920 -0.0301
35549POPC   C1A72572   1.780  27.134  17.113  0.2340  0.0785 -0.0116
35549POPC   D2A72573   2.050  27.284  17.494 -0.0337  0.0019 -0.0215
35549POPC   C3A72574   1.863  27.108  17.930  0.0681 -0.0196  0.2491
35549POPC   C4A72575   1.614  27.189  18.364 -0.1304 -0.1293 -0.1246
35549POPC   C1B72576   2.030  26.638  17.086 -0.1382  0.0130  0.1685
35549POPC   C2B72577   2.197  26.372  17.434 -0.1799  0.2440  0.1618
35549POPC   C3B72578   2.344  25.961  17.639 -0.1609 -0.2009 -0.0263
35549POPC   C4B72579   2.553  25.643  17.893 -0.1492 -0.1388 -0.3078
35550POPC   NC372580   0.441  32.346  16.391 -0.0897 -0.0263 -0.0848
35550POPC   PO472581   0.797  32.352  16.283 -0.0542  0.1370 -0.0248
35550POPC   GL172582   0.820  32.346  16.735  0.0796 -0.0900  0.1455
35550POPC   GL272583   0.671  32.065  16.818  0.0512 -0.0517  0.0236
35550POPC   C1A72584   0.627  32.678  17.009 -0.0269 -0.4439 -0.1127
35550POPC   D2A72585   0.557  32.753  17.424 -0.1758  0.1941 -0.2411
35550POPC   C3A72586   0.665  32.811  17.882  0.1791  0.0566 -0.0606
35550POPC   C4A72587   0.817  32.480  18.191  0.1012 -0.2386  0.3744
35550POPC   C1B72588   0.768  32.255  17.273 -0.2179  0.0871  0.0160
35550POPC   C2B72589   0.854  32.372  17.703  0.0036 -0.1304  0.1824
35550POPC   C3B72590   1.000  32.050  17.985  0.0643 -0.0344 -0.0352
35550POPC   C4B72591   1.001  32.067  18.452  0.2394  0.1420 -0.1550
35551POPC   NC372592  13.922  30.942  16.232 -0.0610  0.0678 -0.0661
35551POPC   PO472593  13.589  30.835  16.486 -0.1054  0.0029  0.1104
35551POPC   GL172594  13.782  31.071  16.783 -0.0570  0.0458  0.2547
35551POPC   GL272595  13.547  30.964  16.994  0.2104  0.0592  0.2202
35551POPC   C1A72596  13.940  31.178  17.215 -0.1046  0.2249 -0.0817
35551POPC   D2A72597  14.132  31.433  17.517 -0.3884  0.0446  0.0609
35551POPC   C3A72598  14.240  31.387  17.969 -0.3607 -0.0938  0.2042
35551POPC   C4A72599  14.017  31.220  18.360  0.0901  0.0394  0.1259
35551POPC   C1B72600  13.585  30.893  17.448  0.0847 -0.5744 -0.1733
35551POPC   C2B72601  13.623  30.500  17.669  0.3786  0.0474  0.0043
35551POPC   C3B72602  13.382  30.094  17.830 -0.1861 -0.1209 -0.0425
35551POPC   C4B72603  13.384  29.615  17.815  0.0456  0.0411 -0.3085
35552POPC   NC372604  10.509  27.183  14.171  0.1649  0.0072  0.0860
35552POPC   PO472605  10.650  27.023  14.499  0.0272 -0.3019  0.1638
35552POPC   GL172606  10.654  26.704  14.674  0.4903 -0.0670  0.0606
35552POPC   GL272607  10.659  26.482  14.438  0.5114  0.1082 -0.3132
35552POPC   C1A72608  10.740  26.479  15.040 -0.1375 -0.2283 -0.0459
35552POPC   D2A72609  10.825  26.167  15.364 -0.0702 -0.1621  0.0101
35552POPC   C3A72610  10.802  25.742  15.213 -0.1733 -0.0248  0.0452
35552POPC   C4A72611  10.813  25.296  15.298  0.1522  0.0036  0.0561
35552POPC   C1B72612  10.876  26.073  14.416  0.0911 -0.0933 -0.1477
35552POPC   C2B72613  10.929  25.630  14.298 -0.2138 -0.0075  0.1312
35552POPC   C3B72614  11.059  25.251  14.097 -0.2526 -0.3112  0.1098
35552POPC   C4B72615  10.942  24.822  14.237  0.2076  0.0081  0.0767
35553POPC   NC372616  10.092  29.876  16.586 -0.0766 -0.3522 -0.1579
35553POPC   PO472617   9.815  29.790  16.279 -0.1601 -0.3423  0.3345
35553POPC   GL172618   9.696  30.048  16.621 -0.0990 -0.0956  0.1443
35553POPC   GL272619   9.387  30.122  16.717  0.2543  0.2157  0.0076
35553POPC   C1A72620   9.886  30.046  17.014 -0.0712 -0.1980  0.0614
35553POPC   D2A72621   9.856  30.077  17.480 -0.0489 -0.0584 -0.0196
35553POPC   C3A72622   9.709  29.906  17.859  0.2494 -0.0127  0.0082
35553POPC   C4A72623   9.735  29.691  18.284  0.1724  0.3421 -0.1486
35553POPC   C1B72624   9.399  30.268  17.136  0.1074 -0.1983  0.2334
35553POPC   C2B72625   9.270  30.197  17.510 -0.1329  0.1200 -0.2256
35553POPC   C3B72626   9.393  30.388  17.909  0.0999  0.0603  0.0924
35553POPC   C4B72627   9.417  30.579  18.382  0.0396  0.1486 -0.2391
35554POPC   NC372628   3.887  24.987  15.552  0.2657 -0.0936 -0.2111
35554POPC   PO472629   4.146  24.868  15.275 -0.1482  0.3361  0.1653
35554POPC   GL172630   4.361  24.935  15.695  0.0125  0.3001 -0.0255
35554POPC   GL272631   4.474  24.689  15.675 -0.2961  0.0058  0.1300
35554POPC   C1A72632   4.285  25.274  15.936 -0.1061 -0.3579 -0.3507
35554POPC   D2A72633   4.051  25.516  16.177  0.2654 -0.0344 -0.1659
35554POPC   C3A72634   4.142  25.704  16.542 -0.3284  0.2620  0.1091
35554POPC   C4A72635   4.356  26.125  16.617 -0.1681 -0.1380  0.4593
35554POPC   C1B72636   4.760  24.612  16.022 -0.4605 -0.0207 -0.0401
35554POPC   C2B72637   4.946  24.469  16.415  0.2601 -0.2301 -0.3387
35554POPC   C3B72638   4.883  24.246  16.795 -0.0731 -0.0703 -0.2226
35554POPC   C4B72639   4.831  24.032  17.247  0.1146  0.3073  0.3784
35555POPC   NC372640   0.417  18.618  15.143 -0.0129 -0.1577 -0.1566
35555POPC   PO472641   0.291  18.686  15.501 -0.4167  0.0552  0.0222
35555POPC   GL172642   0.264  18.885  15.892  0.2484 -0.3661 -0.0094
35555POPC   GL272643   0.015  18.950  15.843  0.0751  0.0486 -0.0527
35555POPC   C1A72644   0.044  18.747  16.282 -0.3039 -0.2061 -0.2048
35555POPC   D2A72645   0.037  18.567  16.729  0.2739  0.0123  0.2305
35555POPC   C3A72646   0.194  18.439  17.182 -0.2738  0.3003  0.1584
35555POPC   C4A72647   0.181  18.484  17.677 -0.0246 -0.0942 -0.1740
35555POPC   C1B72648  -0.256  19.137  16.223  0.2648  0.1537  0.0310
35555POPC   C2B72649  -0.452  19.246  16.615 -0.0883 -0.0785 -0.3538
35555POPC   C3B72650  -0.247  19.295  17.073  0.2772 -0.1350 -0.0534
35555POPC   C4B72651   0.124  19.454  17.325 -0.1282 -0.0892  0.0077
35556POPC   NC372652   3.939  26.198  16.261 -0.2292 -0.0915  0.0107
35556POPC   PO472653   3.589  26.203  16.259  0.1482 -0.1606  0.0105
35556POPC   GL172654   3.492  26.072  16.627  0.2881  0.0414 -0.1457
35556POPC   GL272655   3.799  25.986  16.765 -0.2554  0.0345  0.2660
35556POPC   C1A72656   3.550  26.238  17.100 -0.0044  0.1656 -0.0028
35556POPC   D2A72657   3.590  26.177  17.532 -0.0061 -0.2329 -0.1531
35556POPC   C3A72658   3.305  25.954  17.852  0.1752  0.0770  0.0185
35556POPC   C4A72659   2.938  25.895  18.162  0.0650  0.0824  0.0586
35556POPC   C1B72660   3.837  25.582  16.923 -0.2113 -0.2492 -0.0231
35556POPC   C2B72661   4.038  25.297  17.223 -0.2952  0.1157  0.0605
35556POPC   C3B72662   4.171  25.279  17.684 -0.2547 -0.1239 -0.0433
35556POPC   C4B72663   4.256  25.142  18.087 -0.1073 -0.1094 -0.1101
35557POPC   NC372664   5.226  26.305  15.404 -0.2319  0.0756 -0.2232
35557POPC   PO472665   4.918  26.318  15.663  0.2294 -0.3581 -0.2894
35557POPC   GL172666   5.300  26.253  15.887  0.0906  0.1931 -0.5235
35557POPC   GL272667   5.179  26.271  16.155  0.5498 -0.2907  0.1332
35557POPC   C1A72668   5.515  25.930  16.163 -0.0283  0.2299 -0.2426
35557POPC   D2A72669   5.762  25.753  16.549  0.1318  0.0054 -0.1047
35557POPC   C3A72670   5.636  25.563  16.957 -0.0983  0.0982 -0.0408
35557POPC   C4A72671   5.431  25.774  17.291 -0.0448 -0.1562  0.0301
35557POPC   C1B72672   5.238  26.019  16.575  0.0839 -0.1390  0.3371
35557POPC   C2B72673   5.147  25.873  16.945 -0.0049 -0.0806 -0.1122
35557POPC   C3B72674   4.849  25.746  17.279 -0.1125  0.1772 -0.1622
35557POPC   C4B72675   4.485  25.617  17.440 -0.3453  0.2552 -0.0230
35558POPC   NC372676   7.899  27.950  10.305  0.2485  0.0505  0.1490
35558POPC   PO472677   7.885  27.699  10.649  0.0267  0.1202  0.0124
35558POPC   GL172678   8.072  27.494  10.349 -0.1698  0.2108 -0.3197
35558POPC   GL272679   8.406  27.523  10.405 -0.0041 -0.1069  0.1088
35558POPC   C1A72680   8.123  27.055  10.188 -0.1509  0.0557  0.3118
35558POPC   D2A72681   8.281  26.877   9.795 -0.1039 -0.2547 -0.0266
35558POPC   C3A72682   8.160  27.221   9.489 -0.0864  0.1039 -0.2545
35558POPC   C4A72683   7.819  27.536   9.391 -0.0473  0.0565 -0.0659
35558POPC   C1B72684   8.580  27.279  10.031 -0.0757 -0.4310 -0.1238
35558POPC   C2B72685   8.774  26.958   9.756  0.0825 -0.1268 -0.1109
35558POPC   C3B72686   8.897  26.618   9.547 -0.1236  0.3401  0.2778
35558POPC   C4B72687   9.036  26.134   9.466  0.0131  0.0541 -0.1392
35559POPC   NC372688  13.626   0.195   9.190 -0.2563  0.0062  0.2554
35559POPC   PO472689  13.620  -0.151   8.993  0.0422 -0.1818  0.0973
35559POPC   GL172690  13.780   0.020   8.699 -0.0569  0.0127 -0.2233
35559POPC   GL272691  13.614   0.239   8.614  0.2308  0.0737 -0.1437
35559POPC   C1A72692  13.859  -0.162   8.298  0.4458 -0.5657 -0.1628
35559POPC   D2A72693  13.926   0.037   7.877 -0.0526  0.2616 -0.2339
35559POPC   C3A72694  13.800   0.160   7.456  0.1496  0.2326  0.0829
35559POPC   C4A72695  13.601   0.310   7.045  0.1686  0.3214 -0.1019
35559POPC   C1B72696  13.430   0.191   8.146  0.4297  0.1658 -0.0451
35559POPC   C2B72697  13.298   0.335   7.743  0.0350  0.0284 -0.2760
35559POPC   C3B72698  13.183   0.532   7.359 -0.0093  0.1241  0.3949
35559POPC   C4B72699  13.280   0.794   6.997 -0.0351 -0.0538  0.1410
35560POPC   NC372700  11.957  26.507  10.731 -0.1405  0.0147 -0.3452
35560POPC   PO472701  12.037  26.893  10.648  0.1118  0.1237  0.0747
35560POPC   GL172702  11.966  26.680  10.313 -0.2235 -0.0908  0.2335
35560POPC   GL272703  11.865  26.800  10.119 -0.1341 -0.1980 -0.0778
35560POPC   C1A72704  12.077  26.254  10.257 -0.0897  0.0653  0.4107
35560POPC   D2A72705  11.771  25.921  10.040  0.3903  0.0534  0.1851
35560POPC   C3A72706  11.487  25.817   9.673 -0.0675 -0.0923 -0.0566
35560POPC   C4A72707  11.419  25.774   9.233 -0.1377  0.0477 -0.1632
35560POPC   C1B72708  11.839  26.367   9.801 -0.0202 -0.2835 -0.1241
35560POPC   C2B72709  11.781  26.348   9.370  0.0367 -0.1794 -0.0599
35560POPC   C3B72710  11.640  26.200   8.932  0.2384 -0.0255 -0.0079
35560POPC   C4B72711  11.310  26.207   8.584  0.0702 -0.1859  0.0943
35561POPC   NC372712   9.698  28.463   9.585  0.0411  0.4179 -0.0157
35561POPC   PO472713   9.748  28.210   9.878  0.1602 -0.0215 -0.2018
35561POPC   GL172714   9.725  27.822   9.774  0.2710  0.0954  0.0246
35561POPC   GL272715   9.412  27.770   9.744 -0.0514 -0.1139  0.2943
35561POPC   C1A72716   9.904  27.413   9.855  0.0686 -0.0860 -0.4660
35561POPC   D2A72717   9.780  26.970   9.801 -0.3091 -0.0138 -0.0241
35561POPC   C3A72718   9.420  26.908   9.483  0.2000  0.1763 -0.0841
35561POPC   C4A72719   9.225  26.617   9.164 -0.1262  0.0738 -0.1258
35561POPC   C1B72720   9.392  27.383   9.454 -0.1555 -0.1901 -0.0956
35561POPC   C2B72721   9.395  27.194   9.051 -0.3128 -0.1224 -0.3191
35561POPC   C3B72722   9.329  26.994   8.678 -0.1123  0.0944 -0.0503
35561POPC   C4B72723   9.211  26.981   8.252  0.1895 -0.0370  0.0131
35562POPC   NC372724  12.284  32.145  16.078  0.0649 -0.1713 -0.3340
35562POPC   PO472725  11.920  32.291  15.913  0.2559  0.3092 -0.0778
35562POPC   GL172726  11.928  32.483  16.272  0.0617 -0.0400  0.2571
35562POPC   GL272727  11.751  32.681  16.187 -0.1734 -0.0192 -0.0043
35562POPC   C1A72728  11.879  32.669  16.716  0.1225  0.3254  0.0834
35562POPC   D2A72729  11.688  32.727  17.123 -0.0342  0.2346  0.2367
35562POPC   C3A72730  11.739  32.943  17.498 -0.1586 -0.2336 -0.2113
35562POPC   C4A72731  11.563  33.347  17.601 -0.0043 -0.3017 -0.3149
35562POPC   C1B72732  11.610  33.035  16.402 -0.4558 -0.2198  0.1645
35562POPC   C2B72733  11.531  33.125  16.799  0.1594 -0.2034  0.0412
35562POPC   C3B72734  11.245  33.191  17.173 -0.3118  0.2139  0.0443
35562POPC   C4B72735  10.869  33.082  17.350  0.1415  0.1487  0.0999
35563POPC   NC372736   4.371  25.811  10.701 -0.0674  0.2348  0.1449
35563POPC   PO472737   4.648  25.655  10.504  0.2290 -0.0067 -0.0965
35563POPC   GL172738   4.881  25.440  10.315 -0.1808 -0.0684 -0.0110
35563POPC   GL272739   4.980  25.532  10.086  0.0770 -0.3360  0.1034
35563POPC   C1A72740   4.926  25.050  10.037  0.0025  0.4061  0.1098
35563POPC   D2A72741   5.276  24.766   9.940  0.0624 -0.0765  0.0492
35563POPC   C3A72742   5.671  25.020   9.728  0.1007  0.0908  0.1989
35563POPC   C4A72743   5.906  25.012   9.273  0.0052  0.1295 -0.2877
35563POPC   C1B72744   5.305  25.384   9.859 -0.6229 -0.0091  0.0815
35563POPC   C2B72745   5.410  25.347   9.404  0.0895  0.1314  0.1578
35563POPC   C3B72746   5.505  25.145   9.013 -0.0110 -0.0294 -0.1786
35563POPC   C4B72747   5.718  24.854   8.735  0.0488 -0.2115  0.1950
35564POPC   NC372748  11.658  27.759  15.844  0.1208  0.1263  0.0042
35564POPC   PO472749  11.493  27.441  15.723 -0.4368 -0.0001  0.3235
35564POPC   GL172750  11.335  27.196  15.973  0.0667  0.1440 -0.3832
35564POPC   GL272751  11.563  27.262  16.145 -0.0930  0.1610 -0.1059
35564POPC   C1A72752  11.195  26.747  15.919  0.0746 -0.0329 -0.2795
35564POPC   D2A72753  11.237  26.304  15.966 -0.1049 -0.2349 -0.3373
35564POPC   C3A72754  11.030  26.071  16.333 -0.1766  0.1677 -0.1740
35564POPC   C4A72755  10.635  25.900  16.490  0.2397 -0.0127 -0.1141
35564POPC   C1B72756  11.341  26.953  16.372 -0.1976  0.2205 -0.0443
35564POPC   C2B72757  10.953  26.640  16.361  0.4203  0.0220 -0.0039
35564POPC   C3B72758  10.761  26.498  16.714  0.0170  0.1007  0.0060
35564POPC   C4B72759  10.545  26.370  17.091 -0.1937  0.2671 -0.1537
35565POPC   NC372760   3.556  20.825  10.064  0.2338  0.0676  0.0299
35565POPC   PO472761   3.418  20.952   9.738 -0.0049  0.0536  0.1215
35565POPC   GL172762   3.456  21.090   9.217  0.2095 -0.2751  0.1569
35565POPC   GL272763   3.524  21.449   9.179 -0.1149  0.0384  0.0189
35565POPC   C1A72764   3.461  20.928   8.780  0.1056  0.1879  0.1883
35565POPC   D2A72765   3.272  20.906   8.353 -0.2377 -0.1747  0.0535
35565POPC   C3A72766   3.637  20.809   8.012 -0.0341 -0.2014 -0.0516
35565POPC   C4A72767   4.012  20.603   7.847 -0.2522 -0.2773  0.2410
35565POPC   C1B72768   3.849  21.559   8.833  0.2244 -0.1373 -0.0565
35565POPC   C2B72769   4.033  21.645   8.391  0.0426 -0.1006  0.2151
35565POPC   C3B72770   4.176  21.943   8.118  0.1181 -0.2505  0.0516
35565POPC   C4B72771   4.303  22.343   8.053 -0.0057 -0.1343  0.0406
35566POPC   NC372772   2.681  21.448  15.439 -0.1074  0.0351 -0.1442
35566POPC   PO472773   2.465  21.622  15.699  0.1464  0.0180  0.4014
35566POPC   GL172774   2.796  21.387  15.864 -0.1006 -0.0761 -0.0390
35566POPC   GL272775   3.000  21.589  15.829  0.0948 -0.0315  0.1153
35566POPC   C1A72776   3.106  21.230  16.195  0.1468 -0.0613  0.2371
35566POPC   D2A72777   3.331  21.022  16.551  0.1604 -0.1618  0.2142
35566POPC   C3A72778   3.079  21.241  16.942  0.1224 -0.0968  0.0252
35566POPC   C4A72779   3.139  21.123  17.314 -0.1796  0.4450 -0.0770
35566POPC   C1B72780   3.072  21.762  16.234  0.0810  0.2135 -0.1039
35566POPC   C2B72781   3.229  21.744  16.657 -0.0822 -0.0188  0.1188
35566POPC   C3B72782   3.266  21.648  17.120 -0.0966  0.0772 -0.1929
35566POPC   C4B72783   3.043  21.692  17.501 -0.0302 -0.1362 -0.1843
35567POPC   NC372784   6.771  28.389  15.983 -0.1060  0.1248 -0.2374
35567POPC   PO472785   6.539  28.639  16.174  0.0539  0.1482 -0.0362
35567POPC   GL172786   6.563  28.324  16.411 -0.2276  0.3742  0.0633
35567POPC   GL272787   6.716  28.440  16.627  0.1942  0.0421  0.2331
35567POPC   C1A72788   6.768  27.927  16.569  0.1622  0.3225  0.0531
35567POPC   D2A72789   6.809  27.484  16.500 -0.0323 -0.0249  0.0150
35567POPC   C3A72790   7.216  27.367  16.664  0.1530 -0.0245  0.0636
35567POPC   C4A72791   7.441  27.471  17.053  0.0895  0.0263  0.0195
35567POPC   C1B72792   7.126  28.322  16.830 -0.0608  0.2064  0.1329
35567POPC   C2B72793   7.409  28.161  17.109  0.1103  0.2696 -0.0541
35567POPC   C3B72794   7.752  27.805  17.308  0.0173  0.1202 -0.1804
35567POPC   C4B72795   7.747  27.481  17.648  0.2145 -0.0498  0.3579
35568POPC   NC372796   9.458  29.466  16.288  0.2480 -0.0841  0.0382
35568POPC   PO472797   9.296  29.822  16.271  0.0973  0.2722 -0.2911
35568POPC   GL172798   9.091  29.598  16.588 -0.1371  0.3487  0.0918
35568POPC   GL272799   8.953  29.854  16.687 -0.1800 -0.0140  0.1989
35568POPC   C1A72800   9.123  29.433  17.027 -0.0962 -0.0819  0.1810
35568POPC   D2A72801   9.207  29.288  17.483  0.0859  0.1591  0.2196
35568POPC   C3A72802   8.977  28.979  17.741 -0.1903  0.0667  0.0179
35568POPC   C4A72803   8.954  28.798  18.147  0.1544 -0.1485 -0.1938
35568POPC   C1B72804   9.014  29.887  17.137 -0.1815  0.0991 -0.2806
35568POPC   C2B72805   8.770  29.923  17.550  0.1278 -0.1073 -0.1835
35568POPC   C3B72806   8.452  30.098  17.848  0.2239 -0.0015  0.1284
35568POPC   C4B72807   8.033  30.154  18.007 -0.1261  0.0802 -0.4716
35569POPC   NC372808  11.254  27.030  15.483 -0.0188  0.1043  0.0943
35569POPC   PO472809  10.970  27.159  15.203 -0.0323  0.0684  0.0121
35569POPC   GL172810  10.645  27.149  15.430  0.2238  0.2079 -0.0422
35569POPC   GL272811  10.796  27.098  15.678 -0.0119  0.2990 -0.1827
35569POPC   C1A72812  10.556  26.698  15.419 -0.1646 -0.0075  0.1100
35569POPC   D2A72813  10.185  26.390  15.188  0.0725 -0.0333 -0.1003
35569POPC   C3A72814  10.370  25.960  15.062 -0.0635 -0.2775  0.0123
35569POPC   C4A72815  10.363  25.494  15.152 -0.0201 -0.3051 -0.0838
35569POPC   C1B72816  10.664  26.870  16.093 -0.0068 -0.4292  0.0728
35569POPC   C2B72817  10.461  26.469  16.209  0.1734 -0.0044  0.0272
35569POPC   C3B72818  10.175  26.122  16.126  0.2392 -0.1030  0.1569
35569POPC   C4B72819   9.824  25.792  15.985  0.1135 -0.0032 -0.0730
35570POPC   NC372820   1.928  21.535  15.717 -0.1067 -0.1946  0.0307
35570POPC   PO472821   1.643  21.246  15.704  0.0407  0.1964  0.2144
35570POPC   GL172822   1.687  21.160  16.040  0.0335  0.0950 -0.1569
35570POPC   GL272823   1.749  21.428  16.159  0.1689 -0.0520  0.1947
35570POPC   C1A72824   1.378  21.176  16.319 -0.1244 -0.0787  0.0787
35570POPC   D2A72825   1.417  20.935  16.730  0.1194 -0.3243  0.1393
35570POPC   C3A72826   1.522  21.031  17.176 -0.3691 -0.0328  0.1150
35570POPC   C4A72827   1.541  21.133  17.657  0.1588 -0.1397 -0.1157
35570POPC   C1B72828   1.714  21.434  16.681  0.0506 -0.1938  0.1742
35570POPC   C2B72829   1.882  21.327  17.092  0.2115 -0.0129  0.2415
35570POPC   C3B72830   1.962  21.653  17.431  0.0769 -0.2064  0.2719
35570POPC   C4B72831   2.203  21.906  17.786  0.0908 -0.0351 -0.2203
35571POPC   NC372832  12.973  29.297  16.527  0.1240 -0.0975  0.0980
35571POPC   PO472833  13.257  29.027  16.357  0.2563  0.1893 -0.0565
35571POPC   GL172834  13.202  28.873  16.758  0.1946  0.0732 -0.0042
35571POPC   GL272835  13.445  28.783  16.902 -0.0327  0.0443 -0.3341
35571POPC   C1A72836  13.029  28.501  16.946  0.1617  0.2793  0.1510
35571POPC   D2A72837  12.770  28.347  17.322 -0.0747 -0.4440  0.0301
35571POPC   C3A72838  12.606  27.952  17.539  0.0029  0.1255  0.0412
35571POPC   C4A72839  12.621  27.907  18.022  0.2722  0.1514 -0.3125
35571POPC   C1B72840  13.168  29.097  17.151 -0.2228 -0.2011  0.1610
35571POPC   C2B72841  13.051  29.162  17.579 -0.1161  0.0304  0.0858
35571POPC   C3B72842  13.055  29.265  18.018 -0.1262 -0.0723 -0.1282
35571POPC   C4B72843  12.861  29.370  18.443  0.1217 -0.1541  0.1227
35572POPC   NC372844   8.096  32.597  15.192 -0.0104  0.1909 -0.2248
35572POPC   PO472845   8.240  32.781  14.898 -0.2487  0.0918 -0.0171
35572POPC   GL172846   8.432  32.914  15.156 -0.1565  0.1007  0.2169
35572POPC   GL272847   8.723  32.988  15.176  0.0381 -0.1220 -0.0894
35572POPC   C1A72848   8.321  33.122  15.586 -0.3628 -0.0849 -0.0877
35572POPC   D2A72849   8.408  33.259  16.008 -0.1586  0.0983  0.1820
35572POPC   C3A72850   8.297  33.421  16.417 -0.0368 -0.0051 -0.4268
35572POPC   C4A72851   7.927  33.448  16.699 -0.0404 -0.0817 -0.2402
35572POPC   C1B72852   8.849  33.408  15.313  0.0663 -0.1199  0.0323
35572POPC   C2B72853   8.892  33.881  15.290  0.0290  0.1359 -0.1726
35572POPC   C3B72854   9.103  34.312  15.401 -0.2489 -0.0052 -0.0228
35572POPC   C4B72855   9.431  34.661  15.287  0.1345 -0.1123 -0.0440
35573POPC   NC372856   7.198  26.085  11.386 -0.0675 -0.1711 -0.0112
35573POPC   PO472857   7.340  26.167  11.721 -0.0317  0.0374  0.1129
35573POPC   GL172858   7.669  26.189  11.533  0.1772 -0.0863  0.1947
35573POPC   GL272859   7.893  26.234  11.688  0.0369  0.0367 -0.2259
35573POPC   C1A72860   7.914  25.931  11.311 -0.3678 -0.0962  0.2394
35573POPC   D2A72861   8.298  25.689  11.342  0.2147  0.3922  0.1390
35573POPC   C3A72862   8.508  25.483  11.724 -0.0552 -0.1149  0.2391
35573POPC   C4A72863   8.921  25.272  11.839  0.1886 -0.0885  0.0625
35573POPC   C1B72864   8.074  25.814  11.784 -0.2424 -0.3768 -0.1249
35573POPC   C2B72865   7.941  25.346  11.703  0.2934 -0.2070  0.1915
35573POPC   C3B72866   8.242  25.212  11.342 -0.0044  0.0924 -0.0051
35573POPC   C4B72867   8.512  25.419  10.984 -0.0786 -0.2360  0.0828
35574POPC   NC372868   1.061  25.169  15.702 -0.3380  0.2180  0.2519
35574POPC   PO472869   0.946  25.081  16.063 -0.3168  0.0779  0.1834
35574POPC   GL172870   0.842  25.034  16.482  0.0029 -0.1671 -0.2042
35574POPC   GL272871   0.615  25.161  16.639  0.2259 -0.1236 -0.1866
35574POPC   C1A72872   1.098  24.734  16.785  0.2619 -0.1904 -0.0220
35574POPC   D2A72873   1.186  24.646  17.217 -0.0108 -0.1339 -0.0747
35574POPC   C3A72874   1.197  24.448  17.617  0.2877 -0.0763  0.0634
35574POPC   C4A72875   1.042  24.291  18.004  0.0127  0.1937  0.2197
35574POPC   C1B72876   0.568  24.811  16.911 -0.2720 -0.2523 -0.1817
35574POPC   C2B72877   0.334  24.548  17.255 -0.1030  0.0228 -0.0565
35574POPC   C3B72878   0.102  24.293  17.587 -0.2126 -0.0318 -0.1242
35574POPC   C4B72879  -0.140  24.265  18.075  0.0464  0.0119  0.1435
35575POPC   NC372880   4.346  26.889   8.965  0.0031  0.0965 -0.2593
35575POPC   PO472881   4.289  27.261   8.927 -0.0205 -0.2104 -0.2590
35575POPC   GL172882   4.116  27.034   8.581 -0.0855  0.0942  0.0870
35575POPC   GL272883   3.928  26.835   8.710  0.2095  0.1181 -0.2109
35575POPC   C1A72884   4.250  26.916   8.117  0.2941 -0.2727  0.2710
35575POPC   D2A72885   4.298  26.683   7.679 -0.1074  0.1403  0.1765
35575POPC   C3A72886   4.378  26.309   7.385 -0.0380  0.3009  0.0564
35575POPC   C4A72887   4.659  25.965   7.422 -0.1340 -0.0587  0.2322
35575POPC   C1B72888   4.299  26.628   8.534 -0.0425  0.0407  0.2605
35575POPC   C2B72889   4.587  26.538   8.259  0.1187 -0.1553 -0.1523
35575POPC   C3B72890   4.773  26.646   7.903 -0.1564  0.1836 -0.1424
35575POPC   C4B72891   5.091  26.947   7.775 -0.2274  0.0849  0.1052
35576POPC   NC372892  15.489  22.137  15.308  0.0169  0.1522  0.2295
35576POPC   PO472893  15.468  21.841  15.038 -0.0536  0.0516  0.1354
35576POPC   GL172894  15.104  21.906  15.128  0.0966 -0.4744  0.0859
35576POPC   GL272895  14.886  21.745  15.055 -0.4391 -0.1931 -0.2972
35576POPC   C1A72896  14.944  22.185  15.513 -0.2029  0.1206  0.0476
35576POPC   D2A72897  14.740  22.222  15.913 -0.3287 -0.0430 -0.0897
35576POPC   C3A72898  14.476  21.826  15.983  0.1274 -0.1395 -0.0148
35576POPC   C4A72899  14.607  21.434  16.077 -0.0516 -0.0073  0.1579
35576POPC   C1B72900  14.460  21.522  15.220 -0.1439  0.0910  0.0675
35576POPC   C2B72901  14.344  21.302  15.587 -0.0116  0.2100 -0.2144
35576POPC   C3B72902  14.151  21.383  15.929 -0.0975  0.0796 -0.1280
35576POPC   C4B72903  13.936  21.748  16.075 -0.0203 -0.1199  0.0394
35577POPC   NC372904  10.488  26.732  13.378 -0.4533 -0.1621 -0.3762
35577POPC   PO472905  10.125  26.744  13.299 -0.0683 -0.1164 -0.0773
35577POPC   GL172906  10.017  26.395  13.385  0.1602  0.0656  0.0240
35577POPC   GL272907  10.284  26.246  13.398 -0.0097 -0.0675 -0.3602
35577POPC   C1A72908   9.946  25.927  13.321  0.0935  0.1432 -0.3773
35577POPC   D2A72909   9.851  25.497  13.151  0.2005  0.1879 -0.0201
35577POPC   C3A72910   9.821  25.021  13.331 -0.2286  0.1323  0.0653
35577POPC   C4A72911   9.788  24.708  13.637 -0.2130 -0.1411 -0.0589
35577POPC   C1B72912  10.513  25.859  13.452 -0.0203 -0.1900  0.2600
35577POPC   C2B72913  10.528  25.566  13.161 -0.1416  0.1366 -0.0238
35577POPC   C3B72914  10.368  25.168  12.986 -0.0195 -0.0095 -0.0050
35577POPC   C4B72915  10.044  24.949  12.801 -0.1337  0.0686  0.0973
35578POPC   NC372916  11.918  27.072  11.238 -0.2977  0.1271 -0.0188
35578POPC   PO472917  11.861  26.665  11.337 -0.2544 -0.0214 -0.0111
35578POPC   GL172918  11.715  26.330  11.196 -0.3535  0.0111  0.1074
35578POPC   GL272919  11.468  26.304  11.373 -0.4062 -0.0280  0.3315
35578POPC   C1A72920  11.472  26.044  10.931 -0.2203 -0.0580 -0.1314
35578POPC   D2A72921  11.276  25.898  10.526 -0.1649 -0.4212  0.0226
35578POPC   C3A72922  11.193  25.477  10.415 -0.0957 -0.2738 -0.0625
35578POPC   C4A72923  11.252  25.165  10.077  0.2311 -0.2157 -0.0147
35578POPC   C1B72924  11.299  25.957  11.378 -0.1630  0.3814  0.1002
35578POPC   C2B72925  11.593  25.594  11.401  0.1574  0.1881 -0.0495
35578POPC   C3B72926  11.665  25.176  11.606 -0.1156  0.0754  0.1410
35578POPC   C4B72927  11.538  24.795  11.731 -0.1111  0.2046  0.2650
35579POPC   NC372928   2.017  20.112  15.700  0.0145  0.2891 -0.0130
35579POPC   PO472929   2.097  19.716  15.548 -0.0804 -0.0731 -0.0986
35579POPC   GL172930   2.297  19.797  15.902 -0.1050  0.2349 -0.0734
35579POPC   GL272931   2.506  20.064  15.985  0.2205 -0.0856 -0.2542
35579POPC   C1A72932   2.076  19.872  16.340  0.1170 -0.2250  0.2309
35579POPC   D2A72933   1.606  19.990  16.504 -0.2425 -0.1886 -0.0568
35579POPC   C3A72934   1.556  20.358  16.791 -0.1669  0.0365  0.0966
35579POPC   C4A72935   1.246  20.578  17.034 -0.2646 -0.0057  0.0216
35579POPC   C1B72936   2.619  19.872  16.339 -0.1012  0.2095 -0.1305
35579POPC   C2B72937   2.864  19.651  16.747 -0.0487  0.1451 -0.0315
35579POPC   C3B72938   2.882  19.692  17.205 -0.2594 -0.0410 -0.0773
35579POPC   C4B72939   3.186  19.445  17.517 -0.1606 -0.0329 -0.0484
35580POPC   NC372940   1.804  32.440  16.295 -0.2362  0.0669  0.0217
35580POPC   PO472941   1.867  32.083  16.311 -0.1097  0.2370 -0.0301
35580POPC   GL172942   1.567  32.192  16.716 -0.2095  0.4939  0.0779
35580POPC   GL272943   1.689  32.104  16.935 -0.0955 -0.2762 -0.0486
35580POPC   C1A72944   1.274  32.451  16.958 -0.3106  0.0999  0.0758
35580POPC   D2A72945   1.089  32.724  17.244  0.0316  0.2179  0.1662
35580POPC   C3A72946   1.156  32.833  17.642 -0.0161 -0.2094  0.1819
35580POPC   C4A72947   1.214  32.876  18.096  0.0660 -0.1908  0.1746
35580POPC   C1B72948   1.963  31.724  17.088  0.3165 -0.0717 -0.0701
35580POPC   C2B72949   2.087  31.411  17.361  0.1467  0.0805  0.1672
35580POPC   C3B72950   2.038  31.174  17.794 -0.4073 -0.0520  0.1234
35580POPC   C4B72951   1.933  31.003  18.267 -0.0633 -0.1097 -0.1101
35581POPC   NC372952  11.877  28.971  16.656  0.0611 -0.1140  0.0942
35581POPC   PO472953  12.026  28.585  16.603  0.0176  0.2469 -0.0210
35581POPC   GL172954  11.944  28.439  16.971  0.0162  0.0695  0.4572
35581POPC   GL272955  11.693  28.302  16.998  0.2565  0.0739 -0.0444
35581POPC   C1A72956  11.928  28.522  17.428  0.2080  0.1738 -0.1053
35581POPC   D2A72957  11.926  28.543  17.877  0.1850 -0.2558 -0.2795
35581POPC   C3A72958  11.840  28.153  18.185  0.2486  0.2387 -0.4207
35581POPC   C4A72959  11.667  27.801  18.412  0.3872  0.0333 -0.2823
35581POPC   C1B72960  11.591  28.136  17.425 -0.1546  0.0767 -0.0442
35581POPC   C2B72961  11.264  28.086  17.788  0.2221  0.2147  0.2006
35581POPC   C3B72962  10.902  28.288  18.085  0.0500 -0.0000 -0.0542
35581POPC   C4B72963  10.472  28.456  18.242  0.1367 -0.1907  0.0872
35582POPC   NC372964   4.706  28.520  16.354  0.1376  0.0458  0.1185
35582POPC   PO472965   4.995  28.281  16.322 -0.1212 -0.3209  0.6335
35582POPC   GL172966   4.824  28.109  16.601  0.0714 -0.1659 -0.0624
35582POPC   GL272967   4.885  28.006  16.845  0.0333  0.0861 -0.0622
35582POPC   C1A72968   4.553  27.722  16.616 -0.0949  0.3163 -0.1420
35582POPC   D2A72969   4.327  27.551  16.930  0.1426  0.0515  0.2550
35582POPC   C3A72970   4.494  27.607  17.357  0.1154 -0.1210 -0.0048
35582POPC   C4A72971   4.847  27.430  17.593 -0.0566 -0.1240  0.0016
35582POPC   C1B72972   4.985  27.778  17.229 -0.5930 -0.1166  0.1688
35582POPC   C2B72973   5.184  27.792  17.693 -0.0230 -0.2248  0.1683
35582POPC   C3B72974   5.461  27.921  18.054 -0.0259 -0.2674  0.0546
35582POPC   C4B72975   5.893  28.060  18.072 -0.1645 -0.1374 -0.2972
35583POPC   NC372976   6.506  29.696  16.454  0.0501 -0.0741 -0.2136
35583POPC   PO472977   6.159  29.497  16.543  0.0992  0.0333 -0.1534
35583POPC   GL172978   6.163  29.648  16.805  0.2427  0.1714 -0.0761
35583POPC   GL272979   5.910  29.694  16.941  0.1918  0.0741 -0.2463
35583POPC   C1A72980   6.321  29.918  17.149  0.0173 -0.0004  0.1294
35583POPC   D2A72981   6.400  30.249  17.445  0.1975  0.0621  0.0099
35583POPC   C3A72982   6.368  30.445  17.871  0.0192 -0.4857 -0.0229
35583POPC   C4A72983   6.246  30.552  18.258 -0.0050 -0.1349 -0.0912
35583POPC   C1B72984   6.194  29.400  17.205 -0.2097 -0.0578 -0.2299
35583POPC   C2B72985   6.196  29.456  17.661  0.0296 -0.0656 -0.3411
35583POPC   C3B72986   6.384  29.592  18.094 -0.2728  0.1237 -0.0464
35583POPC   C4B72987   6.540  29.559  18.545  0.3094  0.2881 -0.2111
35584POPC   NC372988   9.183  27.198  12.135  0.1621 -0.1899  0.1551
35584POPC   PO472989   8.883  27.405  11.909 -0.3299  0.0177 -0.1303
35584POPC   GL172990   9.138  27.173  11.589  0.1593 -0.0968 -0.2979
35584POPC   GL272991   9.159  26.844  11.710  0.2219 -0.4277  0.2174
35584POPC   C1A72992   9.288  27.076  11.141  0.0384  0.0078  0.1282
35584POPC   D2A72993   9.458  26.711  11.015  0.1990  0.0612 -0.1912
35584POPC   C3A72994   9.152  26.381  10.891 -0.1843  0.0131  0.3530
35584POPC   C4A72995   9.091  26.056  10.575  0.0237 -0.1828 -0.0748
35584POPC   C1B72996   9.259  26.496  11.407  0.1018  0.1808  0.3177
35584POPC   C2B72997   9.203  26.034  11.342  0.0769 -0.1880 -0.1051
35584POPC   C3B72998   9.375  25.753  11.049  0.0681  0.0794 -0.0021
35584POPC   C4B72999   9.741  25.664  10.732  0.0814  0.0811  0.1815
35585POPC   NC373000   3.434  31.957  16.235 -0.2849  0.2034  0.1861
35585POPC   PO473001   3.761  32.147  16.177  0.2675 -0.0886  0.1309
35585POPC   GL173002   3.738  32.352  16.565 -0.1569 -0.2432 -0.1951
35585POPC   GL273003   3.449  32.389  16.557  0.0272  0.3984 -0.3297
35585POPC   C1A73004   3.661  32.411  17.061 -0.2612 -0.4767  0.0881
35585POPC   D2A73005   3.440  32.645  17.347  0.0417  0.1400  0.0370
35585POPC   C3A73006   3.626  32.878  17.711  0.0377 -0.2207 -0.2657
35585POPC   C4A73007   3.861  32.968  18.096 -0.1387  0.1482  0.0028
35585POPC   C1B73008   3.063  32.561  16.728  0.0930  0.1081  0.2597
35585POPC   C2B73009   2.932  32.720  17.150 -0.2555 -0.3152 -0.0780
35585POPC   C3B73010   2.985  32.739  17.662  0.0438  0.0170 -0.0129
35585POPC   C4B73011   2.948  32.889  18.049  0.5206 -0.1068  0.1707
35586POPC   NC373012   4.253  16.313  16.112 -0.3877  0.2096  0.0102
35586POPC   PO473013   3.958  16.045  16.168 -0.1123  0.1895 -0.0582
35586POPC   GL173014   4.159  15.942  16.554 -0.0364  0.0041 -0.2657
35586POPC   GL273015   4.376  16.121  16.679  0.0331  0.3584  0.0656
35586POPC   C1A73016   4.388  15.683  16.905 -0.1576  0.1104 -0.0591
35586POPC   D2A73017   4.598  15.891  17.226 -0.1449  0.3095  0.2868
35586POPC   C3A73018   4.719  16.283  17.444  0.1785 -0.0325  0.1995
35586POPC   C4A73019   4.790  16.689  17.657  0.1334 -0.0684  0.1937
35586POPC   C1B73020   4.368  16.302  17.079  0.0810  0.1041  0.0312
35586POPC   C2B73021   4.403  16.715  17.318 -0.0746 -0.2687 -0.0805
35586POPC   C3B73022   4.410  17.021  17.649  0.0121  0.2959 -0.0504
35586POPC   C4B73023   4.313  16.920  18.076  0.1414  0.0491  0.0539
35587POPC   NC373024   1.037  20.462  15.606 -0.0332  0.1143  0.0205
35587POPC   PO473025   1.206  20.090  15.593  0.0240  0.0354 -0.2316
35587POPC   GL173026   1.014  20.145  15.921  0.0116  0.1618 -0.1154
35587POPC   GL273027   1.234  20.243  16.071 -0.0072 -0.2412  0.0651
35587POPC   C1A73028   0.773  19.907  16.257 -0.1737  0.0849  0.1314
35587POPC   D2A73029   0.678  20.092  16.672  0.1003 -0.0713  0.0671
35587POPC   C3A73030   0.629  19.799  17.064 -0.0070  0.0308  0.1530
35587POPC   C4A73031   0.765  19.738  17.483 -0.3316  0.1106 -0.0063
35587POPC   C1B73032   1.183  20.212  16.525  0.1220 -0.2462  0.2200
35587POPC   C2B73033   1.071  20.140  17.005 -0.2762  0.0525  0.0524
35587POPC   C3B73034   1.032  20.147  17.512  0.0192  0.0353  0.0912
35587POPC   C4B73035   1.035  19.847  17.855  0.0094  0.1220 -0.0992
35588POPC   NC373036   0.073  27.264  16.574 -0.0108 -0.0450 -0.1310
35588POPC   PO473037   0.454  27.381  16.465 -0.0663  0.3928 -0.0635
35588POPC   GL173038   0.430  27.407  16.862 -0.0706  0.0079 -0.1117
35588POPC   GL273039   0.305  27.642  16.950  0.1503 -0.0413 -0.2105
35588POPC   C1A73040   0.018  27.288  17.117 -0.3388 -0.0643  0.0276
35588POPC   D2A73041  -0.448  27.377  17.294 -0.3763 -0.1502 -0.2184
35588POPC   C3A73042  -0.413  27.643  17.661  0.0386 -0.0681 -0.3127
35588POPC   C4A73043  -0.189  27.773  18.088 -0.1399 -0.0331 -0.3021
35588POPC   C1B73044   0.456  27.469  17.331 -0.0849 -0.0239 -0.1306
35588POPC   C2B73045   0.628  27.476  17.803  0.1603 -0.1554 -0.0657
35588POPC   C3B73046   0.690  27.569  18.263  0.1299 -0.3499  0.0386
35588POPC   C4B73047   1.100  27.564  18.494 -0.2455 -0.4456 -0.0359
35589POPC   NC373048   7.812  29.126   9.953 -0.3481 -0.2782 -0.3579
35589POPC   PO473049   7.768  29.025   9.595  0.2833  0.0223 -0.2266
35589POPC   GL173050   7.866  28.814   9.235 -0.1386  0.1250 -0.0087
35589POPC   GL273051   8.171  28.895   9.340 -0.0791  0.1330  0.2326
35589POPC   C1A73052   7.941  28.372   9.172 -0.1986 -0.0733 -0.1875
35589POPC   D2A73053   8.013  27.943   9.043 -0.0388 -0.0937  0.2487
35589POPC   C3A73054   8.017  27.471   8.978  0.0940  0.0178  0.0907
35589POPC   C4A73055   7.682  27.212   8.784  0.0553 -0.3012 -0.0997
35589POPC   C1B73056   8.401  28.615   9.055  0.0543 -0.0456 -0.0658
35589POPC   C2B73057   8.485  28.332   8.696 -0.3560 -0.0506  0.2165
35589POPC   C3B73058   8.470  27.996   8.356 -0.0301 -0.0039 -0.1337
35589POPC   C4B73059   8.371  27.817   7.903 -0.0793 -0.1853  0.2792
35590POPC   NC373060   9.446  26.399  13.999 -0.2915  0.1976 -0.1008
35590POPC   PO473061   9.731  26.352  13.738  0.1817 -0.0197 -0.0946
35590POPC   GL173062   9.739  26.003  13.737  0.0593 -0.0190 -0.2226
35590POPC   GL273063   9.650  25.884  14.050  0.3701 -0.3250  0.3360
35590POPC   C1A73064  10.111  25.777  13.783  0.0719 -0.1367 -0.1492
35590POPC   D2A73065  10.273  25.399  13.561  0.1257 -0.4759 -0.0739
35590POPC   C3A73066  10.203  24.929  13.591 -0.0064  0.0813 -0.0859
35590POPC   C4A73067  10.309  24.506  13.558 -0.0082  0.0433 -0.3585
35590POPC   C1B73068   9.753  25.511  14.251  0.0383  0.2675 -0.1244
35590POPC   C2B73069   9.664  25.169  14.557  0.2302  0.2504  0.2366
35590POPC   C3B73070   9.542  24.899  14.909 -0.0952 -0.1588  0.1549
35590POPC   C4B73071   9.591  24.700  15.328  0.1038 -0.3194 -0.1828
35591POPC   NC373072  12.679  30.208  16.048 -0.0058 -0.1235 -0.1644
35591POPC   PO473073  12.448  30.064  16.348 -0.0823 -0.2150  0.2445
35591POPC   GL173074  12.359  29.868  16.673 -0.1850  0.0657 -0.1515
35591POPC   GL273075  12.596  29.603  16.615  0.0470 -0.1232  0.2705
35591POPC   C1A73076  12.151  29.756  17.063 -0.1271  0.0224  0.1171
35591POPC   D2A73077  11.916  29.868  17.439 -0.1445  0.0123 -0.3383
35591POPC   C3A73078  11.564  29.559  17.428  0.0406  0.0417  0.3222
35591POPC   C4A73079  11.258  29.313  17.715  0.4196  0.2509  0.2070
35591POPC   C1B73080  12.482  29.424  17.049 -0.1036 -0.1209 -0.1557
35591POPC   C2B73081  12.515  29.349  17.506  0.1332  0.0603  0.1267
35591POPC   C3B73082  12.502  29.312  17.970 -0.0304 -0.1163 -0.0938
35591POPC   C4B73083  12.541  29.732  18.238  0.1245  0.0505  0.0111
35592POPC   NC373084  15.450  19.486  15.296 -0.1432  0.0764  0.0896
35592POPC   PO473085  15.428  19.714  15.016 -0.3602  0.1868  0.1643
35592POPC   GL173086  14.988  19.823  15.148 -0.1343  0.1307 -0.0250
35592POPC   GL273087  14.954  20.006  15.335 -0.0809  0.1088 -0.0197
35592POPC   C1A73088  14.550  19.738  15.233  0.3383 -0.1069 -0.0589
35592POPC   D2A73089  14.123  19.927  15.361  0.0446 -0.3786 -0.3522
35592POPC   C3A73090  13.628  20.004  15.301  0.0731 -0.1169 -0.2593
35592POPC   C4A73091  13.202  20.162  15.306 -0.0043  0.0942 -0.1420
35592POPC   C1B73092  14.689  19.963  15.701 -0.2430  0.0344  0.2020
35592POPC   C2B73093  14.325  19.787  15.926  0.1224  0.1802  0.2840
35592POPC   C3B73094  14.050  19.840  16.273 -0.0913  0.1135 -0.2659
35592POPC   C4B73095  13.822  19.729  16.673 -0.1237  0.1662  0.0675
35593POPC   NC373096   0.692  26.083   8.945  0.1568  0.0062 -0.0494
35593POPC   PO473097   0.967  26.354   8.916 -0.0946 -0.0226  0.0943
35593POPC   GL173098   0.959  26.202   8.574 -0.1735 -0.4469 -0.1362
35593POPC   GL273099   1.025  25.900   8.519  0.0974 -0.0981 -0.1147
35593POPC   C1A73100   0.904  26.351   8.140 -0.1045  0.1028 -0.4335
35593POPC   D2A73101   1.175  26.494   7.790 -0.0856 -0.0174  0.1504
35593POPC   C3A73102   1.120  26.365   7.325 -0.2700  0.3385 -0.3069
35593POPC   C4A73103   1.048  26.131   6.919 -0.1549 -0.1059 -0.0757
35593POPC   C1B73104   1.076  25.860   8.059 -0.0296 -0.2521  0.0345
35593POPC   C2B73105   0.823  25.967   7.671 -0.4346 -0.0104 -0.2302
35593POPC   C3B73106   0.769  25.864   7.234 -0.3656  0.1288 -0.1689
35593POPC   C4B73107   0.573  25.775   6.825  0.0715  0.0733 -0.0115
35594POPC   NC373108   2.554  23.371  15.669 -0.1207 -0.0630 -0.2206
35594POPC   PO473109   2.961  23.502  15.760  0.1870 -0.0521  0.0977
35594POPC   GL173110   3.136  23.212  15.854  0.2476  0.0794 -0.2056
35594POPC   GL273111   3.410  23.240  15.946  0.1132  0.3875  0.0595
35594POPC   C1A73112   3.191  23.152  16.343 -0.0770  0.0185 -0.2070
35594POPC   D2A73113   3.079  23.186  16.779 -0.3265 -0.1934  0.2979
35594POPC   C3A73114   3.383  23.238  17.072 -0.2298 -0.0149 -0.1770
35594POPC   C4A73115   3.793  23.393  17.361  0.0284 -0.1874  0.1466
35594POPC   C1B73116   3.699  23.105  16.291 -0.2298  0.0102  0.3182
35594POPC   C2B73117   4.096  23.004  16.525 -0.4182  0.0684 -0.2060
35594POPC   C3B73118   4.446  23.122  16.817  0.0246  0.0998 -0.1684
35594POPC   C4B73119   4.841  23.104  17.054  0.0949  0.0095 -0.2292
35595POPC   NC373120   8.051  17.814  13.012 -0.0301 -0.0838 -0.2321
35595POPC   PO473121   8.381  17.817  12.803 -0.1547 -0.2902 -0.0609
35595POPC   GL173122   8.441  18.073  13.077  0.3518 -0.1385  0.3049
35595POPC   GL273123   8.436  17.866  13.332  0.0276  0.0034  0.1372
35595POPC   C1A73124   8.268  18.445  13.285  0.0794  0.0715  0.2128
35595POPC   D2A73125   8.416  18.873  13.432  0.2862  0.3399  0.0436
35595POPC   C3A73126   8.673  18.975  13.792  0.1364 -0.1241 -0.1564
35595POPC   C4A73127   8.932  19.208  14.058 -0.1073 -0.1379 -0.1631
35595POPC   C1B73128   8.775  18.214  13.347 -0.2870 -0.2321 -0.0945
35595POPC   C2B73129   8.873  18.681  13.448  0.0620  0.0525  0.2339
35595POPC   C3B73130   9.158  19.051  13.441 -0.1557  0.0412 -0.0988
35595POPC   C4B73131   9.166  19.458  13.636  0.1259 -0.1115  0.1719
35596POPC   NC373132   7.374  32.703  15.825 -0.1402 -0.2447  0.2457
35596POPC   PO473133   7.255  32.321  15.793  0.1775 -0.0384 -0.1377
35596POPC   GL173134   7.211  32.448  16.276 -0.2160  0.2968  0.0700
35596POPC   GL273135   6.979  32.319  16.428 -0.0338 -0.2990  0.1258
35596POPC   C1A73136   7.340  32.603  16.691  0.2455 -0.0778 -0.0043
35596POPC   D2A73137   7.398  32.831  17.045  0.1854 -0.3359  0.2051
35596POPC   C3A73138   7.602  33.263  17.170  0.3258  0.0126  0.0594
35596POPC   C4A73139   7.937  33.621  17.146 -0.0126  0.1756  0.0440
35596POPC   C1B73140   6.870  32.481  16.821  0.0854 -0.3867 -0.1578
35596POPC   C2B73141   6.911  32.734  17.256  0.1857  0.1577 -0.1089
35596POPC   C3B73142   6.618  32.881  17.572  0.5190  0.2042 -0.3578
35596POPC   C4B73143   6.187  32.814  17.576  0.5548 -0.2148  0.0474
35597POPC   NC373144  14.980  23.192  10.749 -0.1806  0.3347  0.0953
35597POPC   PO473145  15.093  23.570  10.836 -0.0818 -0.0156  0.2542
35597POPC   GL173146  14.669  23.560  10.660 -0.0051  0.2121 -0.2592
35597POPC   GL273147  14.554  23.289  10.524 -0.4416 -0.2850 -0.0270
35597POPC   C1A73148  14.184  23.630  10.589  0.1209  0.1328 -0.1396
35597POPC   D2A73149  13.867  23.460  10.293  0.0174 -0.1565  0.0408
35597POPC   C3A73150  13.548  23.270   9.972 -0.0550 -0.1901  0.0139
35597POPC   C4A73151  13.399  23.165   9.589 -0.1841 -0.2687 -0.1247
35597POPC   C1B73152  14.283  23.134  10.179  0.0014 -0.3536  0.1734
35597POPC   C2B73153  14.067  22.820   9.911  0.2847 -0.1912 -0.0071
35597POPC   C3B73154  13.659  22.709   9.748 -0.0292  0.3031 -0.1000
35597POPC   C4B73155  13.195  22.802   9.921  0.0731  0.2346 -0.4081
35598POPC   NC373156   4.686  22.819  14.569 -0.0504  0.1070 -0.1877
35598POPC   PO473157   4.526  23.158  14.604  0.1986  0.0204  0.0775
35598POPC   GL173158   4.599  22.982  15.026 -0.1366  0.2212 -0.0950
35598POPC   GL273159   4.804  23.083  15.202  0.2085 -0.0219  0.0277
35598POPC   C1A73160   4.790  22.561  15.057  0.2254  0.1190 -0.1357
35598POPC   D2A73161   4.715  22.294  15.502 -0.4722 -0.3047  0.1695
35598POPC   C3A73162   4.646  22.342  15.957 -0.1658 -0.0539  0.0274
35598POPC   C4A73163   4.505  22.381  16.378  0.3876 -0.0715  0.1370
35598POPC   C1B73164   4.957  22.721  15.526  0.3634 -0.0087  0.2404
35598POPC   C2B73165   5.179  22.525  15.833  0.0084  0.0906  0.0445
35598POPC   C3B73166   5.054  22.283  16.273  0.3117 -0.3308  0.1197
35598POPC   C4B73167   4.930  22.198  16.689 -0.0452 -0.1142  0.0939
35599POPC   NC373168   9.697  27.467  14.734  0.4952 -0.2042 -0.0379
35599POPC   PO473169   9.655  27.136  14.937  0.3153 -0.0530  0.0625
35599POPC   GL173170   9.608  26.825  15.103 -0.2207 -0.1033 -0.1102
35599POPC   GL273171   9.433  26.896  15.335 -0.4435 -0.0747 -0.0100
35599POPC   C1A73172   9.742  26.467  15.345 -0.3455  0.0711 -0.2175
35599POPC   D2A73173   9.725  26.251  15.751  0.1837 -0.0098 -0.2919
35599POPC   C3A73174   9.375  26.120  16.001  0.2697  0.0346  0.1524
35599POPC   C4A73175   9.337  25.730  16.264 -0.4744 -0.0189  0.2012
35599POPC   C1B73176   9.648  26.852  15.723  0.0941  0.0444 -0.3129
35599POPC   C2B73177   9.893  26.589  16.067 -0.1578 -0.0294 -0.2055
35599POPC   C3B73178  10.031  26.480  16.492 -0.2249 -0.1695 -0.3772
35599POPC   C4B73179  10.247  26.174  16.726  0.1092  0.0599 -0.0473
35600POPC   NC373180   2.047  22.697  15.852 -0.0954  0.0778  0.0067
35600POPC   PO473181   2.413  22.804  15.664  0.0371 -0.2306 -0.1416
35600POPC   GL173182   2.612  22.735  15.953 -0.1771  0.3850  0.2617
35600POPC   GL273183   2.764  22.971  15.986  0.2103  0.0486  0.1120
35600POPC   C1A73184   2.845  22.356  16.114 -0.0113  0.0074 -0.4162
35600POPC   D2A73185   3.092  22.188  16.469 -0.1462  0.2492 -0.0185
35600POPC   C3A73186   3.299  22.311  16.835  0.0196 -0.0812 -0.2514
35600POPC   C4A73187   3.189  22.142  17.276  0.0407  0.1029 -0.1316
35600POPC   C1B73188   2.862  22.836  16.444 -0.3332  0.2021  0.2296
35600POPC   C2B73189   2.921  22.677  16.855  0.0107 -0.1190  0.0356
35600POPC   C3B73190   3.162  22.633  17.224 -0.1565  0.0001 -0.0047
35600POPC   C4B73191   3.346  22.541  17.607  0.1023 -0.0598 -0.1616
35601POPC   NC373192   8.919  16.555  13.396  0.0348  0.0568  0.0669
35601POPC   PO473193   9.242  16.635  13.615  0.1263  0.2435 -0.1728
35601POPC   GL173194   9.169  16.943  13.711 -0.1336 -0.2921  0.0796
35601POPC   GL273195   9.405  17.171  13.701  0.0466  0.0842 -0.2407
35601POPC   C1A73196   9.100  17.197  14.040 -0.0744 -0.2044 -0.0250
35601POPC   D2A73197   9.010  17.641  14.126 -0.0618 -0.2546  0.0057
35601POPC   C3A73198   9.330  17.970  14.107  0.1207  0.1274  0.1028
35601POPC   C4A73199   9.478  18.433  14.164  0.0524  0.3256  0.0300
35601POPC   C1B73200   9.397  17.656  13.756  0.1429 -0.1116 -0.2842
35601POPC   C2B73201   9.726  17.937  13.606 -0.2285  0.0513  0.2466
35601POPC   C3B73202   9.822  18.372  13.708 -0.0008  0.2196  0.0265
35601POPC   C4B73203  10.224  18.554  13.600 -0.0618 -0.1901  0.1512
35602POPC   NC373204   2.408  22.253  15.738 -0.0324  0.0184  0.0188
35602POPC   PO473205   2.124  22.045  15.737  0.0223 -0.2273 -0.1406
35602POPC   GL173206   2.196  22.008  16.178 -0.1828  0.0613 -0.1326
35602POPC   GL273207   2.170  21.723  16.107 -0.0128  0.0831 -0.3683
35602POPC   C1A73208   2.205  22.085  16.643  0.1117  0.2849 -0.1135
35602POPC   D2A73209   2.189  22.082  17.097 -0.3366  0.1885  0.1197
35602POPC   C3A73210   2.239  22.337  17.431 -0.0221 -0.1158  0.1098
35602POPC   C4A73211   1.974  22.452  17.796  0.1592  0.1669  0.1607
35602POPC   C1B73212   2.167  21.442  16.507 -0.2115 -0.3019 -0.3048
35602POPC   C2B73213   2.302  21.216  16.905  0.1403  0.2157  0.1126
35602POPC   C3B73214   2.319  21.130  17.353 -0.0374 -0.0455 -0.0144
35602POPC   C4B73215   2.239  21.031  17.799 -0.0730 -0.2656 -0.0000
35603POPC   NC373216   7.529  25.892  12.087 -0.0721 -0.0312  0.2454
35603POPC   PO473217   7.450  26.082  12.398  0.2551 -0.1074  0.1134
35603POPC   GL173218   7.803  25.883  12.481 -0.1651 -0.0350 -0.0462
35603POPC   GL273219   8.045  25.867  12.665 -0.4084 -0.3541  0.1362
35603POPC   C1A73220   8.009  25.544  12.196 -0.0336 -0.0357  0.5222
35603POPC   D2A73221   8.200  25.120  12.109 -0.0243 -0.0128 -0.2079
35603POPC   C3A73222   8.330  24.713  12.164  0.0751  0.1662 -0.2686
35603POPC   C4A73223   8.011  24.392  11.950 -0.2424  0.4055  0.0457
35603POPC   C1B73224   8.387  25.551  12.696 -0.1332  0.1209 -0.1163
35603POPC   C2B73225   8.560  25.337  12.379 -0.1510  0.0607  0.0025
35603POPC   C3B73226   8.863  25.001  12.235 -0.1175  0.0470  0.0528
35603POPC   C4B73227   9.306  24.918  12.121 -0.1427  0.2043 -0.1130
35604POPC   NC373228  15.236  30.281  20.599 -0.2367 -0.0190  0.3095
35604POPC   PO473229  14.873  30.441  20.466  0.0335 -0.0291 -0.3949
35604POPC   GL173230  14.818  30.303  20.039  0.4076 -0.0387  0.2421
35604POPC   GL273231  14.747  30.539  19.887 -0.3065 -0.2813  0.0571
35604POPC   C1A73232  14.812  29.944  19.716  0.3062  0.0370  0.0034
35604POPC   D2A73233  14.961  29.638  19.405 -0.2213 -0.0346  0.0230
35604POPC   C3A73234  15.108  29.985  19.122 -0.0832 -0.0062 -0.4552
35604POPC   C4A73235  15.425  29.796  18.791 -0.1432 -0.0277  0.0306
35604POPC   C1B73236  14.948  30.919  19.712 -0.0895  0.0198 -0.0747
35604POPC   C2B73237  15.034  31.185  19.318 -0.0769  0.1332 -0.2302
35604POPC   C3B73238  15.246  31.170  18.909  0.1620 -0.0177 -0.1088
35604POPC   C4B73239  15.330  31.509  18.623  0.3088  0.0844  0.0859
35605POPC   NC373240  13.651  26.986  20.255 -0.1080  0.1813 -0.0477
35605POPC   PO473241  14.012  26.818  20.226 -0.1464 -0.0410 -0.1930
35605POPC   GL173242  14.012  27.086  19.900  0.0328  0.1937 -0.0396
35605POPC   GL273243  14.043  26.837  19.756 -0.0029 -0.2526  0.1689
35605POPC   C1A73244  14.326  27.252  19.521 -0.0871 -0.1810 -0.0544
35605POPC   D2A73245  14.525  27.282  19.115 -0.1514 -0.1403 -0.3735
35605POPC   C3A73246  14.405  27.608  18.841 -0.2521 -0.0412  0.3043
35605POPC   C4A73247  14.192  27.766  18.477 -0.0101  0.1975  0.2960
35605POPC   C1B73248  13.846  27.145  19.456  0.3648 -0.0243 -0.2047
35605POPC   C2B73249  13.580  27.453  19.249 -0.1782  0.1278 -0.3805
35605POPC   C3B73250  13.563  27.572  18.814 -0.0621  0.1914  0.3405
35605POPC   C4B73251  13.375  27.385  18.431  0.0117  0.4613  0.1747
35606POPC   NC373252   2.941  25.904  19.895  0.5065 -0.1241  0.4940
35606POPC   PO473253   3.254  25.759  19.965 -0.2003  0.1075  0.1463
35606POPC   GL173254   3.309  25.608  19.562 -0.0247 -0.0611  0.0784
35606POPC   GL273255   3.488  25.919  19.483  0.0021  0.1446  0.0599
35606POPC   C1A73256   3.276  25.625  19.100  0.2827 -0.0559 -0.1410
35606POPC   D2A73257   3.131  25.740  18.668 -0.1700 -0.2415  0.2400
35606POPC   C3A73258   3.144  25.484  18.322  0.0730 -0.2320 -0.0083
35606POPC   C4A73259   3.256  25.412  17.872 -0.1789 -0.1714 -0.2569
35606POPC   C1B73260   3.427  26.069  19.043  0.2583  0.0379  0.0651
35606POPC   C2B73261   3.388  26.237  18.605 -0.0263 -0.0019 -0.0091
35606POPC   C3B73262   3.539  26.198  18.196  0.0850  0.2441 -0.1536
35606POPC   C4B73263   3.901  26.125  18.028  0.0977  0.3562 -0.2501
35607POPC   NC373264   8.063  29.460  20.633  0.0835  0.0126  0.2786
35607POPC   PO473265   8.304  29.496  20.305 -0.0546  0.0483  0.1323
35607POPC   GL173266   8.422  29.529  19.899 -0.0318 -0.1864 -0.1298
35607POPC   GL273267   8.219  29.515  19.829  0.2609 -0.0721 -0.1493
35607POPC   C1A73268   8.536  29.437  19.456 -0.2106 -0.0738  0.0158
35607POPC   D2A73269   8.788  29.644  19.076  0.0224 -0.1126 -0.0850
35607POPC   C3A73270   8.659  29.555  18.624 -0.0752 -0.3528  0.0446
35607POPC   C4A73271   8.538  29.827  18.266  0.1695  0.0827 -0.1844
35607POPC   C1B73272   8.142  29.940  19.584  0.3108 -0.0426  0.2760
35607POPC   C2B73273   7.837  29.949  19.211 -0.0218  0.1643 -0.1462
35607POPC   C3B73274   7.426  29.781  18.936 -0.2092 -0.2348 -0.1213
35607POPC   C4B73275   7.091  29.980  18.670 -0.3534  0.4218 -0.0936
35608POPC   NC373276  13.083  30.022  20.883 -0.0189  0.1995 -0.3710
35608POPC   PO473277  13.457  29.916  20.702  0.0019  0.1478  0.2399
35608POPC   GL173278  13.656  29.831  20.379 -0.0291 -0.1530 -0.0249
35608POPC   GL273279  13.418  29.780  20.188  0.3110 -0.2458 -0.0057
35608POPC   C1A73280  13.835  29.901  19.933 -0.1433 -0.2726 -0.0122
35608POPC   D2A73281  13.980  29.691  19.576 -0.0924  0.0678 -0.1965
35608POPC   C3A73282  13.804  29.673  19.140 -0.0008 -0.1297 -0.0930
35608POPC   C4A73283  13.775  29.438  18.788 -0.1235  0.1282 -0.4349
35608POPC   C1B73284  13.478  29.597  19.814 -0.0491 -0.4133  0.0062
35608POPC   C2B73285  13.302  29.619  19.357  0.0882  0.1242 -0.3785
35608POPC   C3B73286  13.259  29.602  18.886  0.2601  0.3792  0.1385
35608POPC   C4B73287  13.358  29.486  18.471 -0.0078 -0.1163 -0.0366
35609POPC   NC373288  13.758  23.003  19.197 -0.1696  0.0049 -0.1653
35609POPC   PO473289  13.434  23.185  19.151  0.0932  0.1863 -0.0063
35609POPC   GL173290  13.626  23.273  18.778  0.2674 -0.3455  0.4679
35609POPC   GL273291  13.635  23.571  18.754 -0.0072 -0.0575  0.0713
35609POPC   C1A73292  13.674  23.223  18.323 -0.0527 -0.0329  0.1843
35609POPC   D2A73293  13.877  23.389  17.933 -0.1309  0.0909  0.2102
35609POPC   C3A73294  14.144  23.136  17.687  0.1371 -0.2283 -0.1591
35609POPC   C4A73295  14.462  22.915  17.430 -0.2090 -0.1337  0.1777
35609POPC   C1B73296  13.902  23.668  18.416 -0.2833  0.2858 -0.2379
35609POPC   C2B73297  14.353  23.489  18.294 -0.0217 -0.1150 -0.1759
35609POPC   C3B73298  14.817  23.507  18.196  0.1087 -0.0742  0.1118
35609POPC   C4B73299  15.172  23.512  17.863  0.3719  0.1670 -0.2675
35610POPC   NC373300   1.908  16.842  20.321 -0.2736 -0.0553  0.1432
35610POPC   PO473301   2.159  17.187  20.260  0.1755 -0.0233 -0.1668
35610POPC   GL173302   2.262  17.144  19.861 -0.2108  0.0872  0.0136
35610POPC   GL273303   2.111  16.895  19.802 -0.0906  0.2655 -0.0038
35610POPC   C1A73304   2.021  17.304  19.526 -0.2155  0.2753  0.0015
35610POPC   D2A73305   1.659  17.438  19.274 -0.1002 -0.0927  0.4638
35610POPC   C3A73306   1.626  17.229  18.807 -0.4193  0.0786 -0.2830
35610POPC   C4A73307   1.970  17.031  18.551  0.0208  0.1091 -0.2776
35610POPC   C1B73308   2.084  16.621  19.427 -0.0845 -0.5459  0.3660
35610POPC   C2B73309   2.147  16.631  19.017 -0.1636 -0.0800  0.1096
35610POPC   C3B73310   2.027  16.534  18.560 -0.1070  0.2796  0.1131
35610POPC   C4B73311   1.930  16.255  18.171  0.0578  0.0738  0.2262
35611POPC   NC373312  16.061  30.233  20.975  0.1606 -0.0344  0.0803
35611POPC   PO473313  15.685  30.283  20.877 -0.0350  0.1216 -0.0015
35611POPC   GL173314  15.636  30.122  20.520 -0.0138 -0.4048  0.2163
35611POPC   GL273315  15.487  29.840  20.440 -0.4878  0.1094 -0.1224
35611POPC   C1A73316  15.769  30.104  20.080  0.0259 -0.1007 -0.0623
35611POPC   D2A73317  15.679  30.329  19.643  0.2284  0.0545  0.3105
35611POPC   C3A73318  15.845  30.514  19.241 -0.2180 -0.1177 -0.1178
35611POPC   C4A73319  15.789  30.574  18.787 -0.2575 -0.5973 -0.1140
35611POPC   C1B73320  15.305  29.965  20.056 -0.2796  0.0338 -0.0897
35611POPC   C2B73321  15.301  30.019  19.582 -0.1399 -0.3827  0.1409
35611POPC   C3B73322  15.593  30.116  19.204  0.2483  0.0348 -0.0741
35611POPC   C4B73323  16.006  30.154  18.980 -0.3717  0.0516  0.0326
35612POPC   NC373324   7.497  21.400  17.796 -0.1575  0.2408  0.2376
35612POPC   PO473325   7.324  21.656  17.597  0.2924 -0.0142  0.2182
35612POPC   GL173326   7.015  21.748  17.362 -0.0341  0.0261 -0.1815
35612POPC   GL273327   6.856  21.455  17.337 -0.3683  0.2321  0.1591
35612POPC   C1A73328   6.927  21.610  16.887  0.0681 -0.4962  0.1989
35612POPC   D2A73329   6.720  21.463  16.444 -0.3422  0.0108  0.0087
35612POPC   C3A73330   6.451  21.365  16.079  0.3052  0.0420 -0.4001
35612POPC   C4A73331   6.282  21.435  15.654 -0.0167 -0.4219  0.1832
35612POPC   C1B73332   6.671  21.157  16.981  0.1407 -0.1732  0.0602
35612POPC   C2B73333   6.374  21.102  16.619 -0.1978  0.3126 -0.0931
35612POPC   C3B73334   6.114  21.062  16.230  0.0780  0.0789  0.1473
35612POPC   C4B73335   5.835  21.231  15.871 -0.2850 -0.1722  0.2110
35613POPC   NC373336   0.979  27.348  20.760  0.0402  0.2796  0.1888
35613POPC   PO473337   1.270  27.227  20.561 -0.0924 -0.1925  0.0369
35613POPC   GL173338   1.417  27.261  20.150 -0.1437 -0.0032 -0.3255
35613POPC   GL273339   1.412  26.937  20.137 -0.2060 -0.1204 -0.1718
35613POPC   C1A73340   1.371  27.154  19.677 -0.2109  0.0616 -0.0301
35613POPC   D2A73341   1.127  27.174  19.284  0.1670 -0.2728  0.0952
35613POPC   C3A73342   0.842  27.426  19.111  0.3398 -0.2019 -0.1404
35613POPC   C4A73343   0.625  27.621  18.759  0.3645 -0.0452  0.1816
35613POPC   C1B73344   1.139  26.610  20.034  0.0015 -0.0833  0.0525
35613POPC   C2B73345   1.093  26.203  19.736  0.1217 -0.2135 -0.0210
35613POPC   C3B73346   0.927  26.163  19.317  0.1604 -0.0326 -0.2142
35613POPC   C4B73347   0.740  26.356  19.012 -0.3078 -0.2840  0.1499
35614POPC   NC373348   9.856  26.632  20.330 -0.1039  0.4650  0.1991
35614POPC   PO473349  10.079  26.654  20.045  0.0078  0.0279 -0.1057
35614POPC   GL173350   9.765  26.794  19.820  0.0135 -0.3770 -0.0291
35614POPC   GL273351   9.892  26.698  19.540  0.0455 -0.3729  0.2528
35614POPC   C1A73352   9.565  27.079  19.508 -0.0242  0.2086 -0.1880
35614POPC   D2A73353   9.643  27.410  19.190  0.2553  0.1746 -0.1076
35614POPC   C3A73354   9.528  27.768  19.311  0.1168  0.1807  0.3527
35614POPC   C4A73355   9.674  28.201  19.217  0.2813  0.0597  0.2933
35614POPC   C1B73356  10.019  27.048  19.308  0.2557  0.0795 -0.0977
35614POPC   C2B73357  10.191  27.344  19.051  0.2205  0.1787  0.0542
35614POPC   C3B73358  10.269  27.571  18.673 -0.1371  0.1144  0.0490
35614POPC   C4B73359  10.211  27.599  18.203 -0.0079  0.2039  0.2582
35615POPC   NC373360   9.529  26.118  19.499 -0.0334 -0.0367 -0.2023
35615POPC   PO473361   9.871  26.210  19.282 -0.0428 -0.0231  0.2625
35615POPC   GL173362   9.629  26.390  19.107  0.0361 -0.1027 -0.0749
35615POPC   GL273363   9.546  26.288  18.848 -0.4198 -0.0752  0.1147
35615POPC   C1A73364   9.451  26.792  19.081  0.0021 -0.3440 -0.2085
35615POPC   D2A73365   9.249  27.194  18.988 -0.2069  0.0381  0.3268
35615POPC   C3A73366   9.378  27.640  18.765  0.2517  0.0883  0.1459
35615POPC   C4A73367   9.344  28.023  18.454 -0.1425  0.1555  0.2289
35615POPC   C1B73368   9.501  26.630  18.614 -0.1893 -0.1072 -0.2300
35615POPC   C2B73369   9.434  27.081  18.456 -0.0935 -0.0137 -0.1612
35615POPC   C3B73370   9.409  27.431  18.263  0.1297 -0.2442 -0.0731
35615POPC   C4B73371   9.691  27.750  18.113 -0.0821  0.1385  0.2128
35616POPC   NC373372   2.381  21.014  19.480  0.2457  0.0399  0.0980
35616POPC   PO473373   2.534  21.383  19.578 -0.3828 -0.3310  0.0111
35616POPC   GL173374   2.510  21.464  19.210  0.0967 -0.0267 -0.2845
35616POPC   GL273375   2.288  21.336  19.119  0.1705  0.2945  0.0314
35616POPC   C1A73376   2.575  21.649  18.787 -0.1576  0.2923  0.0090
35616POPC   D2A73377   2.712  21.614  18.342 -0.2497  0.0170 -0.1955
35616POPC   C3A73378   2.476  21.381  18.102  0.0359  0.1401  0.4118
35616POPC   C4A73379   2.074  21.480  17.932  0.0106 -0.0694  0.0963
35616POPC   C1B73380   1.941  21.160  18.899  0.0967 -0.0456 -0.2362
35616POPC   C2B73381   1.530  21.184  18.595  0.3577  0.2242 -0.2977
35616POPC   C3B73382   1.334  21.202  18.193 -0.1128  0.0270  0.2640
35616POPC   C4B73383   0.982  21.281  17.943  0.0076  0.0362 -0.1582
35617POPC   NC373384   9.539  18.319  18.110  0.0327  0.2404  0.0367
35617POPC   PO473385   9.309  18.636  18.134 -0.0089 -0.0650 -0.4249
35617POPC   GL173386   9.086  18.410  18.021  0.2024  0.0952  0.0965
35617POPC   GL273387   8.829  18.240  18.004  0.1195 -0.0008 -0.1827
35617POPC   C1A73388   9.194  18.294  17.574 -0.0557  0.0708 -0.0813
35617POPC   D2A73389   9.093  18.178  17.143  0.2373 -0.2717  0.1609
35617POPC   C3A73390   9.166  17.969  16.759 -0.2302  0.3494  0.3186
35617POPC   C4A73391   9.449  17.899  16.356  0.3860 -0.1495 -0.0076
35617POPC   C1B73392   8.440  18.439  17.957  0.1697 -0.0856 -0.1580
35617POPC   C2B73393   8.008  18.367  18.042 -0.1136  0.1822  0.0817
35617POPC   C3B73394   7.770  18.201  17.633 -0.0290 -0.1222 -0.0757
35617POPC   C4B73395   7.447  18.075  17.327  0.1736 -0.1561  0.2378
35618POPC   NC373396  14.304  20.743  19.223  0.2076  0.1385  0.1228
35618POPC   PO473397  14.131  20.753  18.901  0.1006 -0.2159  0.2408
35618POPC   GL173398  14.410  21.096  18.826 -0.5391 -0.1616 -0.0539
35618POPC   GL273399  14.747  21.143  18.814 -0.0815 -0.0501 -0.0228
35618POPC   C1A73400  14.327  21.330  18.459  0.0648 -0.0018  0.0119
35618POPC   D2A73401  14.152  21.577  18.070  0.0378  0.3704  0.0758
35618POPC   C3A73402  14.252  21.485  17.609 -0.0950  0.1782  0.0426
35618POPC   C4A73403  14.651  21.496  17.437  0.1167 -0.1073  0.0426
35618POPC   C1B73404  14.822  21.198  18.329 -0.1868  0.0644 -0.0192
35618POPC   C2B73405  15.149  21.015  18.085  0.2456  0.2822  0.0135
35618POPC   C3B73406  15.433  20.979  17.730  0.0388 -0.0041  0.0412
35618POPC   C4B73407  15.683  20.861  17.323  0.0321 -0.0012  0.2264
35619POPC   NC373408   6.258  32.136  20.342 -0.1990 -0.1495 -0.2480
35619POPC   PO473409   5.941  31.955  20.374 -0.0957 -0.3417 -0.0197
35619POPC   GL173410   6.145  31.752  20.068  0.4793 -0.2833  0.1435
35619POPC   GL273411   6.415  31.883  19.921  0.1921 -0.0030 -0.0484
35619POPC   C1A73412   6.067  31.700  19.617  0.3094 -0.1098 -0.2188
35619POPC   D2A73413   6.198  31.790  19.182 -0.0108  0.0395  0.0260
35619POPC   C3A73414   6.449  32.058  18.906 -0.0328  0.1034  0.1525
35619POPC   C4A73415   6.673  32.312  18.663  0.2169  0.1041 -0.2318
35619POPC   C1B73416   6.569  31.665  19.551  0.2259  0.0893  0.1449
35619POPC   C2B73417   6.439  31.386  19.198 -0.2190  0.3743  0.0476
35619POPC   C3B73418   6.591  31.132  18.871 -0.0307  0.0841  0.2011
35619POPC   C4B73419   6.606  31.228  18.436 -0.2264 -0.4155  0.1143
35620POPC   NC373420  11.387  21.427  15.301  0.3054  0.0460  0.2362
35620POPC   PO473421  11.314  21.151  15.494 -0.0831 -0.2695 -0.1249
35620POPC   GL173422  11.651  20.970  15.406 -0.1604  0.1756 -0.4858
35620POPC   GL273423  11.580  20.636  15.440  0.1878 -0.4741  0.0816
35620POPC   C1A73424  12.074  20.907  15.549  0.1465 -0.1494  0.0485
35620POPC   D2A73425  12.461  20.989  15.811  0.1457 -0.1430  0.0246
35620POPC   C3A73426  12.909  20.888  15.879  0.1544 -0.1786 -0.1323
35620POPC   C4A73427  13.322  20.769  15.781 -0.4172 -0.1165 -0.2107
35620POPC   C1B73428  11.844  20.509  15.079  0.0516  0.0305  0.1821
35620POPC   C2B73429  12.199  20.318  14.815 -0.1319  0.2122 -0.0732
35620POPC   C3B73430  12.438  20.401  14.457  0.1365 -0.0785 -0.1204
35620POPC   C4B73431  12.863  20.515  14.334  0.0883  0.0094  0.3340
35621POPC   NC373432   3.604  26.669  20.029  0.0345 -0.1340  0.0667
35621POPC   PO473433   3.837  26.534  20.348 -0.0742  0.1440 -0.2723
35621POPC   GL173434   4.073  26.654  19.972 -0.2617  0.0029 -0.3884
35621POPC   GL273435   4.144  26.354  19.962 -0.0839  0.2913  0.3811
35621POPC   C1A73436   3.828  26.766  19.597  0.0165 -0.0140  0.1515
35621POPC   D2A73437   3.578  27.009  19.246 -0.4145  0.1396 -0.0011
35621POPC   C3A73438   3.187  27.229  19.351 -0.1431  0.2119  0.0676
35621POPC   C4A73439   2.840  27.182  19.677  0.1422  0.2391 -0.2303
35621POPC   C1B73440   4.312  26.433  19.514  0.3113  0.1019 -0.1841
35621POPC   C2B73441   4.460  26.256  19.113 -0.4397  0.0322  0.1615
35621POPC   C3B73442   4.279  26.362  18.722 -0.1241  0.3511 -0.1494
35621POPC   C4B73443   3.854  26.497  18.441 -0.0301  0.3201  0.1247
35622POPC   NC373444  16.010  17.654  19.770  0.0965  0.1381 -0.2607
35622POPC   PO473445  16.072  18.049  19.663  0.3831  0.0963  0.1737
35622POPC   GL173446  16.124  18.101  19.286 -0.0731  0.0778  0.0562
35622POPC   GL273447  16.212  18.322  19.134 -0.0278  0.1178  0.0660
35622POPC   C1A73448  15.764  18.072  18.934 -0.2102 -0.0553 -0.0122
35622POPC   D2A73449  15.737  17.905  18.533  0.0371  0.1071 -0.1025
35622POPC   C3A73450  15.812  18.081  18.153 -0.4068 -0.1235 -0.3200
35622POPC   C4A73451  16.230  18.326  18.221 -0.3548  0.2020 -0.0194
35622POPC   C1B73452  16.189  18.101  18.730  0.2763  0.0997  0.2493
35622POPC   C2B73453  16.350  17.876  18.372 -0.0960  0.2165 -0.1782
35622POPC   C3B73454  16.259  17.929  17.948  0.1239 -0.1093 -0.2660
35622POPC   C4B73455  15.885  17.902  17.666 -0.0909  0.1962  0.0467
35623POPC   NC373456   0.642  26.521  20.666 -0.2362  0.1103 -0.1818
35623POPC   PO473457   0.580  26.264  20.336 -0.0105  0.2868  0.0976
35623POPC   GL173458   0.517  26.497  19.991 -0.2569  0.2870  0.4914
35623POPC   GL273459   0.248  26.545  20.100  0.1447 -0.1187 -0.3116
35623POPC   C1A73460   0.675  26.540  19.606  0.0374 -0.1420  0.3212
35623POPC   D2A73461   1.044  26.683  19.368  0.0343 -0.0155 -0.3457
35623POPC   C3A73462   1.203  26.823  18.952 -0.1096 -0.2663 -0.1697
35623POPC   C4A73463   1.385  27.207  18.791  0.2395 -0.2503 -0.1773
35623POPC   C1B73464   0.149  26.358  19.664 -0.1811  0.5111 -0.1326
35623POPC   C2B73465   0.255  26.270  19.185 -0.1006  0.1430 -0.3231
35623POPC   C3B73466   0.132  26.370  18.813  0.0070 -0.2610 -0.0638
35623POPC   C4B73467   0.059  26.832  18.809  0.0225 -0.1359 -0.2419
35624POPC   NC373468  11.541  22.169  11.857  0.0630  0.0743 -0.1947
35624POPC   PO473469  11.395  22.242  12.206 -0.1531 -0.0702 -0.2294
35624POPC   GL173470  11.656  22.284  12.299  0.0528 -0.1835 -0.0765
35624POPC   GL273471  11.835  22.015  12.258  0.2004  0.0440  0.0980
35624POPC   C1A73472  11.994  22.515  12.028  0.0464 -0.0415  0.0930
35624POPC   D2A73473  12.343  22.794  12.107 -0.0693  0.0782 -0.0334
35624POPC   C3A73474  12.372  23.042  12.532 -0.0753  0.1351 -0.3249
35624POPC   C4A73475  12.347  23.208  12.985  0.1161  0.1665 -0.2385
35624POPC   C1B73476  12.108  22.005  12.649  0.1116  0.0069  0.1803
35624POPC   C2B73477  12.489  22.142  12.880  0.0614 -0.0135 -0.0664
35624POPC   C3B73478  12.848  22.479  12.766  0.3591  0.1421 -0.1935
35624POPC   C4B73479  13.098  22.861  12.906 -0.2672  0.0270 -0.2858
35625POPC   NC373480  10.891  20.607  12.901  0.1973 -0.2396  0.1028
35625POPC   PO473481  11.026  20.989  12.828  0.1850  0.0186 -0.0947
35625POPC   GL173482  11.346  20.955  13.082  0.2645 -0.0888 -0.4447
35625POPC   GL273483  11.361  20.663  13.054  0.2050 -0.0202 -0.2949
35625POPC   C1A73484  11.649  20.854  13.410 -0.0148 -0.1138  0.0608
35625POPC   D2A73485  12.036  20.686  13.666  0.1015  0.2659 -0.4561
35625POPC   C3A73486  11.975  20.654  14.173  0.0458 -0.0404  0.2633
35625POPC   C4A73487  11.969  20.652  14.610 -0.1748  0.2584  0.1248
35625POPC   C1B73488  11.831  20.781  12.964 -0.0803  0.0459 -0.2248
35625POPC   C2B73489  12.223  20.908  12.964 -0.0720 -0.1286  0.1041
35625POPC   C3B73490  12.668  21.104  12.921  0.4230  0.1674  0.2386
35625POPC   C4B73491  12.757  21.519  13.063  0.0815  0.2256 -0.0892
35626POPC   NC373492  15.767  21.488  19.684  0.0354 -0.1211 -0.0026
35626POPC   PO473493  15.572  21.780  19.541 -0.0494 -0.0036 -0.2992
35626POPC   GL173494  15.659  21.792  19.255  0.2864  0.0465 -0.1588
35626POPC   GL273495  15.591  21.604  19.067 -0.1352  0.0170 -0.3224
35626POPC   C1A73496  15.726  22.098  18.898  0.2496 -0.2354 -0.2169
35626POPC   D2A73497  16.022  22.399  18.690 -0.0418 -0.1191 -0.0739
35626POPC   C3A73498  15.854  22.672  18.383 -0.0061  0.1323  0.1231
35626POPC   C4A73499  15.760  22.621  17.976 -0.2015 -0.3607  0.0666
35626POPC   C1B73500  15.652  21.688  18.596  0.3120 -0.0260  0.2110
35626POPC   C2B73501  15.884  21.422  18.288 -0.2617 -0.1466  0.1541
35626POPC   C3B73502  16.204  21.404  17.991  0.1718  0.0724  0.0151
35626POPC   C4B73503  16.241  21.845  17.878  0.1398 -0.0232 -0.3009
35627POPC   NC373504   2.760  19.635  19.366  0.0529 -0.1659  0.3468
35627POPC   PO473505   3.143  19.615  19.410  0.0284 -0.2507 -0.3333
35627POPC   GL173506   3.072  19.748  18.948 -0.4183  0.2356 -0.2008
35627POPC   GL273507   3.316  19.843  18.838  0.1999  0.0766 -0.2115
35627POPC   C1A73508   2.627  19.789  18.781  0.0371  0.3732 -0.1294
35627POPC   D2A73509   2.370  19.902  18.425  0.0099 -0.0455 -0.0337
35627POPC   C3A73510   2.648  19.991  18.077  0.1576 -0.1081  0.2144
35627POPC   C4A73511   2.682  20.337  17.795 -0.0230 -0.2685  0.1560
35627POPC   C1B73512   3.267  19.528  18.521  0.1109  0.2711  0.1455
35627POPC   C2B73513   3.206  19.280  18.106 -0.0986  0.0656  0.0678
35627POPC   C3B73514   2.886  19.129  17.833  0.1146  0.0133  0.3543
35627POPC   C4B73515   2.676  19.426  17.597  0.3125 -0.0834  0.4196
35628POPC   NC373516   8.267  19.415  18.097 -0.1926  0.2030  0.0611
35628POPC   PO473517   8.602  19.206  18.138 -0.2113  0.0596  0.0918
35628POPC   GL173518   8.522  18.923  17.802  0.0150  0.1991 -0.0156
35628POPC   GL273519   8.189  18.858  17.835  0.1000 -0.0285 -0.0174
35628POPC   C1A73520   8.762  18.539  17.631  0.1730 -0.1602 -0.1520
35628POPC   D2A73521   8.717  18.089  17.508 -0.0123 -0.1478  0.0366
35628POPC   C3A73522   8.732  17.788  17.193  0.2292  0.1927  0.0260
35628POPC   C4A73523   8.713  17.371  16.966  0.0017  0.2857  0.0587
35628POPC   C1B73524   8.184  18.525  17.556 -0.1059  0.1725  0.1357
35628POPC   C2B73525   8.249  18.229  17.235  0.1664 -0.2377  0.0425
35628POPC   C3B73526   8.220  17.820  17.126  0.1566  0.0419 -0.1779
35628POPC   C4B73527   8.114  17.321  17.093 -0.1592  0.0875  0.0483
35629POPC   NC373528   9.469  19.794  15.610  0.3137  0.3514  0.1298
35629POPC   PO473529   9.369  20.109  15.830 -0.3049 -0.0221  0.3269
35629POPC   GL173530   8.996  19.962  15.743 -0.4838  0.0860  0.1160
35629POPC   GL273531   8.918  19.703  15.695  0.1970  0.1728  0.0029
35629POPC   C1A73532   8.633  20.027  15.469  0.1230  0.2369 -0.0917
35629POPC   D2A73533   8.228  19.917  15.248 -0.1211 -0.0408 -0.0240
35629POPC   C3A73534   8.013  19.954  14.811  0.0307  0.4466  0.2726
35629POPC   C4A73535   7.662  19.707  14.574 -0.2027  0.0774  0.0899
35629POPC   C1B73536   9.194  19.374  15.614  0.2778  0.1812  0.1191
35629POPC   C2B73537   9.563  19.108  15.460  0.1693  0.0729  0.0452
35629POPC   C3B73538   9.688  18.697  15.480  0.0596  0.1526  0.2947
35629POPC   C4B73539   9.550  18.305  15.639  0.0402 -0.0277  0.0673
35630POPC   NC373540   3.120  22.470  20.080 -0.1090 -0.4934 -0.0694
35630POPC   PO473541   2.861  22.655  19.828 -0.0917 -0.0220 -0.1222
35630POPC   GL173542   2.737  22.697  19.490 -0.4885  0.3076  0.2850
35630POPC   GL273543   2.594  22.376  19.545 -0.0396 -0.0867 -0.0667
35630POPC   C1A73544   2.915  22.994  19.181 -0.3661 -0.1142 -0.2703
35630POPC   D2A73545   2.799  23.177  18.811 -0.3255  0.0247 -0.0310
35630POPC   C3A73546   3.217  23.295  18.684  0.2780  0.0109 -0.0295
35630POPC   C4A73547   3.587  23.232  18.450 -0.2506 -0.0400 -0.2809
35630POPC   C1B73548   2.501  22.608  19.123 -0.2415 -0.0444 -0.3335
35630POPC   C2B73549   2.357  22.966  18.837 -0.0687  0.3450 -0.1998
35630POPC   C3B73550   2.335  23.296  18.509 -0.1477  0.4454  0.1728
35630POPC   C4B73551   2.391  23.669  18.283  0.3519  0.3131  0.0843
35631POPC   NC373552   4.326  24.751  19.474 -0.1232 -0.2641 -0.0542
35631POPC   PO473553   4.016  24.701  19.734 -0.1147 -0.0041 -0.1526
35631POPC   GL173554   3.777  24.873  19.505 -0.0436  0.1815  0.3220
35631POPC   GL273555   3.486  24.825  19.500 -0.1753  0.0595  0.2956
35631POPC   C1A73556   3.740  24.864  19.050 -0.2281 -0.0778 -0.2155
35631POPC   D2A73557   3.615  24.618  18.694 -0.2284  0.2167  0.0272
35631POPC   C3A73558   3.725  24.159  18.714 -0.1090  0.0281 -0.2498
35631POPC   C4A73559   3.803  23.898  19.092 -0.0804  0.0341  0.0018
35631POPC   C1B73560   3.257  25.133  19.212 -0.2146 -0.0314 -0.0536
35631POPC   C2B73561   3.029  25.272  18.805  0.0396 -0.3488 -0.0961
35631POPC   C3B73562   2.645  25.606  18.746 -0.0167 -0.1273  0.0596
35631POPC   C4B73563   2.301  25.859  18.538  0.0471  0.1291  0.3435
35632POPC   NC373564   9.755  20.986  13.525  0.0635 -0.0003 -0.1851
35632POPC   PO473565   9.481  21.276  13.636  0.0059  0.1602  0.1339
35632POPC   GL173566   9.270  21.062  13.269 -0.2196 -0.2600  0.2379
35632POPC   GL273567   9.397  20.827  13.207  0.1800  0.0828 -0.1639
35632POPC   C1A73568   9.012  20.716  13.418 -0.0686 -0.0068 -0.1932
35632POPC   D2A73569   8.854  20.447  13.068  0.3770  0.2149  0.0521
35632POPC   C3A73570   8.596  20.688  12.811 -0.1256 -0.1830 -0.0337
35632POPC   C4A73571   8.490  20.990  12.536  0.1070 -0.1950  0.0072
35632POPC   C1B73572   9.118  20.807  12.862 -0.1488  0.5300  0.0775
35632POPC   C2B73573   8.993  20.911  12.448 -0.1508  0.1055  0.1460
35632POPC   C3B73574   8.674  20.703  12.227 -0.0780 -0.1696  0.0140
35632POPC   C4B73575   8.234  20.571  12.254  0.0193  0.1418  0.1651
35633POPC   NC373576   8.489  32.073  19.965  0.6029  0.2396 -0.1632
35633POPC   PO473577   8.533  31.929  20.304 -0.2062  0.2098  0.2622
35633POPC   GL173578   8.544  31.634  19.998  0.1592  0.0267  0.2018
35633POPC   GL273579   8.232  31.610  19.955  0.0978 -0.0223  0.0166
35633POPC   C1A73580   8.417  31.658  19.535  0.0268  0.1145 -0.0244
35633POPC   D2A73581   8.288  31.727  19.157 -0.0885  0.0124  0.1108
35633POPC   C3A73582   8.516  31.487  18.838  0.0016 -0.0806 -0.0534
35633POPC   C4A73583   8.783  31.175  18.613 -0.0753  0.1933 -0.0545
35633POPC   C1B73584   8.182  31.234  19.693  0.1753  0.0298  0.1505
35633POPC   C2B73585   8.334  31.175  19.276 -0.0710  0.2282  0.3526
35633POPC   C3B73586   8.121  30.912  18.972  0.2229  0.2304  0.2115
35633POPC   C4B73587   8.178  30.908  18.547  0.1966 -0.1286  0.0153
35634POPC   NC373588   7.411  23.837  19.058 -0.0480  0.0825  0.1869
35634POPC   PO473589   7.337  23.830  18.660 -0.2005  0.1155  0.0686
35634POPC   GL173590   7.384  24.084  18.365 -0.0996 -0.3151  0.1562
35634POPC   GL273591   7.278  23.917  18.138 -0.2279  0.2174  0.0733
35634POPC   C1A73592   7.404  24.478  18.053  0.1457  0.1985  0.1388
35634POPC   D2A73593   7.220  24.897  18.077  0.0459 -0.1930 -0.0292
35634POPC   C3A73594   7.045  24.885  17.677  0.0037  0.1756 -0.1539
35634POPC   C4A73595   7.129  25.015  17.264 -0.3502 -0.1822 -0.1735
35634POPC   C1B73596   6.823  23.759  18.048  0.3308 -0.1328  0.1388
35634POPC   C2B73597   6.412  23.904  17.886 -0.2081  0.2126 -0.4804
35634POPC   C3B73598   6.165  23.964  17.481 -0.0381 -0.1503 -0.0293
35634POPC   C4B73599   5.783  23.633  17.473  0.0798  0.1229 -0.1420
35635POPC   NC373600  12.584  32.494  20.151  0.1145 -0.0614 -0.1765
35635POPC   PO473601  12.225  32.603  20.136  0.0935 -0.0682 -0.2244
35635POPC   GL173602  12.366  32.578  19.757  0.1937 -0.1007 -0.0422
35635POPC   GL273603  12.292  32.337  19.578  0.0273  0.1689  0.0780
35635POPC   C1A73604  12.777  32.573  19.466  0.2373 -0.3585 -0.1248
35635POPC   D2A73605  13.051  32.360  19.196  0.0880 -0.1342  0.1842
35635POPC   C3A73606  13.091  32.151  18.797  0.1230  0.0194 -0.1756
35635POPC   C4A73607  13.008  31.850  18.455 -0.2330  0.1280  0.1401
35635POPC   C1B73608  12.418  32.178  19.146  0.0273 -0.0331  0.1056
35635POPC   C2B73609  12.634  32.277  18.755  0.4575  0.1590  0.1229
35635POPC   C3B73610  12.563  32.017  18.369  0.0566  0.2023 -0.0457
35635POPC   C4B73611  12.762  31.854  17.990 -0.1770 -0.1960  0.0444
35636POPC   NC373612  10.358  24.527  17.956 -0.0712  0.0910  0.1518
35636POPC   PO473613   9.994  24.532  18.115  0.1004  0.1264  0.1652
35636POPC   GL173614   9.930  24.748  17.787  0.0415 -0.1414  0.3390
35636POPC   GL273615   9.766  24.997  17.764 -0.3112 -0.0029  0.1884
35636POPC   C1A73616  10.174  24.623  17.426  0.0841  0.0561  0.0561
35636POPC   D2A73617  10.627  24.522  17.472 -0.1779  0.2564 -0.1140
35636POPC   C3A73618  10.938  24.892  17.419  0.2739 -0.0765  0.0365
35636POPC   C4A73619  11.070  25.263  17.221  0.4154 -0.1603 -0.0343
35636POPC   C1B73620   9.858  25.023  17.335 -0.1417  0.0296  0.0205
35636POPC   C2B73621   9.836  25.270  16.937 -0.1604 -0.1129  0.0652
35636POPC   C3B73622   9.550  25.572  16.712  0.1171 -0.0169  0.3100
35636POPC   C4B73623   9.355  25.971  16.768  0.0784 -0.2206  0.0278
35637POPC   NC373624  13.953  19.636  19.187 -0.1256  0.2313  0.1346
35637POPC   PO473625  13.958  19.618  18.806  0.0176 -0.4250 -0.2966
35637POPC   GL173626  14.103  19.804  18.546 -0.2255 -0.0287  0.0931
35637POPC   GL273627  14.268  19.638  18.396  0.2370 -0.0299 -0.1957
35637POPC   C1A73628  14.089  19.996  18.091 -0.3739  0.0576  0.0155
35637POPC   D2A73629  14.038  20.166  17.635 -0.2799  0.2439  0.3243
35637POPC   C3A73630  14.361  19.879  17.466  0.2357 -0.2460  0.1638
35637POPC   C4A73631  14.753  19.901  17.186  0.3318  0.0178  0.1514
35637POPC   C1B73632  14.546  19.761  18.077 -0.2324  0.0602 -0.1855
35637POPC   C2B73633  14.796  19.716  17.657  0.2091 -0.0486  0.1780
35637POPC   C3B73634  15.214  19.504  17.705  0.0938  0.1127 -0.0181
35637POPC   C4B73635  15.466  19.146  17.674 -0.3307  0.1927 -0.0863
35638POPC   NC373636   2.677  30.210  20.634  0.0844  0.2224 -0.2697
35638POPC   PO473637   2.973  29.960  20.588  0.1342 -0.1274 -0.0561
35638POPC   GL173638   2.977  29.958  20.145  0.1981 -0.0140  0.1185
35638POPC   GL273639   2.780  30.136  20.004 -0.1901 -0.1775 -0.0185
35638POPC   C1A73640   3.219  29.795  19.782  0.0955  0.1662 -0.1027
35638POPC   D2A73641   3.410  29.475  19.616 -0.0429  0.0297 -0.1759
35638POPC   C3A73642   3.860  29.484  19.625 -0.3966 -0.0602  0.1270
35638POPC   C4A73643   4.202  29.134  19.619 -0.0408 -0.0371  0.4944
35638POPC   C1B73644   3.148  30.291  19.828 -0.0147  0.2683  0.1399
35638POPC   C2B73645   3.445  30.290  19.476 -0.1433  0.2214 -0.2219
35638POPC   C3B73646   3.602  29.949  19.253 -0.0097  0.0871  0.1123
35638POPC   C4B73647   3.632  29.465  19.175  0.0761 -0.0265  0.0606
35639POPC   NC373648   4.303  32.222  20.351 -0.0894 -0.1690 -0.0092
35639POPC   PO473649   4.659  32.249  20.256 -0.0585  0.0686 -0.0544
35639POPC   GL173650   4.546  32.334  19.969  0.1988 -0.1669  0.4508
35639POPC   GL273651   4.294  32.117  19.862  0.2693 -0.1614  0.2684
35639POPC   C1A73652   4.903  32.326  19.629  0.1811 -0.1102  0.0856
35639POPC   D2A73653   5.246  32.379  19.377  0.0173  0.2262  0.1541
35639POPC   C3A73654   5.437  32.075  19.072 -0.1623  0.4241 -0.2591
35639POPC   C4A73655   5.382  31.968  18.676 -0.1586  0.0318 -0.0125
35639POPC   C1B73656   4.130  32.115  19.445 -0.2018 -0.1190 -0.1950
35639POPC   C2B73657   4.145  31.728  19.184  0.0449  0.0191 -0.1171
35639POPC   C3B73658   3.991  31.329  19.020  0.0649  0.3366  0.1162
35639POPC   C4B73659   3.659  31.014  18.868  0.1243  0.2012  0.1127
35640POPC   NC373660   8.053  17.680  19.318 -0.1483  0.1439 -0.2321
35640POPC   PO473661   8.264  17.348  19.290  0.1280 -0.0466  0.0776
35640POPC   GL173662   8.493  17.327  18.902 -0.1226 -0.1340 -0.1178
35640POPC   GL273663   8.636  17.063  18.876  0.2115  0.1355  0.0140
35640POPC   C1A73664   8.343  17.521  18.520 -0.0310 -0.2062  0.1755
35640POPC   D2A73665   8.416  17.482  18.076 -0.0564  0.0615  0.2281
35640POPC   C3A73666   8.127  17.213  17.853 -0.0535 -0.0040 -0.0882
35640POPC   C4A73667   8.013  17.015  17.466 -0.1901 -0.0679  0.0074
35640POPC   C1B73668   8.776  16.739  18.450  0.1783  0.1542  0.3739
35640POPC   C2B73669   8.723  16.468  18.097  0.0096  0.1844  0.0863
35640POPC   C3B73670   8.644  16.302  17.689 -0.2029 -0.0176 -0.0855
35640POPC   C4B73671   8.448  16.358  17.276  0.0580 -0.0647 -0.3384
35641POPC   NC373672   9.037  30.834  20.510  0.0374  0.1447  0.1330
35641POPC   PO473673   8.678  30.973  20.425 -0.0987  0.1332 -0.2201
35641POPC   GL173674   8.620  30.713  20.170 -0.0490  0.3265 -0.3092
35641POPC   GL273675   8.773  30.756  19.960 -0.0377  0.4150  0.3269
35641POPC   C1A73676   8.316  30.800  19.774  0.0747 -0.0632  0.0579
35641POPC   D2A73677   7.946  30.855  19.488  0.0493  0.1178  0.3688
35641POPC   C3A73678   7.636  31.128  19.690 -0.0424 -0.2552 -0.1896
35641POPC   C4A73679   7.464  31.507  19.482 -0.0749 -0.0286 -0.4035
35641POPC   C1B73680   9.067  30.846  19.618 -0.2063 -0.2027 -0.2148
35641POPC   C2B73681   9.267  30.665  19.216  0.1347  0.3161 -0.0146
35641POPC   C3B73682   9.385  30.336  18.928 -0.0231 -0.2841  0.1919
35641POPC   C4B73683   9.562  30.039  18.622 -0.0473 -0.0645 -0.0412
35642POPC   NC373684  10.724  23.053  16.944  0.0115  0.0465 -0.1053
35642POPC   PO473685  10.748  23.383  16.771  0.1353  0.1179  0.5916
35642POPC   GL173686  10.991  23.544  16.677  0.1562  0.0579 -0.0699
35642POPC   GL273687  11.015  23.857  16.570  0.0032 -0.0499 -0.2275
35642POPC   C1A73688  11.420  23.596  16.789 -0.1986 -0.0256 -0.1635
35642POPC   D2A73689  11.769  23.832  16.661  0.0173  0.2978 -0.1779
35642POPC   C3A73690  11.851  24.248  16.667 -0.1449 -0.0838  0.3704
35642POPC   C4A73691  11.678  24.638  16.787  0.1617  0.5166 -0.0495
35642POPC   C1B73692  11.405  23.787  16.332 -0.0696 -0.0913  0.1487
35642POPC   C2B73693  11.813  24.002  16.186  0.2103  0.1122 -0.1349
35642POPC   C3B73694  12.051  24.298  15.858  0.3246 -0.1379  0.2431
35642POPC   C4B73695  12.406  24.378  15.575  0.0475 -0.1258 -0.0938
35643POPC   NC373696  13.792  17.988  19.674 -0.1249  0.0151  0.1480
35643POPC   PO473697  13.477  17.857  19.427 -0.3385 -0.1102 -0.0787
35643POPC   GL173698  13.792  17.775  19.260 -0.1449  0.2872 -0.3800
35643POPC   GL273699  13.795  17.508  19.247 -0.0604 -0.1702 -0.0878
35643POPC   C1A73700  14.041  17.884  18.913  0.1743  0.1375 -0.1454
35643POPC   D2A73701  14.073  17.698  18.487 -0.1712  0.0259  0.0793
35643POPC   C3A73702  14.308  17.988  18.252 -0.1184 -0.0381 -0.0202
35643POPC   C4A73703  14.191  18.394  18.067  0.1352  0.0906  0.0758
35643POPC   C1B73704  13.721  17.443  18.770 -0.1345 -0.0067  0.2133
35643POPC   C2B73705  13.708  17.323  18.332  0.1465 -0.1098  0.3841
35643POPC   C3B73706  13.758  16.946  18.070  0.0557  0.1736 -0.0166
35643POPC   C4B73707  13.743  16.523  17.959  0.1819  0.2869  0.1108
35644POPC   NC373708  12.621  19.212  18.656 -0.0288 -0.1224 -0.0467
35644POPC   PO473709  12.693  19.086  18.283 -0.0240 -0.0139 -0.1430
35644POPC   GL173710  13.051  19.155  18.066  0.0983  0.4445  0.0819
35644POPC   GL273711  12.927  19.288  17.886  0.0226  0.0303 -0.1415
35644POPC   C1A73712  13.336  18.868  17.936  0.0550 -0.1016 -0.1595
35644POPC   D2A73713  13.562  18.543  18.137 -0.4832  0.3966  0.0868
35644POPC   C3A73714  13.686  18.222  17.815  0.3645 -0.0870  0.1139
35644POPC   C4A73715  13.799  18.138  17.365  0.6417  0.0509 -0.2029
35644POPC   C1B73716  13.074  19.003  17.561 -0.1425  0.1101 -0.0473
35644POPC   C2B73717  13.327  18.679  17.386  0.2633 -0.3233 -0.2735
35644POPC   C3B73718  13.445  18.427  17.087  0.0608 -0.0662 -0.0099
35644POPC   C4B73719  13.618  18.003  16.944 -0.4026  0.0183 -0.2592
35645POPC   NC373720  15.170  21.222  19.172  0.1205  0.3557 -0.0733
35645POPC   PO473721  15.530  21.227  19.387 -0.0505  0.0774 -0.3317
35645POPC   GL173722  15.780  21.133  19.038  0.2194  0.5686 -0.0099
35645POPC   GL273723  15.538  21.111  18.848 -0.3213 -0.0087 -0.1723
35645POPC   C1A73724  16.042  20.741  18.921  0.1534 -0.0577 -0.1058
35645POPC   D2A73725  16.081  20.268  18.892  0.0563  0.1552  0.1600
35645POPC   C3A73726  15.829  19.925  18.692  0.0322  0.1484 -0.0190
35645POPC   C4A73727  15.601  19.564  18.658 -0.0392  0.0551 -0.1017
35645POPC   C1B73728  15.276  21.290  18.482 -0.3039 -0.1109  0.0217
35645POPC   C2B73729  15.450  21.416  18.120 -0.0899 -0.1432  0.1955
35645POPC   C3B73730  15.638  21.429  17.714  0.1633  0.0721 -0.0261
35645POPC   C4B73731  16.050  21.485  17.496 -0.0934  0.0235 -0.0922
35646POPC   NC373732   9.649  18.566  18.623  0.1235  0.2075  0.2020
35646POPC   PO473733   9.860  18.653  18.340 -0.1133  0.0801  0.0898
35646POPC   GL173734   9.905  18.613  18.026  0.2582 -0.5447  0.0668
35646POPC   GL273735  10.143  18.396  17.993  0.0697  0.1073  0.1077
35646POPC   C1A73736   9.696  18.337  17.649 -0.1364  0.0323 -0.0634
35646POPC   D2A73737   9.563  18.027  17.268 -0.0837 -0.1157 -0.0145
35646POPC   C3A73738   9.623  17.791  16.881  0.4549 -0.2379  0.2292
35646POPC   C4A73739   9.637  17.465  16.591 -0.0603 -0.1016 -0.0383
35646POPC   C1B73740  10.259  18.243  17.553 -0.0418 -0.1593  0.0798
35646POPC   C2B73741  10.552  18.254  17.207 -0.2534  0.0424 -0.2323
35646POPC   C3B73742  10.491  18.030  16.775  0.1015  0.1108 -0.0891
35646POPC   C4B73743  10.400  17.790  16.358 -0.0893  0.2189 -0.0381
35647POPC   NC373744   1.897  23.558  19.897 -0.0891 -0.0555 -0.3529
35647POPC   PO473745   1.532  23.647  19.786  0.0259 -0.0059  0.0440
35647POPC   GL173746   1.739  23.574  19.443 -0.0257  0.0035  0.1539
35647POPC   GL273747   1.491  23.644  19.245 -0.3185 -0.1082  0.1658
35647POPC   C1A73748   2.098  23.732  19.173  0.1640  0.0966 -0.3171
35647POPC   D2A73749   2.182  24.143  19.134 -0.0669  0.0221 -0.0316
35647POPC   C3A73750   2.266  24.334  18.735 -0.1369  0.1628  0.0174
35647POPC   C4A73751   2.345  24.703  18.486  0.0138 -0.0410 -0.2298
35647POPC   C1B73752   1.660  23.795  18.897  0.0527  0.1274 -0.0677
35647POPC   C2B73753   1.672  24.149  18.557  0.3402  0.0873  0.0734
35647POPC   C3B73754   1.970  24.230  18.287 -0.0229  0.0408  0.2874
35647POPC   C4B73755   2.429  24.252  18.148  0.1199 -0.1123  0.0876
35648POPC   NC373756   1.998  28.446  21.202  0.0291 -0.2486  0.1139
35648POPC   PO473757   1.715  28.573  20.975  0.0976  0.1281 -0.1230
35648POPC   GL173758   1.530  28.567  20.529 -0.0748 -0.2040  0.1054
35648POPC   GL273759   1.319  28.706  20.652 -0.2749 -0.3615  0.2482
35648POPC   C1A73760   1.681  28.681  20.089  0.2670  0.1864 -0.0957
35648POPC   D2A73761   1.650  28.474  19.678 -0.0684  0.0354 -0.2947
35648POPC   C3A73762   1.834  28.640  19.262  0.2585 -0.2406  0.0774
35648POPC   C4A73763   1.911  28.795  18.815 -0.0444  0.1121  0.1759
35648POPC   C1B73764   1.149  28.540  20.266  0.0260 -0.4214  0.1240
35648POPC   C2B73765   1.099  28.469  19.814  0.1804 -0.1401 -0.0399
35648POPC   C3B73766   0.853  28.528  19.422  0.3419  0.1768  0.5733
35648POPC   C4B73767   0.797  28.429  18.916 -0.4230  0.3113 -0.3803
35649POPC   NC373768   4.921  19.362  19.655 -0.1803 -0.0627  0.1443
35649POPC   PO473769   4.588  19.408  19.397 -0.3938 -0.0870 -0.0181
35649POPC   GL173770   4.636  19.222  19.034 -0.1616 -0.3611 -0.1860
35649POPC   GL273771   4.492  18.997  19.013  0.0567 -0.0633  0.0042
35649POPC   C1A73772   4.311  19.289  18.687 -0.0590  0.0377 -0.0340
35649POPC   D2A73773   3.963  19.124  18.526 -0.0083  0.4374  0.0837
35649POPC   C3A73774   3.980  18.807  18.179 -0.3176 -0.0310  0.1322
35649POPC   C4A73775   4.239  18.620  17.853 -0.0424  0.1387  0.0651
35649POPC   C1B73776   4.824  19.060  18.661 -0.0642  0.0797  0.2325
35649POPC   C2B73777   5.072  18.872  18.253 -0.3019  0.0266 -0.4021
35649POPC   C3B73778   5.047  18.780  17.835  0.2521 -0.1688 -0.1389
35649POPC   C4B73779   4.726  18.538  17.543 -0.0255 -0.3457  0.3993
35650POPC   NC373780  10.618  31.068  20.449  0.0585 -0.4143  0.1953
35650POPC   PO473781  10.428  31.078  20.097  0.0596 -0.0797 -0.0946
35650POPC   GL173782  10.763  31.003  19.951  0.2774  0.0074  0.1539
35650POPC   GL273783  10.972  31.155  19.793  0.1434 -0.0910  0.0653
35650POPC   C1A73784  10.938  30.623  19.777  0.1953  0.2112  0.1516
35650POPC   D2A73785  11.309  30.558  19.490 -0.2876  0.0838 -0.0431
35650POPC   C3A73786  11.533  30.727  19.090  0.2786 -0.0375  0.1274
35650POPC   C4A73787  11.565  30.429  18.719 -0.4823 -0.2748 -0.0623
35650POPC   C1B73788  10.942  30.950  19.376 -0.0920 -0.2320 -0.3032
35650POPC   C2B73789  10.959  30.854  18.949  0.2288 -0.2814 -0.1272
35650POPC   C3B73790  10.896  30.992  18.464  0.0718  0.0020  0.1161
35650POPC   C4B73791  10.510  31.025  18.246 -0.2172  0.1484 -0.0790
35651POPC   NC373792   9.673  22.389  13.229 -0.0480  0.0387  0.0018
35651POPC   PO473793   9.578  22.037  13.455  0.2311 -0.0176  0.1504
35651POPC   GL173794   9.281  22.246  13.431 -0.0433  0.3408 -0.3590
35651POPC   GL273795   9.271  22.477  13.533  0.1658  0.1376  0.1629
35651POPC   C1A73796   8.846  22.283  13.205  0.1878 -0.0066 -0.0502
35651POPC   D2A73797   8.550  22.379  12.909  0.0829 -0.0461 -0.0719
35651POPC   C3A73798   8.320  22.429  13.270 -0.1102 -0.1618  0.0357
35651POPC   C4A73799   7.979  22.748  13.393  0.1267 -0.1380  0.1117
35651POPC   C1B73800   9.100  22.830  13.719 -0.1225 -0.0151  0.0655
35651POPC   C2B73801   8.829  23.225  13.700 -0.0446  0.0068 -0.0975
35651POPC   C3B73802   8.777  23.678  13.577 -0.0546 -0.1595  0.2063
35651POPC   C4B73803   8.937  24.102  13.735 -0.2421  0.1353  0.1829
35652POPC   NC373804  10.195  18.996  18.461  0.3635 -0.1944  0.0271
35652POPC   PO473805  10.438  18.831  18.211 -0.2523  0.0084 -0.0073
35652POPC   GL173806  10.539  18.599  17.859  0.2946  0.2416 -0.2082
35652POPC   GL273807  10.632  18.619  17.600  0.0583 -0.2135 -0.0564
35652POPC   C1A73808  10.562  18.202  18.075 -0.1161 -0.4036  0.1136
35652POPC   D2A73809  10.374  17.844  17.838 -0.0987 -0.0832  0.0634
35652POPC   C3A73810  10.397  17.745  17.382  0.0665  0.6373  0.1573
35652POPC   C4A73811  10.756  17.692  17.111 -0.0611 -0.0503  0.0427
35652POPC   C1B73812  10.945  18.269  17.667 -0.0415 -0.1642 -0.1706
35652POPC   C2B73813  11.101  18.003  17.375  0.0449 -0.1292  0.2344
35652POPC   C3B73814  11.312  17.675  17.180  0.1845  0.0480  0.1598
35652POPC   C4B73815  11.430  17.341  16.928  0.0678 -0.1480  0.0688
35653POPC   NC373816  14.621  19.595  19.614 -0.4623 -0.0608  0.1017
35653POPC   PO473817  14.404  19.736  19.291 -0.0122  0.2471  0.1278
35653POPC   GL173818  14.858  19.570  19.163 -0.0736 -0.0798  0.1838
35653POPC   GL273819  14.788  19.287  19.123 -0.1940 -0.1600  0.3098
35653POPC   C1A73820  15.083  19.709  18.807  0.0855 -0.2544 -0.1212
35653POPC   D2A73821  14.928  19.804  18.403  0.0475  0.0131  0.1356
35653POPC   C3A73822  14.888  20.219  18.146 -0.4614 -0.0637  0.0264
35653POPC   C4A73823  15.149  20.418  17.783  0.0713 -0.0173 -0.0849
35653POPC   C1B73824  14.751  19.333  18.623  0.1144  0.0145  0.2370
35653POPC   C2B73825  14.621  19.270  18.199 -0.1893  0.1202  0.3821
35653POPC   C3B73826  14.636  19.192  17.738  0.0811 -0.1731  0.0472
35653POPC   C4B73827  14.600  19.374  17.277 -0.0082  0.0438 -0.0260
35654POPC   NC373828  14.515  30.080  20.326 -0.0574  0.0165  0.1562
35654POPC   PO473829  14.358  30.410  20.236 -0.0425  0.2526 -0.1729
35654POPC   GL173830  14.332  30.261  19.914 -0.1029 -0.0209 -0.0053
35654POPC   GL273831  14.352  29.931  19.819 -0.2661  0.0077  0.3115
35654POPC   C1A73832  14.394  30.375  19.481  0.0298  0.1216 -0.0521
35654POPC   D2A73833  14.313  30.546  19.050 -0.1157  0.3504 -0.1788
35654POPC   C3A73834  14.481  30.867  18.783  0.1489 -0.1764 -0.0737
35654POPC   C4A73835  14.513  30.965  18.322 -0.0023  0.2977 -0.1836
35654POPC   C1B73836  14.426  29.688  19.413  0.0270 -0.1467  0.1135
35654POPC   C2B73837  14.607  29.789  19.057  0.0277  0.0553 -0.0327
35654POPC   C3B73838  14.953  29.605  18.840  0.0931  0.2511  0.0165
35654POPC   C4B73839  15.162  29.299  18.546 -0.1061  0.2943 -0.1568
35655POPC   NC373840   3.670  29.451  21.087  0.2575  0.0902 -0.1571
35655POPC   PO473841   3.906  29.241  20.818 -0.2603 -0.0189 -0.0310
35655POPC   GL173842   3.955  29.450  20.481 -0.1507  0.0955  0.3024
35655POPC   GL273843   4.099  29.273  20.335 -0.0183  0.2093  0.2417
35655POPC   C1A73844   3.953  29.690  20.067  0.0570  0.1100  0.0487
35655POPC   D2A73845   4.246  29.881  19.755  0.0545  0.1091  0.3278
35655POPC   C3A73846   4.136  29.765  19.323  0.0873  0.3979 -0.0517
35655POPC   C4A73847   4.050  29.717  18.893  0.1813 -0.0740  0.0433
35655POPC   C1B73848   4.186  28.904  20.104 -0.2182  0.1009  0.0511
35655POPC   C2B73849   4.524  28.769  19.792  0.3089  0.1727 -0.0915
35655POPC   C3B73850   4.587  28.589  19.344  0.2853  0.0686  0.2895
35655POPC   C4B73851   4.490  28.489  18.897  0.2708  0.3011  0.1462
35656POPC   NC373852   9.845  20.135  15.074  0.0532  0.4482 -0.0461
35656POPC   PO473853   9.860  20.082  15.461 -0.2048  0.0981 -0.3589
35656POPC   GL173854   9.898  19.689  15.344 -0.1127  0.2013  0.0378
35656POPC   GL273855   9.980  19.415  15.453  0.2415  0.1591 -0.0468
35656POPC   C1A73856   9.567  19.578  15.125 -0.1681 -0.0042 -0.0144
35656POPC   D2A73857   9.134  19.456  15.121  0.0095  0.0546 -0.0199
35656POPC   C3A73858   9.004  19.060  14.989  0.3174  0.1942  0.1527
35656POPC   C4A73859   8.647  18.809  14.840 -0.0941  0.0007  0.0713
35656POPC   C1B73860  10.407  19.527  15.260  0.0897  0.3249  0.2139
35656POPC   C2B73861  10.718  19.225  15.267  0.0715  0.0326  0.2116
35656POPC   C3B73862  10.826  18.804  15.039  0.1840 -0.0264  0.3394
35656POPC   C4B73863  10.740  18.356  15.015 -0.0408 -0.1988 -0.3363
35657POPC   NC373864  10.396  20.165  15.539 -0.0394  0.0506  0.2689
35657POPC   PO473865  10.227  20.397  15.285  0.3493 -0.1949  0.2011
35657POPC   GL173866  10.287  20.007  15.082  0.2031  0.7752 -0.0464
35657POPC   GL273867  10.304  20.156  14.769 -0.0850 -0.0787 -0.7642
35657POPC   C1A73868  10.065  19.618  14.906 -0.1253  0.0204 -0.0623
35657POPC   D2A73869   9.816  19.487  14.530 -0.2868  0.0012 -0.1919
35657POPC   C3A73870   9.370  19.439  14.617 -0.0799  0.1826  0.0746
35657POPC   C4A73871   8.953  19.386  14.612 -0.5505 -0.1767  0.0501
35657POPC   C1B73872   9.863  20.021  14.607 -0.0239 -0.1714 -0.2327
35657POPC   C2B73873   9.658  19.910  14.222  0.1152 -0.0952 -0.2599
35657POPC   C3B73874   9.590  20.000  13.745 -0.0532  0.0507  0.1005
35657POPC   C4B73875   9.449  19.757  13.341  0.3104  0.0050 -0.1707
35658POPC   NC373876  15.899  22.249  20.147  0.0260  0.4478  0.0225
35658POPC   PO473877  16.268  22.239  19.988 -0.3648 -0.1122 -0.0281
35658POPC   GL173878  16.595  22.282  19.662 -0.6417  0.2253 -0.0589
35658POPC   GL273879  16.416  22.511  19.505 -0.0174 -0.2725  0.1533
35658POPC   C1A73880  16.910  22.548  19.401  0.0687  0.3187  0.2834
35658POPC   D2A73881  17.130  22.970  19.450 -0.0458 -0.0352 -0.0109
35658POPC   C3A73882  17.464  22.879  19.089  0.0787  0.4638  0.0243
35658POPC   C4A73883  17.707  22.562  18.879  0.4587  0.1392 -0.0665
35658POPC   C1B73884  16.569  22.555  19.043  0.4840 -0.2476  0.1727
35658POPC   C2B73885  16.585  22.410  18.616  0.3703  0.2674  0.1130
35658POPC   C3B73886  16.726  22.266  18.184  0.0009  0.0101  0.1509
35658POPC   C4B73887  16.591  22.226  17.723 -0.1807 -0.0837 -0.1594
35659POPC   NC373888  12.014  20.887  16.047 -0.0602  0.0775 -0.2647
35659POPC   PO473889  11.772  20.686  16.305 -0.4715 -0.0152 -0.1308
35659POPC   GL173890  11.881  20.286  16.265  0.0823  0.0016 -0.5904
35659POPC   GL273891  11.690  20.104  16.166 -0.1450 -0.0477 -0.0327
35659POPC   C1A73892  12.266  20.153  16.039  0.0821  0.0134  0.1047
35659POPC   D2A73893  12.700  20.043  15.991  0.0598  0.1440 -0.0380
35659POPC   C3A73894  12.723  20.039  15.527  0.0170  0.0834 -0.0037
35659POPC   C4A73895  12.553  20.055  15.088  0.0252 -0.1065 -0.0616
35659POPC   C1B73896  11.888  19.776  15.887  0.0022  0.0597  0.2254
35659POPC   C2B73897  11.964  19.415  15.623  0.0709 -0.3509 -0.1308
35659POPC   C3B73898  11.756  19.150  15.293 -0.0398  0.0624  0.1397
35659POPC   C4B73899  11.710  18.705  15.201  0.3132  0.1861 -0.0835
35660POPC   NC373900   1.238  18.743  19.641 -0.1792 -0.1484 -0.1078
35660POPC   PO473901   0.919  18.899  19.793  0.0945  0.1237  0.1763
35660POPC   GL173902   0.909  18.804  19.344  0.2084  0.2442  0.2620
35660POPC   GL273903   0.720  19.005  19.305  0.0239  0.0119 -0.0199
35660POPC   C1A73904   0.878  18.473  19.061  0.1651  0.3206  0.1417
35660POPC   D2A73905   1.195  18.208  18.954 -0.2085  0.1118 -0.2463
35660POPC   C3A73906   1.571  18.337  18.795  0.2040  0.1866  0.0403
35660POPC   C4A73907   2.044  18.283  18.766  0.1234  0.2050 -0.0368
35660POPC   C1B73908   0.867  18.974  18.881 -0.1501  0.2360  0.0042
35660POPC   C2B73909   0.906  19.080  18.445 -0.1754 -0.0268  0.3095
35660POPC   C3B73910   0.662  19.380  18.178  0.2569  0.1699  0.0200
35660POPC   C4B73911   0.422  19.388  17.777 -0.1759  0.2305  0.2823
35661POPC   NC373912   8.655  32.698  19.533  0.2642  0.0903 -0.1413
35661POPC   PO473913   8.355  32.602  19.757  0.0420  0.2964 -0.0820
35661POPC   GL173914   8.384  32.284  19.560 -0.0283  0.0868 -0.1066
35661POPC   GL273915   8.246  32.174  19.362  0.2341  0.1152 -0.2154
35661POPC   C1A73916   8.486  32.484  19.122  0.0783  0.0514  0.0476
35661POPC   D2A73917   8.277  32.574  18.747  0.2133 -0.0233  0.0304
35661POPC   C3A73918   8.026  32.715  18.363  0.1945 -0.0036 -0.1780
35661POPC   C4A73919   8.060  32.912  17.919  0.2979 -0.1532 -0.0108
35661POPC   C1B73920   8.131  32.133  18.937 -0.0393 -0.1017 -0.3139
35661POPC   C2B73921   7.763  31.827  18.697  0.2645 -0.1879  0.0671
35661POPC   C3B73922   7.356  31.692  18.528 -0.3398 -0.0919  0.1863
35661POPC   C4B73923   6.893  31.868  18.504 -0.0818 -0.1288  0.3538
35662POPC   NC373924  10.342  20.571  14.025  0.1690 -0.0566 -0.1634
35662POPC   PO473925  10.207  20.824  14.260 -0.2063  0.1902  0.1823
35662POPC   GL173926   9.856  20.557  14.156 -0.2200  0.1123 -0.2798
35662POPC   GL273927   9.892  20.466  14.435 -0.0400 -0.3992  0.1938
35662POPC   C1A73928   9.983  20.346  13.722 -0.2562  0.0259 -0.0168
35662POPC   D2A73929  10.246  20.023  13.473 -0.1679 -0.2073 -0.0630
35662POPC   C3A73930  10.460  19.805  13.140 -0.1279 -0.0307  0.2622
35662POPC   C4A73931  10.594  19.360  13.034  0.2106 -0.1717  0.2058
35662POPC   C1B73932  10.101  20.144  14.178 -0.1696 -0.3612 -0.2192
35662POPC   C2B73933  10.061  19.763  13.909 -0.0720  0.0297 -0.2802
35662POPC   C3B73934   9.735  19.542  13.733  0.2432 -0.3823 -0.1912
35662POPC   C4B73935   9.771  19.168  13.450  0.0158 -0.2182 -0.3529
35663POPC   NC373936   8.874  17.542  18.801  0.2744  0.2642 -0.1272
35663POPC   PO473937   8.964  17.968  18.826  0.0573  0.1539 -0.3824
35663POPC   GL173938   8.789  17.904  18.489  0.0385  0.1609  0.3105
35663POPC   GL273939   8.880  17.722  18.332  0.0562 -0.0561 -0.1561
35663POPC   C1A73940   8.437  17.939  18.192 -0.0385 -0.3403  0.0820
35663POPC   D2A73941   8.282  18.020  17.752 -0.1434  0.1155 -0.1525
35663POPC   C3A73942   8.362  17.594  17.544 -0.1672 -0.0468 -0.0681
35663POPC   C4A73943   8.506  17.158  17.491  0.2740  0.1443 -0.1074
35663POPC   C1B73944   8.842  17.637  17.880  0.4178  0.0646  0.0956
35663POPC   C2B73945   8.959  17.344  17.534  0.2834 -0.0170 -0.3427
35663POPC   C3B73946   9.137  17.127  17.213 -0.1031  0.0955 -0.1721
35663POPC   C4B73947   9.529  17.333  17.115 -0.3265  0.2915  0.4332
35664POPC   NC373948   4.751  28.349  20.585  0.0668 -0.1131  0.3249
35664POPC   PO473949   4.979  28.059  20.635  0.2733 -0.1581  0.0249
35664POPC   GL173950   4.741  27.871  20.363  0.1210  0.3153 -0.0731
35664POPC   GL273951   4.414  27.874  20.204 -0.0320 -0.1466 -0.1432
35664POPC   C1A73952   4.796  27.617  19.949  0.0662 -0.3950  0.0894
35664POPC   D2A73953   4.794  27.765  19.508  0.1682 -0.2484  0.2540
35664POPC   C3A73954   4.984  28.170  19.384 -0.2479  0.3139  0.2040
35664POPC   C4A73955   4.975  28.561  19.025 -0.0183 -0.0136 -0.1870
35664POPC   C1B73956   4.328  27.583  19.824  0.2048 -0.1043 -0.0080
35664POPC   C2B73957   4.338  27.530  19.368 -0.5099  0.2523 -0.0887
35664POPC   C3B73958   4.074  27.686  18.965  0.0115 -0.0097 -0.0934
35664POPC   C4B73959   3.747  28.011  18.930  0.2363 -0.2219 -0.3616
35665POPC   NC373960   3.962  22.730  19.643 -0.1291  0.4485 -0.0576
35665POPC   PO473961   3.816  23.095  19.719 -0.0846  0.2046  0.0763
35665POPC   GL173962   3.826  23.124  19.422  0.0481  0.0349 -0.0283
35665POPC   GL273963   3.736  22.853  19.206 -0.5326  0.0147  0.0282
35665POPC   C1A73964   3.622  23.284  19.020  0.0013 -0.5096  0.2503
35665POPC   D2A73965   3.821  23.622  18.693  0.0193  0.0224 -0.0315
35665POPC   C3A73966   3.729  23.654  18.242  0.0726  0.2674  0.0233
35665POPC   C4A73967   3.734  23.716  17.806  0.1211  0.1235  0.1943
35665POPC   C1B73968   3.365  22.920  18.890  0.0140 -0.2536 -0.3433
35665POPC   C2B73969   3.241  22.875  18.428 -0.0060 -0.0522 -0.2213
35665POPC   C3B73970   3.123  23.042  18.036 -0.2045  0.2002 -0.0345
35665POPC   C4B73971   3.181  23.034  17.536  0.2291  0.1541  0.0139
35666POPC   NC373972   5.365  22.886  19.386  0.2182 -0.1252 -0.0791
35666POPC   PO473973   5.363  23.290  19.344 -0.1506 -0.1360 -0.2678
35666POPC   GL173974   5.294  23.649  19.120 -0.1400 -0.2442 -0.2766
35666POPC   GL273975   5.581  23.620  19.013  0.2309 -0.2186 -0.0530
35666POPC   C1A73976   5.045  23.703  18.756  0.0514 -0.0408 -0.2443
35666POPC   D2A73977   4.883  23.510  18.383 -0.1496  0.3334 -0.0411
35666POPC   C3A73978   4.759  23.734  17.945 -0.3175  0.4606  0.3011
35666POPC   C4A73979   4.583  23.697  17.577  0.2363 -0.1123 -0.1228
35666POPC   C1B73980   5.562  23.866  18.596 -0.0039  0.1230 -0.0614
35666POPC   C2B73981   5.428  23.718  18.165  0.2426 -0.0444  0.0097
35666POPC   C3B73982   5.212  23.773  17.711  0.0818 -0.1663 -0.1698
35666POPC   C4B73983   5.323  23.743  17.269 -0.1085 -0.0153 -0.0420
35667POPC   NC373984   9.120  21.525  15.489  0.0781 -0.0359 -0.2387
35667POPC   PO473985   8.993  21.204  15.261  0.2937  0.0612 -0.2364
35667POPC   GL173986   8.609  21.162  15.113  0.2139 -0.2964 -0.5155
35667POPC   GL273987   8.692  20.866  15.017 -0.4220  0.1015 -0.0799
35667POPC   C1A73988   8.177  21.324  15.000  0.2268 -0.1724 -0.1256
35667POPC   D2A73989   7.792  21.257  14.782 -0.1139  0.0990 -0.0291
35667POPC   C3A73990   7.811  20.952  14.420  0.1499  0.0823 -0.1557
35667POPC   C4A73991   8.030  20.627  14.225 -0.1661 -0.2216  0.2807
35667POPC   C1B73992   8.478  21.047  14.677 -0.1253 -0.3152 -0.0087
35667POPC   C2B73993   8.155  21.311  14.365 -0.3683 -0.0606 -0.0603
35667POPC   C3B73994   7.822  21.412  14.065 -0.2384  0.2315 -0.0051
35667POPC   C4B73995   7.851  21.560  13.608 -0.3059  0.0018 -0.3489
35668POPC   NC373996  10.802  24.526  18.726 -0.2817 -0.0450  0.2412
35668POPC   PO473997  10.655  24.896  18.796  0.4219 -0.0932 -0.1468
35668POPC   GL173998  10.738  24.922  18.399 -0.2335 -0.0248 -0.1840
35668POPC   GL273999  10.786  24.649  18.232  0.2632 -0.1673  0.0774
35668POPC   C1A74000  10.831  25.207  18.050 -0.1620  0.1883  0.2822
35668POPC   D2A74001  10.725  25.364  17.593  0.0925  0.1256  0.0207
35668POPC   C3A74002  10.657  25.808  17.439  0.0615 -0.5382 -0.3475
35668POPC   C4A74003  10.941  26.164  17.403  0.1916 -0.1534 -0.1183
35668POPC   C1B74004  11.115  24.807  17.975 -0.1583  0.0956  0.0904
35668POPC   C2B74005  11.209  25.166  17.702  0.1559 -0.0434 -0.1060
35668POPC   C3B74006  11.567  25.432  17.588  0.0906  0.1352  0.4380
35668POPC   C4B74007  12.049  25.505  17.443  0.2571 -0.2865  0.1508
35669POPC   NC374008   1.909  30.009  20.278  0.0909 -0.1465 -0.0470
35669POPC   PO474009   1.794  30.347  20.452 -0.0799  0.0819  0.1044
35669POPC   GL174010   1.757  30.453  20.090 -0.2056 -0.2376 -0.0656
35669POPC   GL274011   1.827  30.750  20.012  0.1594  0.0568 -0.0769
35669POPC   C1A74012   1.965  30.228  19.746  0.3666 -0.0721  0.3888
35669POPC   D2A74013   1.862  29.955  19.343 -0.3485  0.0775  0.1160
35669POPC   C3A74014   2.042  29.723  18.947  0.1555 -0.1240 -0.3867
35669POPC   C4A74015   2.182  29.908  18.503  0.0317 -0.0010 -0.2437
35669POPC   C1B74016   1.529  30.804  19.679  0.3298 -0.0099 -0.0170
35669POPC   C2B74017   1.181  30.653  19.355  0.4441 -0.0052 -0.2226
35669POPC   C3B74018   0.748  30.744  19.166  0.0802  0.1641  0.1180
35669POPC   C4B74019   0.343  30.785  18.925  0.1306  0.3020  0.2232
35670POPC   NC374020  12.604  17.944  18.933 -0.2439 -0.1367  0.0446
35670POPC   PO474021  12.301  18.247  18.919  0.4799 -0.0832 -0.0609
35670POPC   GL174022  12.399  18.138  18.566  0.0033 -0.0282  0.0680
35670POPC   GL274023  12.734  18.196  18.416  0.0073 -0.0388  0.2699
35670POPC   C1A74024  12.386  18.271  18.098 -0.0922  0.2226  0.1414
35670POPC   D2A74025  12.596  18.105  17.708  0.2300  0.1495  0.2030
35670POPC   C3A74026  12.707  18.052  17.280  0.1663  0.1755 -0.0210
35670POPC   C4A74027  12.982  18.262  16.995  0.2386  0.4362 -0.0283
35670POPC   C1B74028  12.839  17.931  18.064  0.2211  0.0311  0.2137
35670POPC   C2B74029  12.996  17.723  17.704 -0.2088  0.1086  0.1563
35670POPC   C3B74030  13.175  17.349  17.451  0.1115  0.1081  0.1820
35670POPC   C4B74031  12.951  17.098  17.144 -0.2402  0.1996 -0.3762
35671POPC   NC374032   9.472  18.082  18.846  0.2385  0.2860 -0.2625
35671POPC   PO474033   9.433  17.651  18.820 -0.2274 -0.4268  0.0889
35671POPC   GL174034   9.336  17.895  18.374  0.0522  0.1390  0.1745
35671POPC   GL274035   9.471  17.610  18.294  0.5367 -0.0596 -0.0951
35671POPC   C1A74036   9.324  17.852  17.902 -0.2084 -0.2832  0.3061
35671POPC   D2A74037   9.434  17.678  17.560  0.2540  0.3397  0.1926
35671POPC   C3A74038   9.198  17.667  17.145  0.1877  0.2099 -0.1668
35671POPC   C4A74039   9.166  17.489  16.732  0.0288 -0.0005 -0.0503
35671POPC   C1B74040   9.774  17.418  17.966 -0.0548 -0.2411  0.0775
35671POPC   C2B74041   9.937  17.288  17.587 -0.1140 -0.0795  0.0578
35671POPC   C3B74042  10.055  17.105  17.165 -0.4495  0.1696 -0.0086
35671POPC   C4B74043   9.939  16.968  16.777  0.0242 -0.0889  0.0717
35672POPC   NC374044  11.102  22.322  12.667 -0.3241 -0.0769  0.1469
35672POPC   PO474045  11.236  22.465  12.992  0.2466 -0.0164 -0.1814
35672POPC   GL174046  11.511  22.448  13.152  0.1325 -0.3642 -0.3183
35672POPC   GL274047  11.655  22.679  13.163  0.1809 -0.1388 -0.0143
35672POPC   C1A74048  11.955  22.286  13.064 -0.0727  0.1462  0.1887
35672POPC   D2A74049  12.342  22.298  13.403  0.1941  0.3669  0.1248
35672POPC   C3A74050  12.803  22.225  13.427  0.0257 -0.0913 -0.2587
35672POPC   C4A74051  12.966  21.845  13.319 -0.0862  0.1059 -0.1666
35672POPC   C1B74052  11.923  22.938  12.824 -0.0080  0.1694  0.0023
35672POPC   C2B74053  12.008  23.416  12.654  0.0545  0.0867 -0.1073
35672POPC   C3B74054  12.283  23.735  12.407  0.6091  0.0448  0.1524
35672POPC   C4B74055  12.330  24.190  12.344 -0.0986  0.3405  0.0252
35673POPC   NC374056   9.886  23.546  15.263  0.1746 -0.1405 -0.0465
35673POPC   PO474057   9.633  23.219  15.318  0.0107  0.1697  0.0173
35673POPC   GL174058   9.440  23.500  15.220  0.3949  0.3018  0.0122
35673POPC   GL274059   9.534  23.446  14.902  0.1827  0.0207  0.3502
35673POPC   C1A74060   9.230  23.840  14.976 -0.2011 -0.2699  0.0820
35673POPC   D2A74061   8.841  24.087  14.880  0.1476 -0.4187 -0.2176
35673POPC   C3A74062   8.870  24.462  14.609 -0.1794  0.3034  0.0535
35673POPC   C4A74063   8.793  24.723  14.213 -0.2259  0.0960  0.2035
35673POPC   C1B74064   9.148  23.516  14.648  0.0781 -0.0397  0.2711
35673POPC   C2B74065   8.832  23.407  14.277 -0.1243  0.0863 -0.2772
35673POPC   C3B74066   8.503  23.530  13.963  0.0554  0.3904  0.0365
35673POPC   C4B74067   8.095  23.700  13.807  0.0181 -0.0260 -0.0521
35674POPC   NC374068   4.870  22.670  18.581  0.0352 -0.0461 -0.1144
35674POPC   PO474069   5.086  22.976  18.564  0.4004 -0.0651  0.4861
35674POPC   GL174070   4.949  22.961  18.238 -0.1604  0.0891 -0.1130
35674POPC   GL274071   4.612  23.032  18.248  0.0611  0.1276  0.0764
35674POPC   C1A74072   4.720  22.612  18.005  0.0598  0.0038  0.2823
35674POPC   D2A74073   4.522  22.391  17.654  0.0307  0.2210 -0.0748
35674POPC   C3A74074   4.187  21.996  17.646  0.2133  0.0644 -0.1817
35674POPC   C4A74075   4.097  21.711  17.343  0.1910 -0.0044 -0.0430
35674POPC   C1B74076   4.674  23.074  17.818 -0.0819  0.1061 -0.5247
35674POPC   C2B74077   4.813  22.821  17.444  0.2290  0.4221  0.2160
35674POPC   C3B74078   4.600  22.551  17.085 -0.2067  0.0645 -0.2626
35674POPC   C4B74079   4.299  22.571  16.749  0.1501  0.0939 -0.0895
35675POPC   NC374080  13.368  21.303  18.829  0.2782  0.0704 -0.0639
35675POPC   PO474081  13.398  21.238  18.483  0.4270 -0.0736 -0.1351
35675POPC   GL174082  13.678  21.294  18.143 -0.0203  0.0301  0.3182
35675POPC   GL274083  13.748  20.998  18.063  0.0093  0.0952  0.2770
35675POPC   C1A74084  13.751  21.559  17.754 -0.0773  0.1234 -0.0520
35675POPC   D2A74085  13.830  21.912  17.407  0.3596  0.1437  0.1325
35675POPC   C3A74086  14.117  22.164  17.167 -0.1642  0.0811  0.0471
35675POPC   C4A74087  14.319  22.471  16.827 -0.1796 -0.1433 -0.0124
35675POPC   C1B74088  14.050  20.758  17.778 -0.1226 -0.0381 -0.1236
35675POPC   C2B74089  14.333  20.553  17.535  0.0485  0.0340  0.0491
35675POPC   C3B74090  14.320  20.312  17.135 -0.0280  0.0319 -0.0763
35675POPC   C4B74091  14.522  20.311  16.754  0.2173 -0.0769  0.0660
35676POPC   NC374092   3.625  24.490  19.971 -0.1257 -0.1154  0.1046
35676POPC   PO474093   3.376  24.194  20.046  0.1569 -0.4560  0.1099
35676POPC   GL174094   3.230  24.421  19.664  0.2420 -0.0643  0.0704
35676POPC   GL274095   2.974  24.198  19.677 -0.1123  0.0236  0.0236
35676POPC   C1A74096   3.051  24.569  19.260 -0.3564 -0.1616 -0.0181
35676POPC   D2A74097   3.171  24.757  18.840  0.1184 -0.2176  0.1665
35676POPC   C3A74098   2.886  24.848  18.463 -0.2165 -0.2382  0.0679
35676POPC   C4A74099   2.869  25.153  18.093 -0.3291  0.1848 -0.2219
35676POPC   C1B74100   3.050  23.975  19.293 -0.0260  0.3159  0.0664
35676POPC   C2B74101   3.271  23.751  18.993 -0.0414  0.1649  0.1273
35676POPC   C3B74102   3.357  23.784  18.544  0.1145 -0.0206 -0.2827
35676POPC   C4B74103   3.240  23.481  18.238 -0.2851 -0.0046  0.0242
35677POPC   NC374104   4.948  24.563  19.946  0.0071  0.2409  0.1410
35677POPC   PO474105   4.800  24.840  19.709  0.0823 -0.0599 -0.0226
35677POPC   GL174106   4.752  25.006  19.360 -0.0595 -0.1054 -0.1976
35677POPC   GL274107   4.942  24.863  19.225 -0.0364  0.0619 -0.0329
35677POPC   C1A74108   4.905  25.278  18.959 -0.1027 -0.0946  0.2276
35677POPC   D2A74109   4.821  25.601  18.630  0.1710  0.0972 -0.2489
35677POPC   C3A74110   4.581  25.721  18.205 -0.1053 -0.2205  0.2486
35677POPC   C4A74111   4.223  25.765  17.984 -0.1629  0.1227 -0.1683
35677POPC   C1B74112   5.227  24.789  18.893 -0.0146 -0.1015 -0.0106
35677POPC   C2B74113   5.226  24.619  18.399  0.2918  0.0928 -0.0310
35677POPC   C3B74114   5.113  24.669  17.976 -0.2148 -0.1760  0.0292
35677POPC   C4B74115   5.081  24.997  17.654 -0.0426  0.1238 -0.1070
35678POPC   NC374116  11.467  24.601  18.918 -0.1484  0.1578  0.2202
35678POPC   PO474117  11.485  24.924  19.146  0.0961  0.0628  0.2131
35678POPC   GL174118  11.419  25.135  18.739  0.2490  0.2083 -0.5504
35678POPC   GL274119  11.548  25.404  18.757 -0.0110  0.1373  0.0103
35678POPC   C1A74120  11.402  25.282  18.263 -0.0387 -0.1702  0.2725
35678POPC   D2A74121  11.434  25.669  18.004 -0.3202  0.1626  0.3381
35678POPC   C3A74122  11.153  25.747  17.648 -0.0344  0.0422 -0.0648
35678POPC   C4A74123  11.111  25.774  17.177  0.0150 -0.1379  0.0285
35678POPC   C1B74124  11.398  25.834  18.692  0.1063 -0.0655 -0.1703
35678POPC   C2B74125  11.190  26.094  18.366  0.2285  0.1332  0.0561
35678POPC   C3B74126  11.241  26.249  17.941  0.1352 -0.0680  0.0902
35678POPC   C4B74127  11.530  26.108  17.618 -0.2751  0.0871  0.2314
35679POPC   NC374128  13.657  30.931  20.592 -0.0766 -0.0890  0.0400
35679POPC   PO474129  13.289  30.881  20.399 -0.1643 -0.0284  0.0198
35679POPC   GL174130  13.258  30.896  20.034  0.3860  0.0101  0.2421
35679POPC   GL274131  13.524  30.889  19.979 -0.1780  0.3012 -0.2325
35679POPC   C1A74132  13.031  30.498  19.817 -0.0173  0.2813 -0.3089
35679POPC   D2A74133  12.705  30.316  19.542  0.1734 -0.2329 -0.0567
35679POPC   C3A74134  12.801  30.041  19.207 -0.2797 -0.0083  0.0020
35679POPC   C4A74135  12.880  29.917  18.745 -0.1696  0.0293  0.0941
35679POPC   C1B74136  13.504  30.602  19.646  0.0858 -0.2383 -0.1892
35679POPC   C2B74137  13.163  30.473  19.330  0.0913  0.3438 -0.0965
35679POPC   C3B74138  12.785  30.541  19.027  0.1392  0.1738  0.2316
35679POPC   C4B74139  12.417  30.702  18.783 -0.3248  0.0634  0.0597
35680POPC   NC374140   5.697  24.308  18.920 -0.0957 -0.4321  0.0066
35680POPC   PO474141   5.555  24.084  19.200  0.0358 -0.3980  0.0350
35680POPC   GL174142   5.268  24.115  18.939  0.1373 -0.3033 -0.4777
35680POPC   GL274143   5.018  24.324  18.956  0.0825  0.1374  0.1054
35680POPC   C1A74144   5.142  24.156  18.487 -0.0535 -0.2322  0.0436
35680POPC   D2A74145   5.154  24.172  18.044  0.1187 -0.0241 -0.1672
35680POPC   C3A74146   4.853  24.170  17.720 -0.1068 -0.0345 -0.2231
35680POPC   C4A74147   4.422  24.233  17.493 -0.2835  0.0663  0.0294
35680POPC   C1B74148   4.797  24.599  18.701 -0.2344 -0.0623  0.3499
35680POPC   C2B74149   4.845  25.037  18.542  0.4809  0.1742  0.2942
35680POPC   C3B74150   4.462  25.281  18.494 -0.0522  0.0396 -0.1805
35680POPC   C4B74151   4.040  25.528  18.442 -0.1199  0.0853 -0.2123
35681POPC   NC374152   6.895  16.719  20.192  0.2204  0.0639  0.0209
35681POPC   PO474153   7.143  16.924  19.929  0.4033 -0.0425 -0.3334
35681POPC   GL174154   6.833  16.537  19.649 -0.0642 -0.0977  0.0260
35681POPC   GL274155   7.040  16.692  19.460 -0.1004 -0.1638 -0.1492
35681POPC   C1A74156   6.472  16.396  19.428 -0.1621  0.0603  0.2275
35681POPC   D2A74157   6.090  16.478  19.180 -0.1850 -0.2202 -0.2598
35681POPC   C3A74158   6.030  16.237  18.816 -0.0527  0.1126  0.1012
35681POPC   C4A74159   5.834  16.044  18.420  0.0774 -0.1859  0.0613
35681POPC   C1B74160   6.775  16.595  19.140 -0.0060  0.1427  0.0505
35681POPC   C2B74161   6.555  16.355  18.844  0.3915 -0.0074  0.1102
35681POPC   C3B74162   6.337  16.214  18.440  0.1721  0.0374  0.0429
35681POPC   C4B74163   6.014  16.412  18.179 -0.2095 -0.3463 -0.0435
35682POPC   NC374164  12.291  19.989  17.536 -0.0051 -0.2986 -0.0357
35682POPC   PO474165  12.368  20.315  17.778  0.1251 -0.3141 -0.0235
35682POPC   GL174166  12.696  20.254  17.670  0.0544 -0.2923  0.3632
35682POPC   GL274167  12.898  20.019  17.555  0.2330  0.1966 -0.2100
35682POPC   C1A74168  12.823  20.456  17.276 -0.0659  0.1770 -0.2239
35682POPC   D2A74169  12.970  20.504  16.870  0.0387  0.2963 -0.1190
35682POPC   C3A74170  13.129  20.950  16.795 -0.4253  0.1525  0.1547
35682POPC   C4A74171  13.320  21.312  16.651  0.1782  0.1335  0.0308
35682POPC   C1B74172  13.310  20.032  17.554  0.3008  0.0488  0.2787
35682POPC   C2B74173  13.657  20.063  17.177  0.1358  0.2531  0.1561
35682POPC   C3B74174  13.967  20.247  16.837  0.1791  0.0008  0.0111
35682POPC   C4B74175  13.970  20.300  16.391  0.2496 -0.1073  0.0131
35683POPC   NC374176   8.343  24.318  18.139 -0.0224 -0.2727  0.1998
35683POPC   PO474177   8.092  24.018  18.015 -0.0328  0.0076  0.1673
35683POPC   GL174178   8.046  24.208  17.561  0.5157  0.2182 -0.5137
35683POPC   GL274179   8.239  24.161  17.314 -0.0726  0.0030 -0.1234
35683POPC   C1A74180   7.937  24.495  17.210  0.1881 -0.1782  0.2086
35683POPC   D2A74181   7.942  24.828  16.912  0.4285  0.2764  0.1855
35683POPC   C3A74182   8.009  24.818  16.481 -0.3245  0.4383  0.0448
35683POPC   C4A74183   8.282  24.737  16.060 -0.1880  0.2756 -0.0955
35683POPC   C1B74184   8.223  24.236  16.886  0.1002  0.1069  0.2923
35683POPC   C2B74185   8.446  24.550  16.651  0.2141  0.1611 -0.2561
35683POPC   C3B74186   8.765  24.573  16.366  0.1045 -0.1345 -0.1888
35683POPC   C4B74187   8.829  24.856  15.984  0.1573 -0.1342  0.1203
35684POPC   NC374188  11.632  21.763  16.885 -0.3990  0.1054 -0.0711
35684POPC   PO474189  11.732  21.432  16.736 -0.0150 -0.1288  0.1308
35684POPC   GL174190  12.076  21.374  16.481  0.0112  0.2471 -0.1140
35684POPC   GL274191  12.092  21.670  16.360 -0.0384  0.2171  0.1709
35684POPC   C1A74192  12.423  21.082  16.362  0.0549  0.0111 -0.0937
35684POPC   D2A74193  12.354  20.613  16.290 -0.2032  0.1195 -0.0376
35684POPC   C3A74194  12.617  20.480  15.965 -0.0549 -0.4716  0.0684
35684POPC   C4A74195  13.044  20.382  15.868  0.3352  0.0070  0.0858
35684POPC   C1B74196  12.543  21.601  16.389 -0.2951 -0.0578 -0.1096
35684POPC   C2B74197  12.966  21.696  16.175 -0.4240 -0.0815 -0.2528
35684POPC   C3B74198  13.377  21.748  16.334  0.2691  0.1474  0.0916
35684POPC   C4B74199  13.738  21.598  16.523 -0.0117  0.0460  0.2690
35685POPC   NC374200  10.286  19.581  17.343 -0.1174 -0.1448 -0.1565
35685POPC   PO474201   9.962  19.473  17.548  0.0677 -0.0133  0.4933
35685POPC   GL174202  10.009  19.152  17.292 -0.4018 -0.0976  0.1258
35685POPC   GL274203  10.105  19.210  17.043 -0.2672 -0.2178  0.0117
35685POPC   C1A74204   9.733  18.946  17.027 -0.2214 -0.0424 -0.0923
35685POPC   D2A74205   9.691  18.867  16.580 -0.0121  0.0328  0.0213
35685POPC   C3A74206  10.080  18.825  16.365  0.0856  0.4670 -0.0577
35685POPC   C4A74207  10.493  18.752  16.250  0.0089  0.0606 -0.0046
35685POPC   C1B74208  10.259  18.770  16.802 -0.0349  0.2086 -0.4453
35685POPC   C2B74209  10.237  18.380  16.549 -0.1646  0.1679 -0.0046
35685POPC   C3B74210  10.192  18.237  16.126  0.2671  0.0592  0.1934
35685POPC   C4B74211  10.003  18.555  15.808  0.3847  0.0101 -0.1523
35686POPC   NC374212  14.045  25.160  19.820 -0.1703 -0.0068  0.2185
35686POPC   PO474213  14.411  24.994  19.679 -0.1370  0.1310 -0.1154
35686POPC   GL174214  14.604  25.057  19.328  0.4854  0.0077 -0.0472
35686POPC   GL274215  14.412  25.299  19.275  0.1166  0.4726  0.0869
35686POPC   C1A74216  14.884  25.427  19.212 -0.1181  0.1641  0.1473
35686POPC   D2A74217  15.234  25.639  19.400 -0.2069 -0.3138  0.1880
35686POPC   C3A74218  15.187  26.057  19.576  0.0982 -0.2614  0.1711
35686POPC   C4A74219  15.214  26.410  19.849  0.0022 -0.0297 -0.2621
35686POPC   C1B74220  14.659  25.148  18.887  0.1678  0.2031 -0.0357
35686POPC   C2B74221  14.604  24.826  18.512  0.0903  0.2761 -0.2569
35686POPC   C3B74222  14.476  24.931  18.103  0.1199 -0.0787  0.1718
35686POPC   C4B74223  14.257  25.348  17.974  0.0489 -0.3025 -0.1410
35687POPC   NC374224   6.331  27.002  20.199 -0.2986  0.0212 -0.0492
35687POPC   PO474225   6.599  26.915  19.909 -0.1950 -0.1211 -0.2508
35687POPC   GL174226   6.505  26.903  19.497 -0.3469 -0.0735 -0.1184
35687POPC   GL274227   6.714  27.081  19.366 -0.2352  0.3092  0.3517
35687POPC   C1A74228   6.131  26.849  19.263 -0.2800 -0.1098 -0.0661
35687POPC   D2A74229   5.915  26.992  18.924 -0.0202 -0.0866  0.0496
35687POPC   C3A74230   5.913  27.348  18.662  0.0462  0.1653  0.1386
35687POPC   C4A74231   6.071  27.561  18.268 -0.1613 -0.0792 -0.0169
35687POPC   C1B74232   6.370  27.303  19.077 -0.4073  0.0370  0.2141
35687POPC   C2B74233   6.251  27.620  18.834 -0.0892 -0.0005  0.0690
35687POPC   C3B74234   5.889  27.874  18.690  0.1933  0.1894 -0.0786
35687POPC   C4B74235   5.565  27.652  18.470 -0.2001 -0.0290  0.0580
35688POPC   NC374236   4.925  21.453  18.388  0.2174  0.2446 -0.1732
35688POPC   PO474237   5.271  21.294  18.517 -0.1390  0.3959  0.1138
35688POPC   GL174238   5.192  21.231  18.127 -0.3373 -0.2093  0.6379
35688POPC   GL274239   5.397  21.371  17.914 -0.3956  0.2252 -0.2863
35688POPC   C1A74240   4.904  21.490  17.840  0.0319 -0.1722  0.2140
35688POPC   D2A74241   4.468  21.503  17.618 -0.2873 -0.0756 -0.1484
35688POPC   C3A74242   4.499  21.468  17.153 -0.2639  0.1165  0.0670
35688POPC   C4A74243   4.464  21.228  16.770 -0.0778  0.0711  0.1241
35688POPC   C1B74244   5.223  21.162  17.577 -0.0393  0.3166 -0.3976
35688POPC   C2B74245   4.760  21.091  17.509  0.0349 -0.0414 -0.2713
35688POPC   C3B74246   4.480  20.947  17.196 -0.1998 -0.1040 -0.2105
35688POPC   C4B74247   4.090  20.984  16.932 -0.1300 -0.4359  0.1727
35689POPC   NC374248  11.938  23.125  18.149  0.0360  0.2739  0.2604
35689POPC   PO474249  11.983  22.875  17.807 -0.0763  0.0575  0.2455
35689POPC   GL174250  12.127  23.090  17.586  0.0738 -0.0379 -0.4358
35689POPC   GL274251  12.175  23.340  17.707 -0.0949 -0.1397 -0.1042
35689POPC   C1A74252  11.987  23.336  17.205 -0.1918  0.0277 -0.2324
35689POPC   D2A74253  12.127  23.462  16.762  0.1767 -0.0508 -0.1583
35689POPC   C3A74254  12.323  23.835  16.555 -0.1940  0.3169  0.0717
35689POPC   C4A74255  12.684  24.056  16.438 -0.1152 -0.2652  0.4537
35689POPC   C1B74256  12.429  23.688  17.565 -0.1868 -0.2656 -0.0381
35689POPC   C2B74257  12.726  23.996  17.487 -0.1761  0.2371 -0.0517
35689POPC   C3B74258  13.085  24.116  17.287 -0.0607 -0.1516 -0.3313
35689POPC   C4B74259  13.462  24.047  17.027 -0.0495  0.2149  0.1566
35690POPC   NC374260  13.479  32.639  20.269 -0.3458 -0.0209 -0.0717
35690POPC   PO474261  13.880  32.741  20.366  0.0316  0.4371  0.0295
35690POPC   GL174262  13.861  32.496  20.106 -0.0915  0.4281 -0.0468
35690POPC   GL274263  13.739  32.613  19.884  0.0144 -0.0860 -0.2858
35690POPC   C1A74264  14.220  32.294  19.866 -0.1482  0.0660 -0.2266
35690POPC   D2A74265  14.441  32.006  19.561  0.1934  0.0663 -0.3479
35690POPC   C3A74266  14.802  32.048  19.314  0.2132 -0.2873 -0.2889
35690POPC   C4A74267  14.915  32.195  18.892 -0.1133 -0.0495  0.1372
35690POPC   C1B74268  13.886  32.391  19.500 -0.3444 -0.0265 -0.2922
35690POPC   C2B74269  14.099  32.046  19.202  0.0214 -0.0069  0.2106
35690POPC   C3B74270  14.472  31.984  18.974 -0.2250 -0.0155  0.0011
35690POPC   C4B74271  14.872  31.728  18.778  0.0474  0.2556 -0.2552
35691POPC   NC374272   3.483  20.360  18.953 -0.1448 -0.1352 -0.1705
35691POPC   PO474273   3.789  20.524  19.156 -0.1766 -0.2182  0.0798
35691POPC   GL174274   3.921  20.737  18.837 -0.0821  0.0769  0.0182
35691POPC   GL274275   3.875  20.464  18.675  0.2203 -0.3356  0.0534
35691POPC   C1A74276   4.239  20.831  18.527 -0.2644 -0.0787 -0.1615
35691POPC   D2A74277   4.336  20.667  18.144 -0.2900  0.0612 -0.2488
35691POPC   C3A74278   4.337  20.990  17.814  0.0263 -0.2134 -0.1369
35691POPC   C4A74279   4.134  21.176  17.455 -0.2140 -0.0017  0.0989
35691POPC   C1B74280   3.851  20.561  18.311  0.0452  0.1967 -0.1856
35691POPC   C2B74281   3.850  20.861  18.012 -0.1753  0.1474 -0.1750
35691POPC   C3B74282   3.690  21.039  17.622 -0.0347  0.2622  0.1300
35691POPC   C4B74283   3.478  21.511  17.689  0.0437  0.1653 -0.0487
35692POPC   NC374284   1.706  18.348  19.771 -0.2887 -0.2047 -0.4056
35692POPC   PO474285   1.743  18.744  19.939 -0.3963  0.0276  0.1437
35692POPC   GL174286   1.869  18.854  19.643  0.0280 -0.0560 -0.0379
35692POPC   GL274287   1.696  19.012  19.561 -0.0190 -0.0357 -0.0142
35692POPC   C1A74288   2.199  18.858  19.332  0.0944  0.2451 -0.2588
35692POPC   D2A74289   2.401  18.532  19.010  0.2207  0.1501  0.0851
35692POPC   C3A74290   2.809  18.718  18.912  0.1291 -0.0160 -0.0622
35692POPC   C4A74291   3.209  18.846  18.778 -0.1476 -0.2075  0.1604
35692POPC   C1B74292   1.797  19.086  19.133 -0.1846 -0.0936  0.1846
35692POPC   C2B74293   1.747  18.866  18.741  0.2367  0.1407  0.3647
35692POPC   C3B74294   1.784  18.536  18.423  0.1037  0.3008 -0.0239
35692POPC   C4B74295   1.849  18.062  18.321  0.2364  0.1904 -0.3924
35693POPC   NC374296  13.304  17.560  19.033  0.0825  0.0713 -0.0586
35693POPC   PO474297  12.936  17.593  19.160 -0.0621 -0.3403  0.3070
35693POPC   GL174298  12.765  17.378  18.854  0.1679  0.0752 -0.2037
35693POPC   GL274299  12.784  17.590  18.591 -0.1754  0.1016 -0.3790
35693POPC   C1A74300  13.155  17.227  18.693  0.2557  0.0043 -0.1611
35693POPC   D2A74301  13.330  16.965  18.338 -0.1233  0.1289 -0.0347
35693POPC   C3A74302  13.356  16.504  18.292  0.0492  0.0334  0.1415
35693POPC   C4A74303  13.532  16.088  18.198 -0.2128 -0.0905  0.0203
35693POPC   C1B74304  12.946  17.457  18.161  0.0749  0.0475  0.0295
35693POPC   C2B74305  13.184  17.159  17.873  0.3666  0.2200 -0.1191
35693POPC   C3B74306  13.385  16.811  17.644  0.3790  0.0334  0.1047
35693POPC   C4B74307  13.632  16.523  17.345  0.2579 -0.3046 -0.1365
35694POPC   NC374308   2.025  31.657  20.448  0.0079  0.0286 -0.1294
35694POPC   PO474309   1.676  31.706  20.625 -0.2557  0.0005 -0.0629
35694POPC   GL174310   1.508  31.538  20.311 -0.0301 -0.1214 -0.2670
35694POPC   GL274311   1.747  31.285  20.296 -0.0792  0.2153 -0.0033
35694POPC   C1A74312   1.333  31.155  20.077  0.1341 -0.2115 -0.1782
35694POPC   D2A74313   1.032  30.742  19.988  0.2238  0.0434  0.0650
35694POPC   C3A74314   1.205  30.395  19.779 -0.4087 -0.0905  0.0761
35694POPC   C4A74315   1.488  30.248  19.421  0.0196  0.0223  0.0300
35694POPC   C1B74316   1.750  31.382  19.893 -0.0501  0.3453 -0.2476
35694POPC   C2B74317   1.508  31.442  19.516 -0.1613 -0.0735  0.1553
35694POPC   C3B74318   1.501  31.542  19.082 -0.0772 -0.0144  0.2447
35694POPC   C4B74319   1.828  31.703  18.770  0.0077 -0.0280  0.1072
35695POPC   NC374320   5.561  19.142  19.211  0.1810 -0.1549  0.1345
35695POPC   PO474321   5.346  19.441  19.305 -0.0084 -0.1269 -0.1576
35695POPC   GL174322   5.189  19.394  18.936  0.1014 -0.4749 -0.2393
35695POPC   GL274323   5.323  19.194  18.743 -0.0420  0.0161  0.1195
35695POPC   C1A74324   4.776  19.543  18.711  0.0679 -0.1192  0.0448
35695POPC   D2A74325   4.628  19.522  18.299 -0.0698  0.0897  0.1427
35695POPC   C3A74326   4.600  19.736  17.875  0.0722 -0.1064 -0.1045
35695POPC   C4A74327   4.247  19.652  17.554  0.0578  0.1593 -0.1036
35695POPC   C1B74328   5.127  19.330  18.393  0.1399  0.0210  0.0795
35695POPC   C2B74329   4.980  19.360  17.960  0.2614  0.0426 -0.1481
35695POPC   C3B74330   4.847  19.450  17.513 -0.1271 -0.0215  0.2020
35695POPC   C4B74331   4.518  19.344  17.204  0.0009  0.1432 -0.0910
35696POPC   NC374332   6.612  31.051  20.964 -0.1633 -0.3582 -0.0147
35696POPC   PO474333   6.635  30.735  20.752 -0.1139  0.0356  0.1530
35696POPC   GL174334   6.460  30.723  20.386 -0.0296 -0.2582 -0.0042
35696POPC   GL274335   6.675  30.878  20.219  0.1164  0.2230 -0.3548
35696POPC   C1A74336   6.381  30.406  20.018  0.1211 -0.1049 -0.2612
35696POPC   D2A74337   6.223  30.083  19.711  0.2026 -0.0116 -0.0135
35696POPC   C3A74338   5.727  30.053  19.751 -0.2364  0.0535  0.1361
35696POPC   C4A74339   5.261  30.096  19.730 -0.2548  0.3266  0.1392
35696POPC   C1B74340   6.316  30.892  19.908  0.0792  0.0795  0.0293
35696POPC   C2B74341   6.157  31.061  19.504 -0.0829  0.2970  0.0649
35696POPC   C3B74342   6.028  31.111  19.078  0.4056  0.2693  0.1524
35696POPC   C4B74343   6.150  30.939  18.617  0.0702 -0.3514 -0.3637
35697POPC   NC374344   1.918  26.849  20.314 -0.0770 -0.0945 -0.7513
35697POPC   PO474345   2.085  26.519  20.431 -0.2636  0.0334  0.0554
35697POPC   GL174346   2.214  26.430  19.995 -0.1955  0.0275  0.0100
35697POPC   GL274347   2.017  26.309  19.919  0.4072  0.3286  0.2349
35697POPC   C1A74348   2.285  26.523  19.568  0.0918  0.0342  0.2070
35697POPC   D2A74349   2.491  26.600  19.171 -0.0416  0.1623  0.1535
35697POPC   C3A74350   2.499  26.266  18.864  0.0427 -0.0204 -0.2503
35697POPC   C4A74351   2.819  26.103  18.568 -0.2807 -0.0188  0.0006
35697POPC   C1B74352   1.844  26.203  19.519 -0.0368 -0.1168 -0.0905
35697POPC   C2B74353   1.978  26.422  19.153  0.1095  0.0061 -0.4704
35697POPC   C3B74354   2.107  26.557  18.779 -0.2885 -0.0322 -0.0866
35697POPC   C4B74355   2.533  26.753  18.543 -0.0464  0.2320  0.3706
35698POPC   NC374356  10.250  20.410  16.241  0.2971  0.2159 -0.0046
35698POPC   PO474357  10.359  20.094  16.041 -0.1711 -0.0375  0.2345
35698POPC   GL174358  10.678  19.937  15.820 -0.3804  0.1104 -0.1972
35698POPC   GL274359  10.934  19.985  15.837  0.0747  0.1437 -0.2141
35698POPC   C1A74360  10.657  19.488  15.771  0.0353 -0.0029  0.0706
35698POPC   D2A74361  10.667  19.028  15.698  0.0229 -0.0075  0.0628
35698POPC   C3A74362  10.557  18.596  15.556  0.1703 -0.3183 -0.0710
35698POPC   C4A74363  10.540  18.173  15.457  0.0079  0.2514 -0.2382
35698POPC   C1B74364  11.359  19.904  15.828 -0.0083  0.0025  0.1109
35698POPC   C2B74365  11.572  19.634  15.459  0.0050 -0.2897  0.1354
35698POPC   C3B74366  11.755  19.573  15.056  0.2586  0.1937  0.2286
35698POPC   C4B74367  11.829  19.295  14.671 -0.1625  0.1430 -0.1536
35699POPC   NC374368   5.145  22.274  18.644  0.2856 -0.3636 -0.1005
35699POPC   PO474369   5.415  22.562  18.561  0.3904  0.1314 -0.2020
35699POPC   GL174370   5.217  22.602  18.234 -0.3089 -0.0783 -0.0434
35699POPC   GL274371   5.160  22.365  18.088  0.1678  0.3221 -0.0822
35699POPC   C1A74372   5.197  22.834  17.837 -0.2491 -0.1104 -0.0737
35699POPC   D2A74373   5.104  23.304  17.917 -0.1444  0.0740  0.1146
35699POPC   C3A74374   4.974  23.405  17.459 -0.0319  0.2788  0.0047
35699POPC   C4A74375   4.722  23.584  17.096 -0.2701 -0.1768 -0.0254
35699POPC   C1B74376   5.075  22.392  17.652 -0.0660 -0.2253  0.1977
35699POPC   C2B74377   5.105  22.415  17.129  0.2100  0.2451  0.0697
35699POPC   C3B74378   5.049  22.673  16.744  0.1761  0.1500 -0.2584
35699POPC   C4B74379   4.731  22.924  16.474 -0.0469  0.0717  0.1060
35700POPC   NC374380   9.569  17.509  19.318  0.4419 -0.1117 -0.1576
35700POPC   PO474381   9.909  17.416  19.221 -0.0157 -0.0190  0.2071
35700POPC   GL174382   9.940  17.244  18.816 -0.2221 -0.1414  0.0587
35700POPC   GL274383  10.104  17.065  18.893  0.0975  0.3274 -0.1241
35700POPC   C1A74384   9.756  17.138  18.415 -0.0713  0.2869 -0.1910
35700POPC   D2A74385   9.742  16.899  17.995 -0.2379 -0.0858 -0.1903
35700POPC   C3A74386   9.562  16.472  17.895 -0.0166  0.2460  0.1502
35700POPC   C4A74387   9.679  16.030  17.773  0.0147 -0.0117  0.0543
35700POPC   C1B74388  10.343  16.768  18.658 -0.1201  0.0682 -0.0995
35700POPC   C2B74389  10.659  16.534  18.353  0.0136  0.1565  0.1886
35700POPC   C3B74390  10.808  16.585  17.914 -0.2515  0.1076 -0.2235
35700POPC   C4B74391  11.023  16.292  17.628  0.0348  0.2272 -0.0325
35701POPC   NC374392  12.521  20.468  18.238 -0.4665 -0.2394  0.1055
35701POPC   PO474393  12.777  20.582  17.949  0.2283  0.0272  0.0879
35701POPC   GL174394  13.135  20.576  17.716 -0.0888 -0.0556  0.2676
35701POPC   GL274395  13.364  20.714  17.905  0.1406  0.2706 -0.3344
35701POPC   C1A74396  13.289  20.524  17.253 -0.1622  0.0535 -0.0965
35701POPC   D2A74397  13.447  20.604  16.832 -0.1681 -0.2125  0.0574
35701POPC   C3A74398  13.410  20.202  16.719  0.0201  0.0232 -0.0186
35701POPC   C4A74399  13.306  19.721  16.666  0.2362 -0.1813 -0.1426
35701POPC   C1B74400  13.578  20.919  17.582 -0.1351 -0.2042 -0.1490
35701POPC   C2B74401  13.874  21.248  17.407  0.1535 -0.1640  0.2284
35701POPC   C3B74402  14.073  21.571  17.125  0.2189  0.3888 -0.0671
35701POPC   C4B74403  14.170  21.761  16.714  0.0889  0.0845  0.1383
35702POPC   NC374404   0.250  19.858  19.707 -0.0031  0.0420  0.0874
35702POPC   PO474405   0.540  19.952  19.476 -0.1587 -0.0422  0.1698
35702POPC   GL174406   0.690  19.789  19.163 -0.2540 -0.2393  0.1557
35702POPC   GL274407   0.860  19.515  19.187  0.0515  0.1463  0.0285
35702POPC   C1A74408   0.513  20.045  18.825  0.0796  0.1909  0.1624
35702POPC   D2A74409   0.610  20.290  18.437 -0.1101 -0.0667  0.1325
35702POPC   C3A74410   1.003  20.294  18.214  0.0472 -0.0194 -0.1589
35702POPC   C4A74411   1.305  20.273  17.884 -0.0924 -0.2331  0.0487
35702POPC   C1B74412   0.907  19.456  18.814 -0.0872 -0.1065  0.0250
35702POPC   C2B74413   1.244  19.480  18.498 -0.1582  0.1457 -0.1677
35702POPC   C3B74414   1.163  19.435  18.087 -0.0879 -0.2196 -0.0480
35702POPC   C4B74415   1.022  19.329  17.731 -0.0310  0.0283 -0.2308
35703POPC   NC374416   5.615  20.939  18.467 -0.0359 -0.0505 -0.0116
35703POPC   PO474417   5.812  20.650  18.347  0.0918  0.3654  0.1219
35703POPC   GL174418   5.680  20.691  18.011 -0.2639 -0.1191  0.0525
35703POPC   GL274419   5.378  20.839  18.042  0.1798  0.1096  0.0805
35703POPC   C1A74420   5.823  20.469  17.580  0.1948 -0.1312 -0.2073
35703POPC   D2A74421   5.811  20.600  17.151  0.2815 -0.1275 -0.0982
35703POPC   C3A74422   5.899  20.304  16.784  0.1393  0.4534 -0.0358
35703POPC   C4A74423   6.115  20.035  16.474  0.0510  0.0436 -0.1928
35703POPC   C1B74424   5.003  20.777  17.776 -0.1469  0.0045  0.0687
35703POPC   C2B74425   4.608  20.558  17.599 -0.1419  0.0997 -0.3288
35703POPC   C3B74426   4.420  20.099  17.518 -0.1412  0.0099 -0.0876
35703POPC   C4B74427   4.044  20.005  17.253 -0.1995  0.2907  0.1427
35704POPC   NC374428   9.333  21.725  14.334 -0.3632  0.1626 -0.0459
35704POPC   PO474429   9.183  21.807  14.703 -0.0183  0.0988  0.0876
35704POPC   GL174430   8.812  21.949  14.723  0.0546 -0.1809  0.0804
35704POPC   GL274431   8.692  22.104  14.983 -0.0523  0.0914 -0.3194
35704POPC   C1A74432   8.511  22.286  14.529  0.3126  0.0870 -0.0101
35704POPC   D2A74433   8.432  22.759  14.451  0.0457 -0.0025  0.0960
35704POPC   C3A74434   8.029  22.979  14.577 -0.1795  0.0818 -0.0910
35704POPC   C4A74435   7.798  23.395  14.518 -0.0766  0.0673  0.1109
35704POPC   C1B74436   8.212  22.038  14.908 -0.1378 -0.1022 -0.3337
35704POPC   C2B74437   7.805  22.273  14.842 -0.0146 -0.1702  0.0500
35704POPC   C3B74438   7.456  22.517  14.674 -0.1388  0.2419 -0.1483
35704POPC   C4B74439   7.133  22.771  14.630  0.1158 -0.0692 -0.2215
35705POPC   NC374440   9.557  28.372  20.209 -0.1067 -0.1157 -0.0427
35705POPC   PO474441   9.895  28.388  20.413  0.2725  0.0376 -0.0059
35705POPC   GL174442   9.967  28.226  20.041 -0.2114 -0.0087 -0.3382
35705POPC   GL274443  10.256  28.014  19.963  0.2701  0.3015  0.2611
35705POPC   C1A74444  10.119  28.437  19.641  0.0721  0.0018  0.1106
35705POPC   D2A74445  10.148  28.342  19.156 -0.1656 -0.0034 -0.0605
35705POPC   C3A74446  10.238  28.801  19.191 -0.2556 -0.1358 -0.1061
35705POPC   C4A74447  10.532  29.135  19.322 -0.0113  0.0378 -0.1768
35705POPC   C1B74448  10.484  27.906  19.610 -0.1297  0.0622  0.2728
35705POPC   C2B74449  10.483  27.765  19.140 -0.1409 -0.3048 -0.2337
35705POPC   C3B74450  10.333  28.080  18.798 -0.5527 -0.1640 -0.0123
35705POPC   C4B74451  10.126  28.420  18.641  0.0798 -0.1811  0.0450
35706POPC   NC374452  12.588  16.327  19.742 -0.0632 -0.1739  0.0776
35706POPC   PO474453  12.225  16.248  19.915  0.0385 -0.0287 -0.5705
35706POPC   GL174454  12.197  16.066  19.653  0.3787  0.0946  0.2234
35706POPC   GL274455  12.076  16.238  19.411 -0.0593 -0.0108 -0.3710
35706POPC   C1A74456  11.804  15.770  19.563 -0.0240  0.0364  0.0444
35706POPC   D2A74457  11.750  15.492  19.167 -0.0119 -0.1268 -0.0162
35706POPC   C3A74458  11.572  15.542  18.805 -0.0149 -0.1175 -0.4029
35706POPC   C4A74459  11.230  15.814  18.652  0.1542  0.2289  0.1545
35706POPC   C1B74460  12.004  16.376  19.015  0.2513  0.3623 -0.0832
35706POPC   C2B74461  11.985  16.524  18.617  0.0233  0.2128  0.1632
35706POPC   C3B74462  12.005  16.367  18.160 -0.1421 -0.1039  0.0395
35706POPC   C4B74463  12.039  16.169  17.732 -0.0529  0.2282 -0.2692
35707POPC   NC374464  11.818  24.871  19.489 -0.0792  0.2158  0.0860
35707POPC   PO474465  11.929  24.635  19.166  0.3177  0.0956  0.1167
35707POPC   GL174466  11.898  24.789  18.832  0.5792 -0.1005  0.2668
35707POPC   GL274467  11.915  25.062  18.915  0.1457 -0.2429 -0.1139
35707POPC   C1A74468  11.708  24.875  18.364  0.0190 -0.1480 -0.2447
35707POPC   D2A74469  11.611  24.982  17.929 -0.0708  0.2805 -0.1733
35707POPC   C3A74470  11.955  25.027  17.710  0.0668  0.0280 -0.0887
35707POPC   C4A74471  12.233  25.068  17.366  0.0987  0.0067 -0.1454
35707POPC   C1B74472  11.992  25.237  18.532  0.2439  0.0470  0.0931
35707POPC   C2B74473  11.937  25.427  18.090  0.3138 -0.2873 -0.0024
35707POPC   C3B74474  11.893  25.809  17.843 -0.2010  0.1549 -0.3645
35707POPC   C4B74475  12.047  26.033  17.452 -0.2744 -0.1318 -0.1589
35708POPC   NC374476  15.727  31.706  20.511  0.0855  0.1067 -0.1699
35708POPC   PO474477  16.099  31.686  20.552  0.2758  0.0936 -0.1570
35708POPC   GL174478  16.054  31.555  20.202  0.0837  0.0934  0.1939
35708POPC   GL274479  16.140  31.731  20.006  0.0685 -0.0283  0.0688
35708POPC   C1A74480  15.788  31.231  19.935 -0.1558  0.2452 -0.0882
35708POPC   D2A74481  15.477  31.048  19.616  0.0388  0.1114  0.3067
35708POPC   C3A74482  15.592  30.930  19.204 -0.2247 -0.1486 -0.1184
35708POPC   C4A74483  15.331  30.576  19.012 -0.0345 -0.1434  0.3350
35708POPC   C1B74484  16.021  31.902  19.603 -0.5593  0.2724 -0.0748
35708POPC   C2B74485  15.755  31.954  19.265 -0.2654  0.2380  0.0006
35708POPC   C3B74486  15.450  31.893  18.913 -0.0686 -0.1843 -0.3635
35708POPC   C4B74487  15.351  32.099  18.514  0.2473  0.2879 -0.0396
35709POPC   NC374488  13.331  24.366  19.799 -0.1078 -0.0504  0.0902
35709POPC   PO474489  13.379  24.305  19.414 -0.1470  0.1042 -0.0273
35709POPC   GL174490  13.572  24.617  19.322  0.2048 -0.3366  0.3119
35709POPC   GL274491  13.787  24.457  19.233 -0.2524  0.1915 -0.0676
35709POPC   C1A74492  13.532  25.052  19.123  0.0451  0.1090  0.0328
35709POPC   D2A74493  13.323  24.990  18.750 -0.1810  0.1178  0.1934
35709POPC   C3A74494  13.339  24.910  18.299 -0.0779 -0.1561  0.2180
35709POPC   C4A74495  13.219  24.682  17.951  0.0212  0.0494  0.1072
35709POPC   C1B74496  14.161  24.370  18.911 -0.1237 -0.2592 -0.1587
35709POPC   C2B74497  14.350  24.401  18.585 -0.1533 -0.0721 -0.1002
35709POPC   C3B74498  14.754  24.420  18.266  0.1480 -0.1320 -0.1957
35709POPC   C4B74499  15.162  24.694  18.234  0.0142  0.2541  0.0372
35710POPC   NC374500   5.153  31.719  20.544 -0.0100  0.2687 -0.0525
35710POPC   PO474501   5.502  31.579  20.480 -0.2972 -0.0004  0.0903
35710POPC   GL174502   5.379  31.374  20.261 -0.3020  0.1492 -0.1860
35710POPC   GL274503   5.196  31.517  20.080  0.2403 -0.0019 -0.0118
35710POPC   C1A74504   5.346  31.009  19.974 -0.2868 -0.1012  0.1443
35710POPC   D2A74505   5.201  30.837  19.570 -0.0917 -0.1557 -0.5264
35710POPC   C3A74506   5.500  30.578  19.509  0.0547 -0.0859  0.0862
35710POPC   C4A74507   5.574  30.149  19.333  0.4018  0.2105 -0.0938
35710POPC   C1B74508   5.203  31.352  19.615  0.0326 -0.0115 -0.1481
35710POPC   C2B74509   5.200  31.206  19.172  0.0373  0.3896  0.0873
35710POPC   C3B74510   5.106  31.273  18.746 -0.1234 -0.0590 -0.3137
35710POPC   C4B74511   4.834  31.186  18.355  0.0353  0.0036  0.0907
35711POPC   NC374512   6.699  20.940  18.111 -0.2822 -0.1873 -0.0304
35711POPC   PO474513   6.328  20.942  18.187  0.0353 -0.0808 -0.1941
35711POPC   GL174514   6.111  20.816  17.862 -0.1995 -0.0955 -0.4924
35711POPC   GL274515   6.303  20.543  17.770 -0.2988 -0.0662 -0.1064
35711POPC   C1A74516   6.155  20.809  17.400 -0.1588 -0.0367  0.1781
35711POPC   D2A74517   6.094  21.111  17.006  0.1417 -0.2114  0.3539
35711POPC   C3A74518   5.700  20.954  16.720 -0.2945 -0.3083 -0.2405
35711POPC   C4A74519   5.292  20.833  16.420  0.0774  0.2698 -0.2114
35711POPC   C1B74520   6.282  20.248  17.418 -0.2320  0.1168 -0.1387
35711POPC   C2B74521   5.874  20.064  17.237  0.0458 -0.0462  0.0369
35711POPC   C3B74522   5.642  19.797  16.853 -0.1402 -0.0610 -0.1401
35711POPC   C4B74523   5.358  19.470  16.702  0.1458  0.0809 -0.0167
35712POPC   NC374524  14.574  28.283  20.560  0.1453 -0.1473 -0.3473
35712POPC   PO474525  14.430  28.604  20.413  0.2008  0.0543  0.0405
35712POPC   GL174526  14.132  28.578  20.093 -0.4145  0.1227  0.0603
35712POPC   GL274527  14.000  28.813  20.194  0.0662  0.1572 -0.2696
35712POPC   C1A74528  13.752  28.320  20.058  0.2473  0.2459  0.0943
35712POPC   D2A74529  13.545  27.925  20.136 -0.1894  0.0467 -0.3509
35712POPC   C3A74530  13.141  27.895  19.918 -0.1257  0.2145 -0.0570
35712POPC   C4A74531  12.732  27.833  19.779  0.0107 -0.0488 -0.2727
35712POPC   C1B74532  14.227  28.969  19.825  0.0180 -0.3142 -0.0729
35712POPC   C2B74533  14.165  29.187  19.425  0.3024 -0.0195  0.2368
35712POPC   C3B74534  13.984  29.036  19.006  0.1348 -0.4030 -0.0901
35712POPC   C4B74535  13.726  28.929  18.641  0.2084 -0.4351 -0.1014
35713POPC   NC374536   6.359  28.228  20.275 -0.3033 -0.1195 -0.0913
35713POPC   PO474537   6.456  28.567  20.444 -0.1391 -0.2305 -0.1387
35713POPC   GL174538   6.784  28.583  20.220  0.1229 -0.0987  0.0222
35713POPC   GL274539   6.764  28.423  19.975  0.0200 -0.3550  0.2690
35713POPC   C1A74540   7.008  28.890  19.945  0.4307 -0.0471  0.1747
35713POPC   D2A74541   7.172  28.848  19.497  0.4398  0.3167 -0.0080
35713POPC   C3A74542   7.141  28.915  19.017 -0.0065  0.0479  0.1462
35713POPC   C4A74543   6.928  28.984  18.638  0.4606  0.0815 -0.0664
35713POPC   C1B74544   6.774  28.487  19.508 -0.1940 -0.1730  0.2112
35713POPC   C2B74545   7.054  28.410  19.157  0.0044  0.0352  0.1201
35713POPC   C3B74546   7.097  28.513  18.655 -0.3309  0.0752 -0.3003
35713POPC   C4B74547   6.992  28.603  18.226  0.3505  0.1228 -0.1215
35714POPC   NC374548   4.291  26.765  20.343  0.2782  0.0291 -0.0048
35714POPC   PO474549   4.603  26.686  20.139  0.0064  0.0737  0.6698
35714POPC   GL174550   4.811  26.898  19.782 -0.2257  0.0677 -0.3182
35714POPC   GL274551   4.773  26.722  19.587  0.1134  0.0212 -0.3052
35714POPC   C1A74552   4.743  27.247  19.467 -0.0653 -0.0161 -0.0363
35714POPC   D2A74553   4.529  27.212  19.056 -0.1618  0.3031  0.1541
35714POPC   C3A74554   4.551  27.255  18.582 -0.3736 -0.1690 -0.3554
35714POPC   C4A74555   4.499  27.432  18.160 -0.1520 -0.1266 -0.0155
35714POPC   C1B74556   4.668  26.731  19.128  0.2458 -0.1363  0.0588
35714POPC   C2B74557   4.319  26.827  18.815 -0.1654  0.1027 -0.1775
35714POPC   C3B74558   4.179  26.878  18.351  0.1893 -0.2359  0.0119
35714POPC   C4B74559   4.146  27.051  17.894  0.2110 -0.0302 -0.0264
35715POPC   NC374560  13.955  27.349  20.270 -0.1410 -0.0479  0.1451
35715POPC   PO474561  13.914  27.715  20.453  0.1213 -0.5125 -0.2828
35715POPC   GL174562  13.971  27.831  20.049 -0.0986 -0.4429 -0.3513
35715POPC   GL274563  14.128  27.653  19.884 -0.1581 -0.1630  0.1322
35715POPC   C1A74564  13.931  28.039  19.620  0.0222  0.1907  0.3699
35715POPC   D2A74565  14.211  28.160  19.265  0.3061 -0.0388  0.0765
35715POPC   C3A74566  14.596  28.402  19.324 -0.1429 -0.2687 -0.2660
35715POPC   C4A74567  15.037  28.624  19.297  0.1625  0.0285  0.0488
35715POPC   C1B74568  14.047  27.600  19.381  0.0777 -0.0989 -0.0214
35715POPC   C2B74569  13.949  27.840  18.969 -0.1610  0.0410  0.2713
35715POPC   C3B74570  14.286  28.168  18.753  0.0182  0.1108  0.1525
35715POPC   C4B74571  14.668  28.062  18.450 -0.2229  0.0755 -0.1169
35716POPC   NC374572   8.936  30.038  20.668  0.2797  0.1603 -0.1630
35716POPC   PO474573   9.151  29.939  20.343  0.2222  0.0298  0.2259
35716POPC   GL174574   9.168  29.819  19.884 -0.2000 -0.2154  0.1746
35716POPC   GL274575   8.935  29.685  19.820 -0.1610  0.1312 -0.2965
35716POPC   C1A74576   9.225  29.803  19.430 -0.1360  0.0734  0.0851
35716POPC   D2A74577   9.279  29.761  18.962  0.0376 -0.2105 -0.0987
35716POPC   C3A74578   9.265  29.404  18.647  0.1399 -0.2043  0.2433
35716POPC   C4A74579   9.179  29.266  18.200  0.0148  0.0887 -0.4078
35716POPC   C1B74580   8.662  29.880  19.556  0.0376 -0.3323 -0.1551
35716POPC   C2B74581   8.395  30.005  19.154  0.1074  0.2957 -0.0298
35716POPC   C3B74582   8.519  30.112  18.708  0.1724  0.0785  0.0022
35716POPC   C4B74583   8.444  30.351  18.363  0.0973 -0.3908  0.2584
35717POPC   NC374584  11.582  22.111  12.695 -0.2115  0.0880 -0.0937
35717POPC   PO474585  11.360  21.813  12.500  0.0528 -0.0428 -0.1605
35717POPC   GL174586  11.707  21.671  12.557  0.0002 -0.3976  0.1391
35717POPC   GL274587  11.693  21.422  12.421  0.1283  0.0657  0.0245
35717POPC   C1A74588  12.090  21.607  12.279 -0.3001  0.1964 -0.1254
35717POPC   D2A74589  12.193  21.662  11.772  0.0009 -0.1611 -0.1086
35717POPC   C3A74590  12.520  21.631  11.488 -0.1186 -0.1620  0.3918
35717POPC   C4A74591  12.949  21.687  11.667  0.1280  0.0446 -0.0421
35717POPC   C1B74592  11.847  20.984  12.485 -0.0475 -0.0093  0.1764
35717POPC   C2B74593  12.110  20.581  12.571  0.1906 -0.4005  0.2918
35717POPC   C3B74594  12.206  20.391  12.987 -0.1765 -0.1518 -0.0189
35717POPC   C4B74595  12.356  20.393  13.436 -0.1360  0.0188  0.0704
35718POPC   NC374596   2.185  17.610  19.952 -0.2113  0.1215 -0.0260
35718POPC   PO474597   1.845  17.826  19.938  0.1401 -0.0861 -0.0388
35718POPC   GL174598   1.781  17.714  19.605 -0.3523 -0.0239 -0.0684
35718POPC   GL274599   1.693  17.983  19.420  0.0175  0.2713  0.1323
35718POPC   C1A74600   2.104  17.725  19.300 -0.1297  0.1749  0.0014
35718POPC   D2A74601   2.348  17.911  18.935 -0.3263 -0.2021 -0.1960
35718POPC   C3A74602   2.330  17.824  18.456 -0.0974  0.0069  0.2017
35718POPC   C4A74603   2.108  17.530  18.244 -0.1126  0.0767 -0.1161
35718POPC   C1B74604   1.804  17.852  18.929 -0.2058  0.0178 -0.1194
35718POPC   C2B74605   1.640  17.648  18.563 -0.1812  0.1489 -0.0202
35718POPC   C3B74606   1.279  17.385  18.379 -0.2163 -0.0111 -0.2239
35718POPC   C4B74607   1.184  17.185  17.960 -0.2917  0.0044  0.4099
35719POPC   NC374608   6.269  24.670  19.007 -0.0343 -0.0804 -0.2200
35719POPC   PO474609   6.584  24.844  19.155 -0.0013  0.0963 -0.1384
35719POPC   GL174610   6.560  24.877  18.733 -0.3463  0.0273 -0.0182
35719POPC   GL274611   6.325  25.070  18.656  0.1578 -0.1564  0.3469
35719POPC   C1A74612   6.426  24.658  18.400 -0.1460 -0.2173  0.1004
35719POPC   D2A74613   6.377  24.327  18.146 -0.1098 -0.1723 -0.0759
35719POPC   C3A74614   6.050  24.404  17.817  0.1844 -0.1600 -0.1068
35719POPC   C4A74615   5.828  24.317  17.403 -0.0892 -0.0074 -0.0766
35719POPC   C1B74616   6.093  25.001  18.164  0.2893 -0.0280  0.2086
35719POPC   C2B74617   5.919  25.020  17.756 -0.0586  0.4171  0.3005
35719POPC   C3B74618   6.007  24.833  17.316  0.3058 -0.1438  0.1492
35719POPC   C4B74619   6.282  24.826  16.905 -0.1009  0.3601 -0.1090
35720POPC   NC374620   1.526  32.025  20.956 -0.1108  0.1745 -0.1063
35720POPC   PO474621   1.211  31.843  20.757 -0.1937 -0.0468  0.2323
35720POPC   GL174622   1.191  31.835  20.310  0.1225  0.0540 -0.0118
35720POPC   GL274623   1.047  31.564  20.274 -0.0768  0.1463 -0.3997
35720POPC   C1A74624   1.327  31.668  19.918 -0.1516 -0.1859 -0.3366
35720POPC   D2A74625   1.139  31.770  19.492  0.1882 -0.0045  0.1882
35720POPC   C3A74626   0.953  31.620  19.124  0.0933 -0.0366  0.0350
35720POPC   C4A74627   1.059  31.439  18.710 -0.0354 -0.0191 -0.2262
35720POPC   C1B74628   0.820  31.666  19.923 -0.1158 -0.1920 -0.0103
35720POPC   C2B74629   0.600  31.948  19.635  0.4609  0.0851 -0.0667
35720POPC   C3B74630   0.386  32.210  19.262  0.0814 -0.2951 -0.3729
35720POPC   C4B74631   0.243  32.526  18.959  0.2134 -0.0233 -0.1638
35721POPC   NC374632   7.494  19.496  18.779 -0.0257 -0.0240  0.0089
35721POPC   PO474633   7.424  19.845  18.665 -0.3076  0.0083  0.0152
35721POPC   GL174634   7.195  19.567  18.436  0.2064 -0.0394  0.3637
35721POPC   GL274635   7.368  19.532  18.221  0.2506  0.1768 -0.1196
35721POPC   C1A74636   7.023  19.140  18.182  0.1225 -0.1413 -0.1153
35721POPC   D2A74637   6.570  19.151  18.011  0.1136  0.1796 -0.1302
35721POPC   C3A74638   6.409  19.568  18.059  0.2901  0.0536 -0.2631
35721POPC   C4A74639   6.173  19.650  18.437  0.3725 -0.0600  0.1650
35721POPC   C1B74640   7.138  19.508  17.812 -0.1633 -0.1628 -0.0298
35721POPC   C2B74641   6.741  19.385  17.629 -0.4265 -0.1623 -0.1020
35721POPC   C3B74642   6.371  19.234  17.596 -0.0837 -0.1508 -0.1028
35721POPC   C4B74643   6.119  18.854  17.709  0.0846 -0.3846 -0.2843
35722POPC   NC374644  11.025  19.609  17.358 -0.2909  0.0502  0.1601
35722POPC   PO474645  11.376  19.744  17.429  0.0050  0.0421 -0.1754
35722POPC   GL174646  11.529  19.513  17.150 -0.1036 -0.1437 -0.4871
35722POPC   GL274647  11.816  19.405  17.061 -0.0924 -0.0297  0.0361
35722POPC   C1A74648  11.422  19.309  16.744  0.3228  0.1181 -0.2161
35722POPC   D2A74649  11.340  19.178  16.333  0.0998  0.4459  0.0965
35722POPC   C3A74650  11.562  18.776  16.305  0.0666  0.2354 -0.1643
35722POPC   C4A74651  11.750  18.360  16.341  0.2810 -0.0939 -0.5423
35722POPC   C1B74652  12.160  19.284  16.748 -0.3274  0.2901  0.0519
35722POPC   C2B74653  12.475  19.192  16.441  0.1429  0.3190 -0.0801
35722POPC   C3B74654  12.837  19.211  16.139 -0.1233 -0.0222 -0.2193
35722POPC   C4B74655  12.910  19.016  15.733 -0.0891 -0.1282  0.0483
35723POPC   NC374656   3.510  16.355  20.625 -0.1842 -0.2251 -0.2691
35723POPC   PO474657   3.127  16.296  20.519  0.0922 -0.0303  0.3701
35723POPC   GL174658   3.140  16.374  20.047 -0.1121  0.1909 -0.0899
35723POPC   GL274659   3.348  16.558  19.946  0.0376  0.1852 -0.1317
35723POPC   C1A74660   2.948  16.327  19.636 -0.1804  0.0958 -0.3998
35723POPC   D2A74661   2.903  16.173  19.204  0.0903  0.0679  0.0339
35723POPC   C3A74662   3.092  16.351  18.805  0.1698 -0.1461  0.1355
35723POPC   C4A74663   2.947  16.145  18.434  0.1849  0.1941 -0.0291
35723POPC   C1B74664   2.993  16.789  19.731 -0.1574 -0.3077 -0.1432
35723POPC   C2B74665   2.882  17.088  19.327 -0.2287  0.0319 -0.0117
35723POPC   C3B74666   2.770  16.992  18.939  0.0460  0.1277  0.2291
35723POPC   C4B74667   2.598  17.269  18.559  0.0671 -0.2088 -0.0308
35724POPC   NC374668   9.389  21.612  13.260 -0.1239  0.1715 -0.2353
35724POPC   PO474669   9.636  21.340  13.132 -0.0579 -0.0514 -0.1034
35724POPC   GL174670   9.388  21.205  12.799 -0.1080 -0.0968  0.0196
35724POPC   GL274671   9.561  21.003  12.699  0.1187  0.1698  0.1933
35724POPC   C1A74672   8.901  21.248  12.877  0.0853  0.0149 -0.0260
35724POPC   D2A74673   8.627  21.092  13.232  0.1863 -0.1023  0.0298
35724POPC   C3A74674   8.278  20.842  13.290 -0.1137  0.0261  0.0329
35724POPC   C4A74675   8.279  20.306  13.279 -0.3116 -0.1936  0.0780
35724POPC   C1B74676   9.591  20.673  12.324  0.0895  0.0526  0.0551
35724POPC   C2B74677   9.626  20.477  11.868 -0.1391 -0.0522 -0.2326
35724POPC   C3B74678   9.354  20.521  11.514 -0.0532  0.2361 -0.0555
35724POPC   C4B74679   9.057  20.447  11.201 -0.1689 -0.2770 -0.2146
35725POPC   NC374680   0.782  18.402  20.235  0.1893  0.0810 -0.0298
35725POPC   PO474681   0.872  18.146  19.943 -0.1199  0.0428  0.1355
35725POPC   GL174682   0.852  17.960  19.603  0.1546  0.1652 -0.0848
35725POPC   GL274683   1.074  17.709  19.464  0.1245 -0.0814 -0.0195
35725POPC   C1A74684   0.612  18.113  19.262 -0.2064 -0.0159 -0.0002
35725POPC   D2A74685   0.576  17.980  18.829  0.0895 -0.2301  0.1466
35725POPC   C3A74686   0.768  18.315  18.547  0.3007  0.2527  0.1016
35725POPC   C4A74687   1.025  18.580  18.218 -0.1150 -0.0156  0.1457
35725POPC   C1B74688   1.197  17.638  19.021  0.3625 -0.1293 -0.0597
35725POPC   C2B74689   1.094  17.822  18.617  0.1186  0.1377 -0.0181
35725POPC   C3B74690   1.338  18.194  18.368 -0.0970  0.1902 -0.0978
35725POPC   C4B74691   1.607  18.312  17.952 -0.1494  0.4169  0.1744
35726POPC   NC374692  12.009  20.558  17.584  0.2883 -0.0002 -0.1704
35726POPC   PO474693  11.924  20.273  17.364  0.3592  0.0803  0.0195
35726POPC   GL174694  11.931  20.170  16.997  0.3377  0.1072 -0.1845
35726POPC   GL274695  12.107  19.923  17.071 -0.0500  0.1873  0.3674
35726POPC   C1A74696  12.237  20.298  16.673 -0.1421  0.1571  0.0880
35726POPC   D2A74697  12.665  20.288  16.447  0.0664 -0.0493  0.1287
35726POPC   C3A74698  13.087  20.164  16.324  0.2759 -0.1780 -0.1023
35726POPC   C4A74699  13.523  20.214  16.183  0.2851  0.0170  0.1489
35726POPC   C1B74700  12.330  19.740  16.712  0.0430 -0.4458 -0.3404
35726POPC   C2B74701  12.499  19.680  16.317  0.1380 -0.1190  0.0781
35726POPC   C3B74702  12.431  19.627  15.867  0.0518  0.1587 -0.0338
35726POPC   C4B74703  12.493  19.257  15.607 -0.0968 -0.1769 -0.1719
35727POPC   NC374704  13.477  27.676  20.667 -0.2797 -0.1038  0.1300
35727POPC   PO474705  13.417  27.469  20.337 -0.2740 -0.0823  0.0417
35727POPC   GL174706  13.446  27.307  20.041  0.3393  0.2260  0.0287
35727POPC   GL274707  13.678  27.402  19.885  0.0213 -0.0435  0.1763
35727POPC   C1A74708  13.273  27.282  19.597 -0.3066  0.0238  0.0349
35727POPC   D2A74709  13.090  27.218  19.197 -0.1737 -0.1873 -0.0985
35727POPC   C3A74710  13.398  27.102  18.843  0.0345 -0.0846 -0.0872
35727POPC   C4A74711  13.751  26.948  18.602 -0.2074 -0.0065  0.1426
35727POPC   C1B74712  13.542  27.716  19.624  0.2583  0.0553 -0.2016
35727POPC   C2B74713  13.423  27.955  19.234 -0.3540  0.2012  0.0895
35727POPC   C3B74714  13.315  27.988  18.782 -0.1627  0.1020  0.3499
35727POPC   C4B74715  13.061  27.856  18.453  0.3256 -0.2154  0.3709
35728POPC   NC374716   9.079  25.482  18.935 -0.2052  0.0396  0.0209
35728POPC   PO474717   9.443  25.392  18.833  0.0719  0.0293  0.0238
35728POPC   GL174718   9.701  25.645  18.663 -0.0998 -0.1810 -0.2769
35728POPC   GL274719   9.926  25.562  18.530 -0.1714 -0.1703  0.0368
35728POPC   C1A74720   9.530  25.992  18.414  0.2952  0.0599  0.0393
35728POPC   D2A74721   9.079  26.138  18.194  0.2271 -0.2056 -0.0358
35728POPC   C3A74722   8.656  26.250  18.351  0.1288 -0.0636 -0.2833
35728POPC   C4A74723   8.472  26.450  18.714  0.1326  0.3096  0.0793
35728POPC   C1B74724   9.912  25.799  18.112 -0.0643  0.1699 -0.1112
35728POPC   C2B74725   9.732  26.213  17.974 -0.1709  0.1451 -0.3475
35728POPC   C3B74726   9.805  26.660  17.928 -0.3086  0.4532  0.0439
35728POPC   C4B74727   9.741  27.063  18.052  0.0469 -0.1170 -0.0443
35729POPC   NC374728   8.785  26.015  19.920  0.0475 -0.2559  0.0202
35729POPC   PO474729   9.127  26.184  19.786  0.0031 -0.3375  0.0814
35729POPC   GL174730   9.133  26.418  19.525 -0.0890 -0.2032 -0.2452
35729POPC   GL274731   9.349  26.635  19.579 -0.1360 -0.0168  0.2371
35729POPC   C1A74732   9.128  26.357  19.088 -0.0679 -0.2616  0.0492
35729POPC   D2A74733   9.094  26.383  18.649 -0.1534  0.1266 -0.0438
35729POPC   C3A74734   9.200  26.595  18.259 -0.1528 -0.1481 -0.0855
35729POPC   C4A74735   9.215  26.900  17.924 -0.3451 -0.1466 -0.0090
35729POPC   C1B74736   9.049  26.888  19.351 -0.2968 -0.0043  0.0347
35729POPC   C2B74737   8.980  26.851  18.821 -0.2236 -0.1633 -0.0551
35729POPC   C3B74738   8.730  26.784  18.438 -0.3670  0.2068 -0.1380
35729POPC   C4B74739   8.314  26.731  18.318 -0.0856  0.3350 -0.1337
35730POPC   NC374740  11.116  23.867  17.792 -0.0882 -0.0076 -0.1628
35730POPC   PO474741  11.292  23.550  17.708  0.1320 -0.0943  0.1975
35730POPC   GL174742  11.484  23.747  17.409 -0.3386  0.1614 -0.0532
35730POPC   GL274743  11.407  23.901  17.215  0.0771  0.3732 -0.2532
35730POPC   C1A74744  11.956  23.798  17.401 -0.0025 -0.1485  0.2809
35730POPC   D2A74745  12.289  23.930  17.127 -0.0070  0.0088 -0.2353
35730POPC   C3A74746  12.339  24.256  16.809 -0.0268  0.0787  0.1042
35730POPC   C4A74747  12.237  24.302  16.317  0.5289 -0.0648  0.0675
35730POPC   C1B74748  11.389  24.128  16.801 -0.0111 -0.0970 -0.1901
35730POPC   C2B74749  11.177  24.535  16.683  0.2686  0.0448  0.0124
35730POPC   C3B74750  11.388  24.892  16.419 -0.0811 -0.0127  0.1543
35730POPC   C4B74751  11.701  25.192  16.267 -0.0752 -0.2472 -0.1012
35731POPC   NC374752  12.483  25.954  20.059  0.0226  0.0891  0.0652
35731POPC   PO474753  12.745  26.198  19.919 -0.2605  0.0640  0.0954
35731POPC   GL174754  12.893  26.293  19.611  0.0335 -0.1655  0.1455
35731POPC   GL274755  13.159  26.456  19.716  0.0107 -0.0524 -0.1677
35731POPC   C1A74756  12.676  26.472  19.189 -0.2043  0.2061 -0.1678
35731POPC   D2A74757  12.780  26.724  18.845  0.1273 -0.2976  0.1075
35731POPC   C3A74758  12.955  26.581  18.403 -0.2228  0.1726 -0.1340
35731POPC   C4A74759  13.099  26.494  17.983 -0.1061  0.0115 -0.1422
35731POPC   C1B74760  13.565  26.693  19.582 -0.2349 -0.1091 -0.2755
35731POPC   C2B74761  13.754  26.724  19.174  0.0126 -0.0097  0.2570
35731POPC   C3B74762  14.079  26.627  18.838 -0.1222 -0.2264 -0.2399
35731POPC   C4B74763  14.471  26.638  18.585 -0.0695  0.0591 -0.0661
35732POPC   NC374764   7.997  32.299  19.985  0.1880 -0.1019  0.0381
35732POPC   PO474765   7.860  31.987  20.120 -0.0875  0.1880  0.0448
35732POPC   GL174766   7.752  32.047  19.692 -0.4682 -0.3584  0.0342
35732POPC   GL274767   7.955  31.869  19.669  0.1019 -0.1222 -0.0017
35732POPC   C1A74768   7.677  31.924  19.265 -0.0354  0.0631  0.1975
35732POPC   D2A74769   7.438  31.584  19.021 -0.1633  0.2516 -0.3477
35732POPC   C3A74770   7.583  31.259  18.664  0.0327 -0.0074 -0.0234
35732POPC   C4A74771   7.672  30.868  18.477  0.0406 -0.2945  0.1268
35732POPC   C1B74772   7.907  31.500  19.393 -0.0796 -0.1879  0.2180
35732POPC   C2B74773   7.955  31.372  18.952 -0.0011 -0.2082 -0.3215
35732POPC   C3B74774   8.103  31.393  18.559 -0.1319 -0.3507  0.1690
35732POPC   C4B74775   8.425  31.321  18.310 -0.0787 -0.0908 -0.2312
35733POPC   NC374776   7.805  26.324  19.469 -0.0528  0.1033 -0.0518
35733POPC   PO474777   7.559  26.055  19.326  0.0837 -0.2196 -0.0064
35733POPC   GL174778   7.533  26.150  18.947  0.3392  0.0409 -0.0714
35733POPC   GL274779   7.403  26.017  18.812  0.0148 -0.0687  0.0961
35733POPC   C1A74780   7.310  26.380  18.567 -0.0634  0.0481 -0.2986
35733POPC   D2A74781   7.207  26.668  18.232 -0.1069 -0.0032 -0.0647
35733POPC   C3A74782   7.409  26.488  17.797 -0.1830  0.2419  0.2296
35733POPC   C4A74783   7.592  26.081  17.596  0.2737 -0.0496 -0.0347
35733POPC   C1B74784   7.813  26.052  18.563 -0.2150  0.1382  0.0485
35733POPC   C2B74785   8.202  26.138  18.286  0.1857 -0.3786  0.0570
35733POPC   C3B74786   8.435  26.256  17.892 -0.1470 -0.1047  0.1592
35733POPC   C4B74787   8.394  26.621  17.591 -0.0574  0.1503  0.0645
35734POPC   NC374788  15.184  29.389  20.488  0.1975 -0.0259  0.3838
35734POPC   PO474789  14.896  29.161  20.570 -0.0241  0.1804 -0.0663
35734POPC   GL174790  14.987  28.926  20.269 -0.0272 -0.0078  0.2084
35734POPC   GL274791  14.862  28.721  20.182 -0.0487  0.3743  0.0458
35734POPC   C1A74792  15.058  29.013  19.815  0.4034  0.2771  0.3046
35734POPC   D2A74793  15.105  29.168  19.336 -0.1231 -0.1320  0.2318
35734POPC   C3A74794  15.350  29.153  19.020  0.1396  0.1749  0.2412
35734POPC   C4A74795  15.563  28.949  18.624  0.0795 -0.2996  0.0553
35734POPC   C1B74796  14.673  28.625  19.772 -0.3184  0.0003  0.0162
35734POPC   C2B74797  14.617  28.879  19.473 -0.0960 -0.0279 -0.2140
35734POPC   C3B74798  14.447  28.866  19.061  0.2381 -0.1409 -0.0490
35734POPC   C4B74799  14.240  28.816  18.654  0.1881 -0.1447  0.0815
35735POPC   NC374800  16.013  18.966  20.057 -0.3325 -0.1161 -0.1311
35735POPC   PO474801  15.981  18.959  19.695 -0.0380  0.2056  0.2232
35735POPC   GL174802  16.232  19.022  19.407  0.1725 -0.1739  0.4020
35735POPC   GL274803  16.518  19.024  19.367  0.0862  0.3461  0.1491
35735POPC   C1A74804  16.257  18.829  18.980  0.0426  0.1885 -0.1106
35735POPC   D2A74805  16.315  18.620  18.549 -0.0370  0.4916  0.1876
35735POPC   C3A74806  16.326  18.946  18.263 -0.0632  0.1385  0.1094
35735POPC   C4A74807  16.450  19.348  18.108  0.3430  0.1327 -0.1868
35735POPC   C1B74808  16.748  19.049  19.006 -0.2393 -0.2427 -0.0613
35735POPC   C2B74809  16.805  19.065  18.540 -0.0840 -0.0167 -0.0687
35735POPC   C3B74810  16.729  18.673  18.246  0.4347 -0.0837 -0.0561
35735POPC   C4B74811  17.030  18.425  17.996 -0.1292 -0.0952  0.1066
35736POPC   NC374812  11.301  18.556  18.666  0.5156  0.2474 -0.0727
35736POPC   PO474813  11.632  18.450  18.790 -0.3794 -0.0086  0.1268
35736POPC   GL174814  11.575  18.281  18.397  0.1979 -0.0434 -0.0993
35736POPC   GL274815  11.403  18.343  18.168  0.0042 -0.3236 -0.0532
35736POPC   C1A74816  11.786  17.924  18.173 -0.0079  0.2653 -0.0772
35736POPC   D2A74817  11.558  17.515  18.095 -0.0706  0.1185  0.2209
35736POPC   C3A74818  11.350  17.483  17.667 -0.0359  0.0683 -0.0010
35736POPC   C4A74819  11.208  17.170  17.316 -0.0306 -0.1319  0.1756
35736POPC   C1B74820  11.408  18.067  17.793 -0.1973 -0.0217  0.3309
35736POPC   C2B74821  11.660  18.003  17.371  0.0811 -0.3772 -0.1793
35736POPC   C3B74822  11.685  17.977  16.902  0.2858 -0.0458  0.0995
35736POPC   C4B74823  11.389  17.975  16.577 -0.0259 -0.2438  0.0803
35737POPC   NC374824   1.965  24.224  20.513  0.0319  0.1934  0.1036
35737POPC   PO474825   1.949  24.473  20.212 -0.0813  0.0250  0.0315
35737POPC   GL174826   2.104  24.406  19.799  0.2142  0.1800 -0.0001
35737POPC   GL274827   2.401  24.514  19.784  0.0902 -0.0577  0.0254
35737POPC   C1A74828   1.905  24.527  19.381  0.1810  0.1397 -0.0607
35737POPC   D2A74829   1.639  24.446  19.020 -0.0845  0.0390 -0.1559
35737POPC   C3A74830   1.259  24.523  18.758  0.1196  0.0440 -0.4167
35737POPC   C4A74831   0.989  24.738  18.438  0.2405  0.0294 -0.1995
35737POPC   C1B74832   2.528  24.489  19.293  0.2506  0.1643 -0.0259
35737POPC   C2B74833   2.682  24.576  18.869  0.1348  0.2100 -0.0244
35737POPC   C3B74834   2.766  24.319  18.453 -0.0382 -0.2966  0.2556
35737POPC   C4B74835   2.948  24.484  18.020  0.4511  0.0203 -0.2197
35738POPC   NC374836   0.336   0.028  20.221  0.2133 -0.0982 -0.0392
35738POPC   PO474837   0.347  -0.286  20.483  0.0771  0.2154 -0.1076
35738POPC   GL174838   0.501  -0.598  20.281 -0.0933  0.0714 -0.2407
35738POPC   GL274839   0.720  -0.733  20.084  0.1883  0.3025  0.0499
35738POPC   C1A74840   0.327  -1.010  20.100 -0.0063  0.0808  0.0587
35738POPC   D2A74841   0.109  -1.197  19.713  0.1248 -0.0474  0.0359
35738POPC   C3A74842   0.232  -1.129  19.303 -0.1757  0.1531 -0.0508
35738POPC   C4A74843   0.132  -0.927  18.844 -0.0906 -0.3490 -0.1558
35738POPC   C1B74844   0.593  -0.409  19.864  0.2118 -0.2065 -0.3670
35738POPC   C2B74845   0.572  -0.002  19.784  0.0327  0.0724  0.1274
35738POPC   C3B74846   0.385   0.352  19.530 -0.3902  0.1374  0.1222
35738POPC   C4B74847   0.232   0.693  19.247 -0.0586 -0.1458 -0.1764
35739POPC   NC374848  10.233  16.677  19.215  0.2531  0.2566 -0.2091
35739POPC   PO474849   9.943  16.902  19.345 -0.0215  0.0464  0.1720
35739POPC   GL174850   9.799  16.572  19.150  0.2111  0.2222  0.2555
35739POPC   GL274851   9.785  16.686  18.843  0.1864 -0.1607  0.0948
35739POPC   C1A74852   9.495  16.275  18.940 -0.0981 -0.0227 -0.3069
35739POPC   D2A74853   9.511  16.013  18.543  0.0650 -0.0874 -0.1268
35739POPC   C3A74854   9.776  16.264  18.272 -0.0537  0.3073 -0.2713
35739POPC   C4A74855   9.960  16.678  18.352 -0.2394 -0.1160 -0.0730
35739POPC   C1B74856   9.527  16.714  18.466 -0.0475 -0.0039 -0.0083
35739POPC   C2B74857   9.147  16.792  18.126 -0.1936 -0.1729  0.1251
35739POPC   C3B74858   8.984  16.786  17.684 -0.0023  0.0492  0.0086
35739POPC   C4B74859   8.697  16.799  17.322  0.0040 -0.0624  0.0586
35740POPC   NC374860   8.161  28.379  20.064  0.2056  0.1253 -0.2001
35740POPC   PO474861   7.906  28.652  20.013  0.0303 -0.0564  0.0846
35740POPC   GL174862   7.848  28.614  19.639 -0.0711  0.1088  0.2424
35740POPC   GL274863   7.829  28.289  19.663  0.3274 -0.2154 -0.0129
35740POPC   C1A74864   7.612  28.772  19.253 -0.0597  0.0624  0.1820
35740POPC   D2A74865   7.522  28.630  18.833  0.2131 -0.0715  0.1236
35740POPC   C3A74866   7.380  29.025  18.539  0.0528  0.0218  0.1078
35740POPC   C4A74867   7.112  29.156  18.178  0.1102 -0.0004 -0.1289
35740POPC   C1B74868   8.134  28.284  19.364 -0.2772 -0.0099 -0.1352
35740POPC   C2B74869   8.245  28.257  18.943 -0.5139 -0.0220 -0.1680
35740POPC   C3B74870   8.381  28.508  18.642 -0.2287 -0.1033  0.0823
35740POPC   C4B74871   8.416  28.796  18.236  0.2745  0.3835 -0.2301
35741POPC   NC374872  11.247  20.611  13.614 -0.1708 -0.0679 -0.0342
35741POPC   PO474873  10.990  20.813  13.364  0.1011 -0.0666  0.0716
35741POPC   GL174874  10.704  20.590  13.305 -0.0586 -0.2344  0.0126
35741POPC   GL274875  10.405  20.502  13.435 -0.1452  0.1163  0.3505
35741POPC   C1A74876  10.812  20.176  13.289  0.1765 -0.0812 -0.0993
35741POPC   D2A74877  10.809  19.767  13.492  0.0965 -0.0218 -0.2906
35741POPC   C3A74878  11.023  19.405  13.283  0.2191 -0.1649 -0.0569
35741POPC   C4A74879  11.199  19.334  12.860 -0.1654  0.2670  0.2602
35741POPC   C1B74880  10.312  20.280  12.991  0.0879 -0.0245 -0.2854
35741POPC   C2B74881  10.240  20.023  12.602  0.1273 -0.1936 -0.0939
35741POPC   C3B74882  10.087  19.873  12.230 -0.1710 -0.2594 -0.1545
35741POPC   C4B74883   9.844  19.871  11.856  0.0306 -0.1641 -0.0753
35742POPC   NC374884   9.034  21.052  14.320 -0.1550 -0.0051  0.3863
35742POPC   PO474885   9.192  21.306  14.058  0.0613  0.0753  0.1570
35742POPC   GL174886   9.000  21.235  13.813  0.0717  0.1670  0.1573
35742POPC   GL274887   9.009  21.389  13.551  0.4034 -0.0316 -0.2490
35742POPC   C1A74888   8.603  20.982  13.668 -0.0701  0.1418  0.0235
35742POPC   D2A74889   8.633  20.459  13.666 -0.0585  0.1958 -0.0440
35742POPC   C3A74890   8.620  20.033  13.803  0.0732  0.2885 -0.0922
35742POPC   C4A74891   8.710  19.604  13.677  0.1854 -0.2399 -0.0813
35742POPC   C1B74892   8.530  21.497  13.511  0.1838 -0.0043 -0.2581
35742POPC   C2B74893   8.183  21.335  13.306  0.0144 -0.0797 -0.0417
35742POPC   C3B74894   8.038  21.125  12.960 -0.3681  0.2424  0.1940
35742POPC   C4B74895   7.691  20.939  12.777  0.0116 -0.4731 -0.0756
35743POPC   NC374896   8.927  21.711  13.994  0.0680 -0.0783 -0.0091
35743POPC   PO474897   8.877  21.576  14.346 -0.1423 -0.0046  0.3498
35743POPC   GL174898   8.569  21.283  14.294 -0.3084  0.1483  0.3551
35743POPC   GL274899   8.568  21.358  13.991  0.1496  0.0389  0.1339
35743POPC   C1A74900   8.435  20.858  14.169 -0.0562  0.0118 -0.0912
35743POPC   D2A74901   8.168  20.665  13.751  0.2335 -0.1216  0.0683
35743POPC   C3A74902   8.108  20.237  13.818  0.2070 -0.0291  0.0942
35743POPC   C4A74903   8.234  19.751  13.796  0.3263  0.1845  0.0569
35743POPC   C1B74904   8.169  21.129  13.871  0.3580 -0.2140 -0.1782
35743POPC   C2B74905   7.742  20.917  13.857 -0.3195  0.1665 -0.0835
35743POPC   C3B74906   7.481  20.584  14.140 -0.0792 -0.0598  0.0874
35743POPC   C4B74907   7.565  20.114  14.224  0.2734 -0.3327  0.2754
35744POPC   NC374908  15.915  25.588  20.199  0.1031 -0.0120  0.2770
35744POPC   PO474909  16.283  25.544  20.073  0.0046 -0.3932 -0.1119
35744POPC   GL174910  16.147  25.455  19.757  0.2648 -0.2003 -0.0752
35744POPC   GL274911  16.329  25.258  19.637  0.1944 -0.1289 -0.0666
35744POPC   C1A74912  16.090  25.634  19.313 -0.1695  0.1923 -0.0298
35744POPC   D2A74913  15.849  25.629  18.957  0.2740 -0.1221  0.1125
35744POPC   C3A74914  15.558  25.476  18.629 -0.0435 -0.0872 -0.1818
35744POPC   C4A74915  15.140  25.312  18.839  0.0708  0.2932  0.1744
35744POPC   C1B74916  16.427  25.318  19.182  0.2349 -0.4175  0.2691
35744POPC   C2B74917  16.250  25.483  18.737 -0.4306  0.0795 -0.1232
35744POPC   C3B74918  15.986  25.720  18.471  0.1185  0.2658  0.2179
35744POPC   C4B74919  15.951  26.044  18.058 -0.1346 -0.1856 -0.2704
35745POPC   NC374920  10.268  16.980  19.709 -0.1487 -0.0496  0.1521
35745POPC   PO474921  10.656  16.879  19.581 -0.2303  0.1441 -0.0247
35745POPC   GL174922  10.963  16.595  19.207  0.4241 -0.5296 -0.2301
35745POPC   GL274923  10.694  16.737  19.078 -0.3206 -0.0729  0.0779
35745POPC   C1A74924  10.766  16.281  18.923  0.0621 -0.2598  0.1713
35745POPC   D2A74925  10.688  15.975  18.579  0.1010 -0.0238  0.3611
35745POPC   C3A74926  10.945  15.735  18.235 -0.1595  0.2954 -0.0922
35745POPC   C4A74927  11.197  15.394  18.035 -0.2004 -0.2669  0.2377
35745POPC   C1B74928  11.003  16.683  18.722  0.0481 -0.1191  0.0388
35745POPC   C2B74929  11.131  16.336  18.485 -0.1388  0.2447 -0.1749
35745POPC   C3B74930  11.105  16.166  18.062 -0.1280  0.0209 -0.0348
35745POPC   C4B74931  11.187  15.808  17.779  0.4164 -0.2956 -0.0070
35746POPC   NC374932  14.562  20.582  18.807 -0.0915  0.1181  0.1595
35746POPC   PO474933  14.648  20.377  19.151 -0.3280  0.0394  0.1840
35746POPC   GL174934  14.761  20.165  18.814  0.1564 -0.0280 -0.0174
35746POPC   GL274935  14.974  20.192  18.664  0.2585 -0.1177 -0.1257
35746POPC   C1A74936  14.485  20.212  18.418 -0.2188  0.0393 -0.0700
35746POPC   D2A74937  14.436  20.297  17.937  0.4081 -0.1239 -0.4203
35746POPC   C3A74938  14.680  20.245  17.560 -0.0641 -0.0499 -0.3346
35746POPC   C4A74939  15.098  20.135  17.384 -0.1279  0.1776 -0.1548
35746POPC   C1B74940  15.397  20.000  18.477 -0.0650 -0.0436  0.3608
35746POPC   C2B74941  15.748  19.951  18.137 -0.2030 -0.1928 -0.2986
35746POPC   C3B74942  15.829  19.735  17.788  0.0219  0.1910 -0.2090
35746POPC   C4B74943  16.132  19.393  17.746  0.2066 -0.0931  0.2702
35747POPC   NC374944   9.618  19.810  16.551 -0.0455 -0.0723 -0.0055
35747POPC   PO474945   9.949  20.036  16.470 -0.3088 -0.3000  0.0320
35747POPC   GL174946  10.150  19.707  16.187  0.3445 -0.0326  0.1157
35747POPC   GL274947   9.861  19.662  16.091  0.3742  0.2192  0.2932
35747POPC   C1A74948  10.157  19.276  15.929 -0.1820 -0.2330 -0.2211
35747POPC   D2A74949  10.193  18.983  15.566  0.0231 -0.3087  0.0176
35747POPC   C3A74950   9.970  19.056  15.139 -0.1298 -0.1696 -0.1104
35747POPC   C4A74951   9.611  18.955  14.870  0.1394 -0.1063  0.1354
35747POPC   C1B74952   9.671  19.281  15.907 -0.1300  0.2132 -0.0570
35747POPC   C2B74953   9.565  18.827  16.022 -0.1812  0.2058  0.4913
35747POPC   C3B74954   9.626  18.430  16.245  0.2570  0.1102 -0.0784
35747POPC   C4B74955   9.768  18.204  16.590 -0.0994  0.1372  0.2270
35748POPC   NC374956   9.373  21.705  13.783 -0.1816  0.0582  0.0062
35748POPC   PO474957   9.296  22.064  13.880  0.2177 -0.2689  0.1298
35748POPC   GL174958   8.926  22.115  13.709 -0.2685  0.0578  0.0938
35748POPC   GL274959   8.967  21.886  13.543  0.1253 -0.0609 -0.0515
35748POPC   C1A74960   8.483  21.991  13.541 -0.1037  0.3997 -0.1075
35748POPC   D2A74961   8.294  21.868  13.159  0.0461 -0.1325 -0.1649
35748POPC   C3A74962   7.860  21.718  13.109  0.2635  0.0131 -0.2577
35748POPC   C4A74963   7.582  21.466  12.806 -0.2006  0.0359 -0.0837
35748POPC   C1B74964   8.857  21.690  13.147 -0.0125 -0.1706 -0.0352
35748POPC   C2B74965   8.475  21.520  12.878 -0.1185  0.0488  0.1494
35748POPC   C3B74966   8.106  21.565  12.572 -0.1720 -0.2027 -0.0359
35748POPC   C4B74967   7.800  21.919  12.450  0.1132 -0.0710 -0.2566
35749POPC   NC374968   3.749  31.684  20.687 -0.0020 -0.3092  0.0090
35749POPC   PO474969   3.899  32.069  20.649 -0.0048  0.2293  0.0900
35749POPC   GL174970   3.817  32.002  20.333 -0.0422 -0.0053  0.1214
35749POPC   GL274971   4.063  31.766  20.287 -0.1493 -0.1928 -0.0483
35749POPC   C1A74972   3.783  32.086  19.837  0.1182  0.2871  0.1698
35749POPC   D2A74973   3.772  31.718  19.535 -0.4586 -0.0444 -0.2541
35749POPC   C3A74974   3.999  31.299  19.541  0.1452  0.2158 -0.2042
35749POPC   C4A74975   4.341  31.050  19.301 -0.0763 -0.0539 -0.2178
35749POPC   C1B74976   4.187  31.640  19.809  0.2017 -0.1737  0.1220
35749POPC   C2B74977   4.549  31.829  19.489 -0.1891 -0.0872 -0.0882
35749POPC   C3B74978   4.839  32.060  19.140 -0.0836  0.0761  0.1945
35749POPC   C4B74979   4.972  32.265  18.829 -0.1655 -0.1669  0.1334
35750POPC   NC374980   9.948  23.169  15.637  0.0805 -0.0732 -0.1603
35750POPC   PO474981  10.266  23.031  15.508  0.1422  0.1904  0.1599
35750POPC   GL174982  10.577  23.378  15.444  0.0311 -0.2524 -0.4660
35750POPC   GL274983  10.407  23.433  15.221  0.1718 -0.1578 -0.1584
35750POPC   C1A74984  10.961  23.496  15.203 -0.1508  0.0388  0.1841
35750POPC   D2A74985  11.015  23.935  15.264  0.2010 -0.1140 -0.0143
35750POPC   C3A74986  11.309  24.124  14.897  0.0398 -0.3709 -0.4400
35750POPC   C4A74987  11.767  24.218  14.760 -0.0603  0.0375  0.2138
35750POPC   C1B74988  10.602  23.837  15.459 -0.1224  0.0819 -0.1837
35750POPC   C2B74989  10.693  24.298  15.563 -0.0500 -0.1877 -0.0194
35750POPC   C3B74990  10.664  24.765  15.738 -0.1165  0.1619  0.0612
35750POPC   C4B74991  10.730  25.253  15.800 -0.2407  0.0904 -0.1004
35751POPC   NC374992  13.771  18.203  19.184 -0.0901 -0.0226  0.0078
35751POPC   PO474993  14.033  18.400  19.424  0.0284  0.1424 -0.2352
35751POPC   GL174994  14.209  18.270  19.014  0.1260 -0.1176  0.1486
35751POPC   GL274995  14.134  18.512  18.910 -0.0313  0.0538 -0.2339
35751POPC   C1A74996  14.474  17.946  18.740 -0.0566 -0.3761 -0.4093
35751POPC   D2A74997  14.618  17.608  18.492  0.1969 -0.0593 -0.3088
35751POPC   C3A74998  14.471  17.564  18.075 -0.1592 -0.2781 -0.3961
35751POPC   C4A74999  14.341  17.556  17.674  0.2402  0.1878 -0.0895
35751POPC   C1B75000  14.006  18.277  18.538  0.2786  0.0828  0.0977
35751POPC   C2B75001  13.792  18.049  18.283  0.0332 -0.3810  0.0079
35751POPC   C3B75002  13.915  17.757  17.926 -0.0330  0.0431 -0.1713
35751POPC   C4B75003  14.025  17.317  17.963 -0.0050  0.0082 -0.2505
35752POPC   NC375004   7.618  20.905  17.709 -0.3805 -0.0425 -0.3822
35752POPC   PO475005   7.903  21.130  17.562  0.4011  0.1347 -0.3227
35752POPC   GL175006   7.626  21.099  17.293  0.1959 -0.0114  0.0299
35752POPC   GL275007   7.470  21.318  17.281 -0.1580 -0.1097 -0.0172
35752POPC   C1A75008   7.589  20.803  16.940 -0.1201 -0.0622  0.5297
35752POPC   D2A75009   7.798  20.720  16.518  0.2983  0.0483 -0.1413
35752POPC   C3A75010   7.562  20.466  16.207 -0.1144 -0.0796 -0.0573
35752POPC   C4A75011   7.388  20.290  15.806 -0.0110 -0.2534 -0.0565
35752POPC   C1B75012   7.249  21.257  16.884 -0.0748  0.1572 -0.0569
35752POPC   C2B75013   6.965  21.060  16.579 -0.1902 -0.0975  0.0817
35752POPC   C3B75014   6.705  20.890  16.194 -0.4810 -0.0919  0.0061
35752POPC   C4B75015   6.319  20.637  16.154 -0.1792 -0.3450 -0.1479
35753POPC   NC375016  10.953  20.992  14.664 -0.0336  0.3279 -0.1679
35753POPC   PO475017  10.902  20.580  14.804 -0.0048  0.1228 -0.0015
35753POPC   GL175018  11.087  20.289  14.997 -0.1877 -0.0413  0.2876
35753POPC   GL275019  11.352  20.441  14.988  0.4984  0.3954  0.0897
35753POPC   C1A75020  11.325  19.919  14.824  0.3620 -0.1641  0.2421
35753POPC   D2A75021  11.625  19.751  14.539  0.0317 -0.0245 -0.0872
35753POPC   C3A75022  11.369  19.738  14.149 -0.1710 -0.2471 -0.4302
35753POPC   C4A75023  11.371  19.726  13.641 -0.0163  0.2828  0.1020
35753POPC   C1B75024  11.585  20.299  14.694 -0.1111 -0.0208  0.4838
35753POPC   C2B75025  11.869  20.205  14.262  0.0366  0.0573 -0.2015
35753POPC   C3B75026  11.868  19.926  13.870  0.0434  0.1261 -0.1119
35753POPC   C4B75027  11.904  19.605  13.565 -0.0013  0.0061 -0.3233
35754POPC   NC375028  15.090  21.625  19.394  0.0368 -0.2365 -0.0126
35754POPC   PO475029  14.817  21.881  19.229 -0.0694 -0.3179  0.0858
35754POPC   GL175030  14.798  21.625  18.982  0.1410 -0.1911 -0.1040
35754POPC   GL275031  15.078  21.595  18.872  0.0853 -0.3701 -0.0495
35754POPC   C1A75032  14.691  21.643  18.525  0.1906  0.2248  0.2311
35754POPC   D2A75033  14.627  21.676  18.086  0.2130  0.3992 -0.1890
35754POPC   C3A75034  14.657  21.246  17.903  0.2512 -0.0611  0.0803
35754POPC   C4A75035  14.525  21.020  17.507 -0.0455  0.1131 -0.0470
35754POPC   C1B75036  15.167  21.850  18.474  0.0808  0.5006  0.6145
35754POPC   C2B75037  15.195  21.792  17.988  0.0096 -0.0067 -0.2278
35754POPC   C3B75038  15.082  21.510  17.678  0.0483  0.1839  0.1071
35754POPC   C4B75039  15.046  21.134  17.497  0.2510  0.0068 -0.2672
35755POPC   NC375040   8.290  21.605  16.754 -0.0764  0.5106  0.1094
35755POPC   PO475041   8.486  21.537  16.386  0.1248 -0.1231 -0.0480
35755POPC   GL175042   8.130  21.745  16.331  0.0504  0.1820 -0.4638
35755POPC   GL275043   8.137  21.743  16.031 -0.0356  0.0605 -0.2636
35755POPC   C1A75044   7.739  21.963  16.248  0.0964  0.3031 -0.0152
35755POPC   D2A75045   7.346  22.172  16.124 -0.0827 -0.1891  0.3061
35755POPC   C3A75046   7.367  22.079  15.610 -0.0372 -0.2231 -0.1086
35755POPC   C4A75047   7.352  22.188  15.128  0.1317 -0.0901  0.1602
35755POPC   C1B75048   7.859  21.624  15.712 -0.0148  0.1293  0.2558
35755POPC   C2B75049   7.390  21.647  15.823  0.0966  0.0277  0.1441
35755POPC   C3B75050   6.953  21.766  15.995 -0.2682 -0.0468  0.1299
35755POPC   C4B75051   6.901  21.914  16.412  0.0235  0.3159  0.1100
35756POPC   NC375052  15.004  16.654  19.852 -0.1294 -0.1926 -0.0280
35756POPC   PO475053  15.344  16.887  19.813 -0.0934  0.1667  0.1839
35756POPC   GL175054  15.407  16.750  19.467  0.1818  0.0184  0.1342
35756POPC   GL275055  15.640  16.808  19.316 -0.0806 -0.0491  0.0396
35756POPC   C1A75056  15.021  16.755  19.243  0.1029 -0.0371  0.0017
35756POPC   D2A75057  14.574  16.708  19.136 -0.1786  0.3647  0.0633
35756POPC   C3A75058  14.583  16.467  18.706  0.0786 -0.2067 -0.0355
35756POPC   C4A75059  14.755  16.368  18.251  0.0764  0.0426  0.4130
35756POPC   C1B75060  15.357  16.991  18.979  0.0620  0.1237 -0.1401
35756POPC   C2B75061  15.190  17.075  18.566  0.2495  0.4152  0.2413
35756POPC   C3B75062  15.148  17.350  18.184  0.1334  0.0188  0.0728
35756POPC   C4B75063  14.923  17.751  17.978  0.0801 -0.0598  0.3849
35757POPC   NC375064  15.342  28.645  20.849 -0.2382 -0.2649 -0.1566
35757POPC   PO475065  15.351  28.945  20.609 -0.1104 -0.0026  0.1565
35757POPC   GL175066  15.538  29.080  20.247  0.2857 -0.3358  0.0567
35757POPC   GL275067  15.380  29.142  20.100  0.1110  0.1617  0.0977
35757POPC   C1A75068  15.623  29.555  20.085 -0.3027 -0.1077 -0.0797
35757POPC   D2A75069  15.717  29.749  19.657  0.0146  0.1917  0.1910
35757POPC   C3A75070  16.174  29.773  19.611  0.1367 -0.0481 -0.2435
35757POPC   C4A75071  16.614  29.786  19.760 -0.2372  0.3411  0.0252
35757POPC   C1B75072  15.293  29.458  19.722  0.0548 -0.1830 -0.1677
35757POPC   C2B75073  15.423  29.630  19.252  0.3687  0.0614  0.1524
35757POPC   C3B75074  15.904  29.621  19.151 -0.0446  0.1154 -0.0341
35757POPC   C4B75075  16.350  29.614  19.107  0.1822 -0.2031  0.4679
35758POPC   NC375076  11.078  29.447  20.806  0.0694 -0.1455  0.1551
35758POPC   PO475077  11.047  29.836  20.698 -0.3943  0.1001  0.1709
35758POPC   GL175078  11.068  29.795  20.269 -0.0599 -0.0503 -0.0647
35758POPC   GL275079  10.767  29.837  20.254  0.1843  0.1192  0.3285
35758POPC   C1A75080  11.350  29.516  20.046  0.0853  0.2149 -0.2482
35758POPC   D2A75081  11.311  29.424  19.625 -0.1221  0.1810  0.1531
35758POPC   C3A75082  11.461  28.966  19.569  0.1132  0.0974  0.1344
35758POPC   C4A75083  11.942  28.848  19.681  0.1124 -0.3930  0.0143
35758POPC   C1B75084  10.823  30.015  19.882 -0.1644  0.2139  0.2004
35758POPC   C2B75085  10.776  30.087  19.432  0.2062 -0.0941  0.0983
35758POPC   C3B75086  10.725  29.965  19.002 -0.0462 -0.1993 -0.1127
35758POPC   C4B75087  10.573  29.789  18.604  0.2289  0.0218 -0.1899
35759POPC   NC375088  12.113  18.871  18.795  0.2599 -0.2136 -0.1784
35759POPC   PO475089  12.210  19.012  18.447  0.2957  0.2030 -0.0895
35759POPC   GL175090  12.117  18.853  18.150  0.0791 -0.2093 -0.1427
35759POPC   GL275091  12.427  18.725  18.097  0.3366  0.0340 -0.0300
35759POPC   C1A75092  11.940  18.413  18.036  0.0284 -0.1135 -0.0207
35759POPC   D2A75093  12.097  18.015  17.815 -0.2947  0.0594  0.1445
35759POPC   C3A75094  11.862  17.627  17.672 -0.1807 -0.2039 -0.0960
35759POPC   C4A75095  11.744  17.472  17.309  0.1150 -0.0398  0.2226
35759POPC   C1B75096  12.557  18.902  17.691  0.0676 -0.3732 -0.0405
35759POPC   C2B75097  12.711  19.235  17.363 -0.1204 -0.2064  0.0660
35759POPC   C3B75098  12.834  19.679  17.189 -0.2556 -0.1274 -0.2850
35759POPC   C4B75099  13.153  19.986  17.092  0.0739  0.0582  0.3597
35760POPC   NC375100   4.443  22.043  19.038  0.1700 -0.2132 -0.1369
35760POPC   PO475101   4.590  22.355  18.775  0.4004 -0.0848  0.1328
35760POPC   GL175102   4.461  22.320  18.414 -0.2570  0.1187  0.0067
35760POPC   GL275103   4.715  22.199  18.318  0.2038 -0.1565 -0.1537
35760POPC   C1A75104   4.195  22.479  18.045 -0.1469 -0.2063  0.1321
35760POPC   D2A75105   3.786  22.428  17.750 -0.0395  0.4134 -0.0371
35760POPC   C3A75106   4.084  22.433  17.398 -0.0901  0.0248 -0.2328
35760POPC   C4A75107   4.349  22.114  17.070  0.0615  0.1027  0.2379
35760POPC   C1B75108   4.627  22.019  17.895  0.0789  0.0523 -0.2180
35760POPC   C2B75109   4.715  21.975  17.425  0.0334 -0.0315  0.0712
35760POPC   C3B75110   5.045  21.903  17.116  0.1882 -0.2628  0.1148
35760POPC   C4B75111   5.438  22.092  16.912  0.0208  0.2206  0.1335
35761POPC   NC375112   3.482  30.982  20.244 -0.0765 -0.2686  0.0726
35761POPC   PO475113   3.246  30.853  20.531  0.1335  0.2455  0.0937
35761POPC   GL175114   3.231  30.706  20.069  0.0569  0.1921  0.2388
35761POPC   GL275115   2.937  30.732  20.057 -0.0213  0.1430 -0.1390
35761POPC   C1A75116   3.117  30.720  19.620 -0.0442 -0.0514  0.3152
35761POPC   D2A75117   2.992  30.433  19.298 -0.1353  0.3172 -0.0510
35761POPC   C3A75118   3.174  30.308  18.897  0.2094 -0.0792  0.1063
35761POPC   C4A75119   3.362  29.881  18.827  0.1860  0.2573 -0.1528
35761POPC   C1B75120   2.606  30.573  19.801 -0.0921  0.0368  0.2676
35761POPC   C2B75121   2.328  30.448  19.434  0.0669  0.2312  0.1410
35761POPC   C3B75122   1.926  30.634  19.284  0.0188 -0.2376 -0.0795
35761POPC   C4B75123   1.709  30.369  18.991 -0.1979  0.3283  0.1568
35762POPC   NC375124   2.178  30.204  21.063 -0.3121  0.0107  0.1216
35762POPC   PO475125   2.240  29.938  20.718 -0.0242 -0.1092  0.2910
35762POPC   GL175126   2.300  29.808  20.279  0.0911  0.1968 -0.1854
35762POPC   GL275127   2.556  29.829  20.294 -0.2593  0.1923 -0.1829
35762POPC   C1A75128   2.343  29.869  19.735 -0.2622  0.0348 -0.3791
35762POPC   D2A75129   2.790  29.946  19.556  0.0774 -0.1459  0.2697
35762POPC   C3A75130   2.890  29.869  19.118 -0.0007 -0.0596 -0.3162
35762POPC   C4A75131   2.737  29.985  18.679  0.1766  0.3339  0.0147
35762POPC   C1B75132   2.622  29.506  19.983  0.0540 -0.2089 -0.1853
35762POPC   C2B75133   2.805  29.404  19.589 -0.0148  0.2705 -0.3301
35762POPC   C3B75134   3.024  29.375  19.175  0.1159  0.0936 -0.3607
35762POPC   C4B75135   3.077  29.514  18.708 -0.3328 -0.1632  0.1318
35763POPC   NC375136  13.133  23.493  18.864  0.3437  0.0710  0.0674
35763POPC   PO475137  12.855  23.513  18.573  0.0183  0.3242  0.0722
35763POPC   GL175138  12.924  23.771  18.240 -0.3704  0.1747 -0.1669
35763POPC   GL275139  12.668  23.894  18.082  0.0580 -0.2833  0.3011
35763POPC   C1A75140  13.190  23.999  17.867 -0.1306  0.4044  0.1775
35763POPC   D2A75141  13.535  23.914  17.568 -0.1060 -0.1549  0.1110
35763POPC   C3A75142  13.945  23.652  17.457  0.3778 -0.3114 -0.0719
35763POPC   C4A75143  14.388  23.504  17.300 -0.0126 -0.0031  0.1569
35763POPC   C1B75144  12.837  24.314  17.934 -0.0776  0.3665  0.0232
35763POPC   C2B75145  12.939  24.540  17.543 -0.1716  0.0224 -0.3301
35763POPC   C3B75146  12.871  24.954  17.328 -0.0860 -0.1983  0.0106
35763POPC   C4B75147  12.619  25.370  17.351  0.0987  0.0567 -0.0713
35764POPC   NC375148   9.643  20.522  15.673 -0.0513  0.2089  0.3618
35764POPC   PO475149   9.629  20.545  15.275 -0.0558 -0.1925  0.1238
35764POPC   GL175150   9.343  20.253  15.118 -0.0308 -0.2109 -0.1957
35764POPC   GL275151   9.158  20.229  15.355  0.1765 -0.2348 -0.0865
35764POPC   C1A75152   9.387  19.928  14.770 -0.1075 -0.1443 -0.0031
35764POPC   D2A75153   8.997  19.865  14.508  0.1150 -0.2126 -0.1632
35764POPC   C3A75154   9.170  19.712  14.100  0.1267 -0.1131 -0.2780
35764POPC   C4A75155   9.438  19.338  14.118  0.0019  0.0980 -0.2725
35764POPC   C1B75156   8.923  19.990  15.108  0.0933  0.3102  0.0754
35764POPC   C2B75157   8.615  19.693  15.094  0.0082  0.1644 -0.0218
35764POPC   C3B75158   8.526  19.277  14.880 -0.0950  0.2634  0.0684
35764POPC   C4B75159   8.179  18.956  15.029 -0.1834  0.1546 -0.2664
35765POPC   NC375160  12.046  25.826  19.473 -0.1765  0.0177  0.1910
35765POPC   PO475161  12.385  25.646  19.660  0.1255  0.2077  0.1530
35765POPC   GL175162  12.665  25.582  19.374  0.4160 -0.2699 -0.3151
35765POPC   GL275163  12.429  25.565  19.171 -0.0962 -0.0411 -0.2424
35765POPC   C1A75164  12.884  25.956  19.169 -0.2400  0.0114 -0.0040
35765POPC   D2A75165  12.862  26.228  18.769  0.0349 -0.0554  0.1661
35765POPC   C3A75166  13.182  26.133  18.413 -0.1324  0.1864  0.1015
35765POPC   C4A75167  13.447  25.837  18.103 -0.0937 -0.1891 -0.0034
35765POPC   C1B75168  12.412  25.867  18.887 -0.1416 -0.2227  0.0370
35765POPC   C2B75169  12.499  26.085  18.476 -0.0479 -0.4612  0.0060
35765POPC   C3B75170  12.551  26.286  18.064 -0.0248  0.1114 -0.2560
35765POPC   C4B75171  12.473  26.302  17.605 -0.2504  0.2333  0.0889
35766POPC   NC375172  12.847  28.752  20.970  0.3848 -0.1093  0.1010
35766POPC   PO475173  12.524  28.847  20.735 -0.0695  0.0472  0.0177
35766POPC   GL175174  12.317  28.741  20.478 -0.1409 -0.1315  0.0450
35766POPC   GL275175  12.482  28.584  20.263 -0.2201  0.0834 -0.2314
35766POPC   C1A75176  11.983  28.636  20.129  0.0347  0.1688 -0.0999
35766POPC   D2A75177  11.578  28.581  20.001 -0.2816 -0.1192  0.0816
35766POPC   C3A75178  11.704  28.185  19.881 -0.3257 -0.0709  0.1582
35766POPC   C4A75179  11.839  28.171  19.431  0.0001 -0.1111 -0.1079
35766POPC   C1B75180  12.386  28.683  19.808 -0.2184 -0.2346  0.3669
35766POPC   C2B75181  12.286  28.539  19.367  0.2132  0.1609  0.0120
35766POPC   C3B75182  12.597  28.480  18.986  0.0899 -0.1246  0.0109
35766POPC   C4B75183  13.027  28.471  18.839  0.0099  0.2324 -0.2240
35767POPC   NC375184  12.648  23.044  18.667  0.2472  0.0142  0.1515
35767POPC   PO475185  12.393  22.800  18.410  0.1243  0.0060 -0.2348
35767POPC   GL175186  12.487  22.968  18.010 -0.0845  0.1969  0.3105
35767POPC   GL275187  12.469  22.757  17.850  0.3553 -0.0612 -0.3198
35767POPC   C1A75188  12.627  23.187  17.656  0.3168  0.1201  0.1634
35767POPC   D2A75189  12.636  23.323  17.238  0.2787  0.0152  0.0308
35767POPC   C3A75190  13.037  23.668  17.132  0.3115 -0.1862  0.0226
35767POPC   C4A75191  13.178  23.760  16.713  0.3102  0.1077  0.1178
35767POPC   C1B75192  12.593  22.736  17.360  0.2858 -0.1124  0.1825
35767POPC   C2B75193  12.845  22.890  17.043 -0.1963 -0.0295  0.0288
35767POPC   C3B75194  13.077  23.168  16.792  0.2335  0.2012  0.2735
35767POPC   C4B75195  13.142  23.367  16.377 -0.2664 -0.0132 -0.2263
35768POPC   NC375196  12.697  25.193  19.742  0.3020  0.0674  0.1643
35768POPC   PO475197  13.088  25.243  19.685 -0.0648  0.0522 -0.0684
35768POPC   GL175198  13.092  25.189  19.271  0.1604 -0.2299  0.1717
35768POPC   GL275199  12.781  25.217  19.196  0.1384  0.1344 -0.2960
35768POPC   C1A75200  13.088  25.472  18.881 -0.0131 -0.1930  0.2275
35768POPC   D2A75201  12.858  25.727  18.641 -0.0294 -0.1581 -0.0547
35768POPC   C3A75202  12.881  25.726  18.172 -0.0056  0.1714 -0.2481
35768POPC   C4A75203  13.134  25.611  17.796  0.2520  0.1126 -0.1006
35768POPC   C1B75204  12.498  25.291  18.801  0.0368  0.1077  0.0045
35768POPC   C2B75205  12.420  25.557  18.448 -0.0157  0.3085 -0.1493
35768POPC   C3B75206  12.331  25.830  18.085  0.1964  0.2396 -0.0659
35768POPC   C4B75207  12.434  25.846  17.627 -0.3163  0.2047  0.2883
35769POPC   NC375208  11.438  19.216  18.140  0.0415  0.1462 -0.0450
35769POPC   PO475209  11.314  18.874  18.040 -0.0110  0.0209 -0.0690
35769POPC   GL175210  11.338  18.646  17.680 -0.2616  0.2510  0.0557
35769POPC   GL275211  11.069  18.786  17.505 -0.6309 -0.2558  0.1331
35769POPC   C1A75212  11.495  18.467  17.294  0.2023  0.2454 -0.1544
35769POPC   D2A75213  11.638  18.449  16.844 -0.0826  0.0122 -0.1935
35769POPC   C3A75214  12.058  18.373  16.776  0.1202  0.3215 -0.2555
35769POPC   C4A75215  12.375  18.080  16.924  0.0350  0.1084 -0.1512
35769POPC   C1B75216  11.052  18.461  17.161 -0.0727 -0.2510  0.0432
35769POPC   C2B75217  11.013  18.092  16.931  0.1401 -0.2100 -0.1275
35769POPC   C3B75218  10.880  17.812  16.604  0.1040  0.0073 -0.1448
35769POPC   C4B75219  11.070  17.817  16.179  0.1735 -0.1609  0.0762
35770POPC   NC375220   0.215  28.208  21.049  0.1271 -0.0511 -0.2187
35770POPC   PO475221   0.040  28.076  20.717  0.3651 -0.1373 -0.2837
35770POPC   GL175222   0.047  28.127  20.280 -0.3935 -0.4310 -0.1860
35770POPC   GL275223   0.356  28.308  20.183 -0.0945  0.6257 -0.0166
35770POPC   C1A75224  -0.058  28.468  19.960 -0.1582 -0.0192 -0.4255
35770POPC   D2A75225  -0.121  28.841  19.863 -0.1218 -0.0020 -0.2115
35770POPC   C3A75226  -0.538  29.086  19.826 -0.1268 -0.0889 -0.0109
35770POPC   C4A75227  -0.772  29.255  19.450  0.1011 -0.0319  0.3217
35770POPC   C1B75228   0.651  28.279  19.884  0.0863 -0.2843 -0.0019
35770POPC   C2B75229   0.843  28.025  19.566 -0.1036 -0.1695 -0.0842
35770POPC   C3B75230   0.980  27.930  19.157  0.3595  0.3921 -0.1769
35770POPC   C4B75231   1.273  27.973  18.805 -0.0803 -0.2214 -0.0747
35771POPC   NC375232   7.452  18.596  19.182  0.1569  0.0717 -0.1837
35771POPC   PO475233   7.179  18.356  19.075 -0.3038  0.4352 -0.4293
35771POPC   GL175234   7.047  18.291  18.769 -0.2071 -0.0006 -0.0334
35771POPC   GL275235   6.802  18.145  18.736 -0.0588  0.2073 -0.0490
35771POPC   C1A75236   7.164  18.083  18.391  0.0257 -0.0986  0.0093
35771POPC   D2A75237   7.073  17.693  18.206 -0.0381 -0.0534  0.0692
35771POPC   C3A75238   7.426  17.415  18.070  0.0289 -0.1509  0.0521
35771POPC   C4A75239   7.530  17.118  17.731 -0.0537 -0.0361  0.0232
35771POPC   C1B75240   6.667  17.801  18.419  0.0918 -0.1582 -0.0162
35771POPC   C2B75241   6.630  17.510  18.019  0.2432 -0.0635  0.0543
35771POPC   C3B75242   6.999  17.426  17.693  0.0401 -0.1944 -0.3012
35771POPC   C4B75243   7.268  17.614  17.438  0.0900  0.3105 -0.3167
35772POPC   NC375244  12.994  18.843  18.837  0.0307 -0.4252  0.0045
35772POPC   PO475245  13.172  19.068  18.578  0.0426  0.3054  0.3390
35772POPC   GL175246  13.549  19.099  18.375  0.0032 -0.0723  0.3074
35772POPC   GL275247  13.510  19.376  18.308  0.3158 -0.1908 -0.0883
35772POPC   C1A75248  13.802  18.928  18.016  0.3295 -0.2371 -0.1308
35772POPC   D2A75249  13.856  18.658  17.619 -0.1729 -0.2738 -0.2055
35772POPC   C3A75250  14.166  18.373  17.556 -0.0334 -0.3879  0.0790
35772POPC   C4A75251  14.263  17.990  17.262 -0.2135 -0.1292  0.0940
35772POPC   C1B75252  13.471  19.326  17.877  0.0364 -0.1299 -0.5760
35772POPC   C2B75253  13.564  19.094  17.465 -0.1674  0.0443 -0.2857
35772POPC   C3B75254  13.709  18.862  17.129 -0.0067 -0.0900  0.1098
35772POPC   C4B75255  14.194  18.754  17.132 -0.2226 -0.0713 -0.1726
35773POPC   NC375256  11.289  21.772  13.495  0.0915 -0.0216  0.0100
35773POPC   PO475257  11.131  21.573  13.796  0.1957 -0.1291 -0.2520
35773POPC   GL175258  11.404  21.292  13.598 -0.0399 -0.1896 -0.1931
35773POPC   GL275259  11.369  21.343  13.278  0.0764  0.2928  0.1453
35773POPC   C1A75260  11.891  21.290  13.417  0.0898  0.0306  0.0338
35773POPC   D2A75261  12.326  21.274  13.284 -0.0345 -0.2021 -0.0946
35773POPC   C3A75262  12.506  20.844  13.388 -0.1985  0.1258  0.0786
35773POPC   C4A75263  12.899  20.625  13.422  0.1088 -0.3166 -0.4890
35773POPC   C1B75264  11.654  21.285  12.925 -0.3007 -0.0451 -0.2647
35773POPC   C2B75265  12.084  21.382  12.794  0.2050 -0.0330  0.0473
35773POPC   C3B75266  12.388  21.235  12.474  0.0576 -0.2568  0.1108
35773POPC   C4B75267  12.406  20.834  12.245 -0.3439  0.3031  0.0196
35774POPC   NC375268   7.391  22.529  17.804  0.0091 -0.0919 -0.0809
35774POPC   PO475269   7.650  22.556  17.552 -0.0882 -0.1461  0.1425
35774POPC   GL175270   7.423  22.401  17.210  0.1470  0.2362  0.1080
35774POPC   GL275271   7.249  22.582  17.266  0.1221 -0.0205 -0.1902
35774POPC   C1A75272   7.039  22.157  17.084  0.0276 -0.2034 -0.2077
35774POPC   D2A75273   6.671  21.929  17.147  0.0816  0.0644  0.0495
35774POPC   C3A75274   6.423  22.022  16.729 -0.1343 -0.2945  0.0891
35774POPC   C4A75275   6.373  21.946  16.286 -0.0499 -0.1325 -0.0860
35774POPC   C1B75276   6.821  22.630  17.186  0.2015 -0.4925 -0.0846
35774POPC   C2B75277   6.477  22.553  16.835  0.0336 -0.2491  0.1575
35774POPC   C3B75278   6.483  22.866  16.455 -0.0353 -0.0344  0.0528
35774POPC   C4B75279   6.495  23.203  16.160  0.2509 -0.1391  0.1816
35775POPC   NC375280   0.405  17.844  20.015  0.0889  0.0736  0.0607
35775POPC   PO475281   0.101  17.741  19.823 -0.0774  0.1773 -0.0473
35775POPC   GL175282   0.124  17.543  19.521 -0.1105 -0.4431 -0.0018
35775POPC   GL275283   0.480  17.680  19.490  0.3072 -0.0761 -0.2221
35775POPC   C1A75284  -0.207  17.386  19.214 -0.0550 -0.2741  0.2178
35775POPC   D2A75285  -0.213  17.585  18.796 -0.1124 -0.1086 -0.0856
35775POPC   C3A75286  -0.162  17.256  18.477  0.3505  0.0183  0.3041
35775POPC   C4A75287  -0.354  16.849  18.359 -0.0640 -0.1606  0.0258
35775POPC   C1B75288   0.647  17.592  19.145  0.0797 -0.3636  0.2240
35775POPC   C2B75289   0.733  17.422  18.751  0.1118  0.5837  0.0848
35775POPC   C3B75290   0.719  17.564  18.344  0.1404  0.0834  0.1449
35775POPC   C4B75291   0.744  17.653  17.862 -0.0784  0.3048  0.0253
35776POPC   NC375292  13.785  25.995  20.051 -0.0497  0.1493  0.0537
35776POPC   PO475293  13.995  26.313  20.099  0.1758 -0.0401  0.2367
35776POPC   GL175294  14.154  26.324  19.736  0.1488 -0.4019 -0.2299
35776POPC   GL275295  13.932  26.309  19.555 -0.0890 -0.0597  0.1450
35776POPC   C1A75296  14.279  25.954  19.540  0.0321 -0.2355 -0.1042
35776POPC   D2A75297  14.139  25.704  19.217 -0.3869  0.0973  0.0137
35776POPC   C3A75298  14.496  25.596  18.883  0.0149  0.0252 -0.1957
35776POPC   C4A75299  14.807  25.600  18.614  0.3866  0.0318  0.0689
35776POPC   C1B75300  14.247  26.344  19.251 -0.0466 -0.1515  0.0090
35776POPC   C2B75301  14.501  26.228  18.887  0.1122  0.2255 -0.0068
35776POPC   C3B75302  14.647  26.044  18.534  0.1074  0.0661 -0.0213
35776POPC   C4B75303  14.406  25.814  18.301 -0.1036 -0.0247  0.1335
35777POPC   NC375304  10.806  20.151  16.889  0.1908 -0.0328 -0.0695
35777POPC   PO475305  10.604  19.887  17.044 -0.3926 -0.4375 -0.5252
35777POPC   GL175306  10.728  19.708  16.772  0.0182  0.4093 -0.1591
35777POPC   GL275307  10.712  19.411  16.864 -0.1157  0.0405  0.1732
35777POPC   C1A75308  11.028  19.513  16.450  0.0188  0.1403 -0.2303
35777POPC   D2A75309  11.125  19.506  16.013  0.0956 -0.4777  0.0973
35777POPC   C3A75310  11.158  19.251  15.650 -0.0616  0.0070 -0.2414
35777POPC   C4A75311  11.238  19.046  15.221  0.1242  0.4021 -0.2114
35777POPC   C1B75312  10.775  18.978  16.652  0.0243  0.0532  0.2548
35777POPC   C2B75313  11.034  18.823  16.299  0.2561  0.1113  0.2113
35777POPC   C3B75314  11.235  18.788  15.900 -0.3671  0.3799 -0.1046
35777POPC   C4B75315  11.100  18.611  15.542 -0.0809  0.0058 -0.0979
35778POPC   NC375316   7.442  24.507  18.571 -0.2315  0.0226 -0.0561
35778POPC   PO475317   7.481  24.287  18.902  0.1863 -0.0231 -0.0722
35778POPC   GL175318   7.088  24.275  18.672  0.2135 -0.3057  0.2317
35778POPC   GL275319   6.953  24.199  18.401  0.1664  0.0479  0.0450
35778POPC   C1A75320   6.948  24.729  18.526 -0.1530  0.0060 -0.1818
35778POPC   D2A75321   6.840  25.122  18.380 -0.3901  0.3051 -0.1341
35778POPC   C3A75322   6.639  24.966  18.039  0.0264  0.0913  0.0267
35778POPC   C4A75323   6.368  24.851  17.622 -0.2530  0.2632 -0.2279
35778POPC   C1B75324   6.913  24.524  18.056  0.0548  0.3516  0.1153
35778POPC   C2B75325   6.666  24.324  17.768  0.0558 -0.1013 -0.2815
35778POPC   C3B75326   6.366  24.399  17.455  0.0698 -0.0775 -0.3663
35778POPC   C4B75327   6.205  24.265  17.042  0.1508  0.1706  0.0337
35779POPC   NC375328  10.172  23.062  14.436  0.1992 -0.3012 -0.4081
35779POPC   PO475329   9.990  23.250  14.171  0.3299 -0.2382 -0.1073
35779POPC   GL175330  10.029  23.719  14.204 -0.1944 -0.0896  0.1750
35779POPC   GL275331   9.815  23.784  14.000 -0.0899  0.0360 -0.1329
35779POPC   C1A75332  10.236  24.095  13.984 -0.0636  0.0316 -0.1729
35779POPC   D2A75333  10.605  24.108  13.711 -0.2852  0.2079  0.3773
35779POPC   C3A75334  10.510  24.225  13.222  0.2549 -0.2434 -0.1530
35779POPC   C4A75335  10.455  24.622  13.063  0.0694  0.0135  0.1953
35779POPC   C1B75336   9.893  24.111  14.348  0.2907 -0.0068 -0.0828
35779POPC   C2B75337  10.232  24.319  14.680 -0.2477  0.1412  0.1527
35779POPC   C3B75338  10.555  24.648  14.704 -0.2927 -0.0445 -0.0179
35779POPC   C4B75339  10.549  25.024  14.440  0.2386 -0.0913 -0.0675
35780POPC   NC375340   0.039  18.220  20.011 -0.0999 -0.1513  0.0565
35780POPC   PO475341   0.389  18.373  19.930 -0.1183  0.1941 -0.0233
35780POPC   GL175342   0.243  18.295  19.593 -0.2595  0.1561 -0.0831
35780POPC   GL275343   0.152  18.021  19.430  0.2619 -0.1197  0.0708
35780POPC   C1A75344   0.447  18.602  19.260  0.0592  0.1539  0.2565
35780POPC   D2A75345   0.514  18.643  18.807 -0.1108 -0.0450 -0.0693
35780POPC   C3A75346   0.271  18.287  18.656  0.0568  0.2879  0.0655
35780POPC   C4A75347   0.411  17.994  18.326  0.0876  0.1120  0.2218
35780POPC   C1B75348   0.186  17.807  19.044  0.0092  0.0349 -0.1607
35780POPC   C2B75349   0.272  17.651  18.610  0.3222  0.1886  0.2787
35780POPC   C3B75350   0.194  17.507  18.161 -0.1677 -0.1074 -0.0715
35780POPC   C4B75351   0.395  17.307  17.792 -0.0276  0.0327 -0.0435
35781POPC   NC375352   7.326  24.995  18.843 -0.2553 -0.0399  0.0170
35781POPC   PO475353   7.657  25.234  18.853  0.0672 -0.0764 -0.0499
35781POPC   GL175354   7.450  25.465  18.621 -0.2911 -0.3799  0.1414
35781POPC   GL275355   7.367  25.264  18.391 -0.1868  0.1585 -0.1340
35781POPC   C1A75356   7.282  25.827  18.379 -0.0328 -0.0781 -0.2065
35781POPC   D2A75357   7.265  26.090  18.028 -0.1269  0.0037 -0.1085
35781POPC   C3A75358   7.760  26.184  18.064  0.3937 -0.1224 -0.2123
35781POPC   C4A75359   8.021  26.549  17.961  0.2259 -0.1735 -0.3073
35781POPC   C1B75360   7.264  25.486  18.031  0.1926  0.0954 -0.1011
35781POPC   C2B75361   6.904  25.406  17.733  0.0404  0.0027 -0.1818
35781POPC   C3B75362   6.603  25.167  17.428  0.3016  0.1555  0.1122
35781POPC   C4B75363   6.463  25.293  16.992 -0.1644  0.2248 -0.1471
35782POPC   NC375364   0.879  23.794  20.526 -0.0183 -0.0445  0.1917
35782POPC   PO475365   0.693  23.758  20.176 -0.1105 -0.3462 -0.1772
35782POPC   GL175366   0.896  23.605  19.930 -0.1002 -0.1710  0.1042
35782POPC   GL275367   0.723  23.408  19.762 -0.0983  0.1408  0.0945
35782POPC   C1A75368   0.919  23.796  19.486  0.1017  0.2157 -0.2664
35782POPC   D2A75369   0.911  23.757  19.014 -0.1049 -0.1776 -0.0627
35782POPC   C3A75370   1.140  23.963  18.624 -0.0219 -0.2564 -0.3521
35782POPC   C4A75371   1.363  23.765  18.289  0.0733 -0.1736  0.0743
35782POPC   C1B75372   0.496  23.452  19.334 -0.3795 -0.2436 -0.0720
35782POPC   C2B75373   0.610  23.379  18.926 -0.3979 -0.2242  0.3405
35782POPC   C3B75374   0.741  23.023  18.686  0.0292  0.1977  0.3194
35782POPC   C4B75375   0.855  22.961  18.263  0.0183 -0.4406  0.1601
35783POPC   NC375376  11.601  28.776  20.603 -0.0969  0.0895 -0.0094
35783POPC   PO475377  11.497  29.144  20.717 -0.3996 -0.0616  0.3704
35783POPC   GL175378  11.428  29.124  20.301 -0.0581  0.0883 -0.0597
35783POPC   GL275379  11.652  29.150  20.186 -0.0580 -0.1236 -0.1581
35783POPC   C1A75380  11.193  28.970  19.926  0.0573  0.0543  0.0137
35783POPC   D2A75381  10.915  28.975  19.596 -0.5854 -0.2026  0.0705
35783POPC   C3A75382  11.033  29.083  19.173 -0.2777 -0.1311  0.0375
35783POPC   C4A75383  10.797  29.195  18.806  0.0013 -0.2858  0.0705
35783POPC   C1B75384  11.825  29.401  19.835  0.2118 -0.3056  0.2713
35783POPC   C2B75385  12.188  29.517  19.604  0.0665  0.2440  0.3828
35783POPC   C3B75386  12.582  29.506  19.328  0.1061  0.0357 -0.2571
35783POPC   C4B75387  12.764  29.449  18.907  0.1252 -0.0365  0.1069
35784POPC   NC375388   4.626  31.909  21.030 -0.0018  0.1262 -0.0841
35784POPC   PO475389   4.721  31.914  20.647  0.1031 -0.1730  0.1650
35784POPC   GL175390   4.523  31.773  20.344  0.1684 -0.2225 -0.0245
35784POPC   GL275391   4.650  31.762  20.169  0.1419  0.1126 -0.3160
35784POPC   C1A75392   4.424  31.338  20.232  0.2191  0.1200  0.0744
35784POPC   D2A75393   4.376  30.975  19.918  0.2820 -0.2817  0.1686
35784POPC   C3A75394   4.510  30.576  20.125 -0.1889  0.1388 -0.3532
35784POPC   C4A75395   4.474  30.164  20.148  0.0844  0.0474  0.0369
35784POPC   C1B75396   4.741  31.483  19.824  0.2543 -0.5868  0.0720
35784POPC   C2B75397   4.770  31.410  19.369 -0.0274 -0.0405 -0.1343
35784POPC   C3B75398   4.621  31.241  18.926 -0.0881  0.0988 -0.1487
35784POPC   C4B75399   4.281  31.381  18.555  0.1849 -0.2320  0.0378
35785POPC   NC375400   7.415  30.580  20.380  0.1363 -0.0522  0.1367
35785POPC   PO475401   7.828  30.656  20.453  0.0559  0.0967  0.0142
35785POPC   GL175402   8.054  30.655  20.118 -0.0543 -0.4577  0.1923
35785POPC   GL275403   7.935  30.899  20.046 -0.1863  0.2344 -0.1275
35785POPC   C1A75404   8.025  30.397  19.685 -0.0793 -0.1067 -0.5101
35785POPC   D2A75405   8.052  30.372  19.230 -0.1507 -0.2598 -0.0545
35785POPC   C3A75406   8.114  30.341  18.790 -0.2183  0.1197 -0.2464
35785POPC   C4A75407   7.932  30.489  18.412 -0.0582  0.0106  0.1205
35785POPC   C1B75408   7.623  30.647  19.819 -0.0665  0.0123  0.0129
35785POPC   C2B75409   7.571  30.496  19.379  0.1562 -0.0260 -0.0530
35785POPC   C3B75410   7.663  30.558  18.915  0.1706  0.0003  0.0663
35785POPC   C4B75411   7.626  30.230  18.630 -0.0210  0.0390  0.0551
35786POPC   NC375412   1.004  28.290  20.799 -0.1248 -0.1689 -0.0962
35786POPC   PO475413   1.382  28.140  20.785 -0.0114  0.1431  0.0995
35786POPC   GL175414   1.222  28.003  20.431  0.3000 -0.1911 -0.1200
35786POPC   GL275415   1.268  27.717  20.518  0.1173 -0.2031  0.1010
35786POPC   C1A75416   1.142  28.020  20.000  0.1694  0.2487 -0.2471
35786POPC   D2A75417   1.358  27.990  19.606  0.3376 -0.3392 -0.1238
35786POPC   C3A75418   1.347  28.427  19.353  0.4840  0.0734 -0.1203
35786POPC   C4A75419   1.398  28.533  18.926  0.2088 -0.0618  0.2532
35786POPC   C1B75420   1.469  27.723  20.118  0.3870  0.0907  0.2029
35786POPC   C2B75421   1.611  27.593  19.596  0.3632 -0.3942 -0.0113
35786POPC   C3B75422   1.448  27.578  19.144  0.0024 -0.0497 -0.0312
35786POPC   C4B75423   1.586  27.636  18.670  0.0744  0.2057  0.1144
35787POPC   NC375424   6.674  25.312  18.920  0.1219 -0.0752  0.1308
35787POPC   PO475425   7.047  25.412  18.851 -0.0509 -0.1883 -0.1088
35787POPC   GL175426   6.861  25.609  18.462 -0.1104 -0.0871 -0.2401
35787POPC   GL275427   6.862  25.884  18.582 -0.0306 -0.0057  0.0142
35787POPC   C1A75428   6.868  25.791  18.036  0.0222 -0.3105 -0.0181
35787POPC   D2A75429   6.993  25.891  17.590 -0.1838  0.0076 -0.1349
35787POPC   C3A75430   6.970  26.278  17.305 -0.1713  0.0542  0.0282
35787POPC   C4A75431   6.901  26.806  17.307  0.0087 -0.0818  0.2819
35787POPC   C1B75432   6.878  26.238  18.256  0.3603 -0.0722 -0.0440
35787POPC   C2B75433   6.863  26.491  17.913 -0.1228 -0.0786 -0.1103
35787POPC   C3B75434   6.637  26.837  17.767 -0.2252  0.1665  0.2014
35787POPC   C4B75435   6.677  27.306  17.659 -0.1384 -0.0370  0.3570
35788POPC   NC375436  11.037  20.724  15.356  0.2475  0.0313  0.2093
35788POPC   PO475437  11.219  20.922  15.059 -0.0902  0.1683 -0.1009
35788POPC   GL175438  11.583  21.164  14.967 -0.3201  0.1696 -0.2145
35788POPC   GL275439  11.767  20.998  14.935  0.2458 -0.2146 -0.0372
35788POPC   C1A75440  11.912  21.415  15.173 -0.2361  0.3344 -0.1474
35788POPC   D2A75441  12.298  21.293  15.484  0.0628  0.0424  0.2016
35788POPC   C3A75442  12.591  21.013  15.334 -0.0563  0.1700 -0.3115
35788POPC   C4A75443  12.759  20.591  15.456  0.2434 -0.0925 -0.0058
35788POPC   C1B75444  12.199  20.985  15.005 -0.0374  0.1514 -0.0025
35788POPC   C2B75445  12.628  20.714  14.899 -0.0001  0.0627 -0.0245
35788POPC   C3B75446  13.097  20.656  14.730 -0.0438 -0.3435  0.0622
35788POPC   C4B75447  13.331  20.659  14.300 -0.0158  0.1832  0.1512
35789POPC   NC375448   9.607  25.282  19.369 -0.0745  0.2220  0.0056
35789POPC   PO475449   9.374  25.634  19.360 -0.1763  0.1244 -0.2169
35789POPC   GL175450   9.156  25.896  19.243  0.0134  0.2546 -0.1153
35789POPC   GL275451   8.909  25.917  19.356  0.2933 -0.1017 -0.4312
35789POPC   C1A75452   9.152  25.943  18.801  0.2838  0.0013 -0.1121
35789POPC   D2A75453   9.127  25.716  18.377  0.3093 -0.0692 -0.0882
35789POPC   C3A75454   8.642  25.771  18.253 -0.0212  0.0519  0.0712
35789POPC   C4A75455   8.288  25.734  17.935  0.2624 -0.0727 -0.0720
35789POPC   C1B75456   8.644  26.058  18.998 -0.4782  0.1169 -0.3165
35789POPC   C2B75457   8.382  25.886  18.659 -0.2147 -0.3005 -0.2807
35789POPC   C3B75458   8.091  25.619  18.399 -0.0441 -0.0257 -0.1994
35789POPC   C4B75459   7.782  25.716  18.080 -0.1778 -0.3688  0.0314
35790POPC   NC375460   8.470  24.039  17.717  0.2474  0.1899  0.2631
35790POPC   PO475461   8.735  24.309  17.803 -0.1198  0.1305 -0.0172
35790POPC   GL175462   8.516  24.542  17.541 -0.2301  0.0882  0.2054
35790POPC   GL275463   8.274  24.610  17.659 -0.1082  0.0389  0.0948
35790POPC   C1A75464   8.423  24.733  17.110 -0.1949  0.2410  0.1867
35790POPC   D2A75465   8.399  25.045  16.784 -0.1558  0.1073 -0.3104
35790POPC   C3A75466   8.599  25.471  16.903  0.0498  0.3406 -0.0401
35790POPC   C4A75467   8.786  25.850  17.122  0.4844  0.0703 -0.0769
35790POPC   C1B75468   8.056  24.960  17.400 -0.3592  0.2904 -0.1756
35790POPC   C2B75469   8.140  25.264  17.121  0.1318 -0.2369  0.0505
35790POPC   C3B75470   8.007  25.358  16.690 -0.1401  0.0794 -0.3323
35790POPC   C4B75471   7.928  25.672  16.381 -0.1910 -0.2095  0.0455
35791POPC   NC375472   5.669  28.877  20.513 -0.1158  0.2528  0.0057
35791POPC   PO475473   5.574  29.228  20.348  0.3530 -0.4060 -0.0188
35791POPC   GL175474   5.475  29.401  20.078 -0.1059  0.1397  0.2771
35791POPC   GL275475   5.411  29.657  19.963 -0.0485  0.1002 -0.0055
35791POPC   C1A75476   5.335  29.150  19.730  0.0207  0.1243  0.3368
35791POPC   D2A75477   5.403  29.102  19.295 -0.0249 -0.3283  0.3102
35791POPC   C3A75478   5.051  29.103  19.032 -0.2457  0.0413  0.0927
35791POPC   C4A75479   5.054  29.218  18.619 -0.4163  0.2398 -0.0560
35791POPC   C1B75480   5.719  29.549  19.630 -0.1638  0.0530  0.0149
35791POPC   C2B75481   5.878  29.668  19.263  0.0181  0.0707 -0.0958
35791POPC   C3B75482   5.836  30.003  18.908  0.2127 -0.1886  0.1648
35791POPC   C4B75483   5.796  30.265  18.560 -0.3011 -0.0947  0.1640
35792POPC   NC375484   8.328  22.163  16.299 -0.2140 -0.1926 -0.3486
35792POPC   PO475485   8.577  22.086  15.993  0.1619  0.0887 -0.0982
35792POPC   GL175486   8.310  22.224  15.858 -0.2190  0.0993  0.1924
35792POPC   GL275487   8.044  22.410  16.004 -0.3288  0.2370  0.2711
35792POPC   C1A75488   8.149  22.506  15.544  0.0082  0.0545  0.3156
35792POPC   D2A75489   8.081  22.946  15.418 -0.0162 -0.0185 -0.0603
35792POPC   C3A75490   7.586  22.947  15.412 -0.1320  0.0184 -0.0934
35792POPC   C4A75491   7.298  22.717  15.119  0.0723 -0.1506 -0.1004
35792POPC   C1B75492   7.993  22.924  15.926  0.1476  0.0290 -0.1536
35792POPC   C2B75493   7.753  23.336  15.860  0.5407 -0.0223  0.1673
35792POPC   C3B75494   7.555  23.707  15.910  0.0206 -0.1092 -0.0516
35792POPC   C4B75495   7.184  23.990  15.905 -0.0731  0.1528 -0.2538
35793POPC   NC375496  10.564  21.995  14.027 -0.1846 -0.1719  0.3180
35793POPC   PO475497  10.941  22.044  13.961  0.2739  0.0705  0.0814
35793POPC   GL175498  11.334  21.917  14.016 -0.2037 -0.1262  0.0074
35793POPC   GL275499  11.451  22.089  13.836  0.0057 -0.1404  0.0671
35793POPC   C1A75500  11.556  21.745  14.382  0.0529  0.0382  0.0317
35793POPC   D2A75501  11.731  21.474  14.651 -0.1502 -0.0492 -0.2049
35793POPC   C3A75502  12.200  21.436  14.735 -0.0162  0.0068  0.0599
35793POPC   C4A75503  12.675  21.414  14.671 -0.0255  0.0599  0.0519
35793POPC   C1B75504  11.613  22.501  13.748  0.2761  0.1567 -0.3082
35793POPC   C2B75505  11.881  22.829  13.645 -0.1051  0.0675  0.2151
35793POPC   C3B75506  12.124  22.781  13.234 -0.3827  0.0953  0.2072
35793POPC   C4B75507  12.329  22.635  12.840  0.1423 -0.0323 -0.0169
35794POPC   NC375508  10.887  22.489  16.159 -0.1526  0.0892  0.0889
35794POPC   PO475509  10.838  22.659  15.793  0.1228 -0.0468  0.1524
35794POPC   GL175510  11.222  22.792  16.013 -0.3062  0.1016 -0.2479
35794POPC   GL275511  11.330  22.564  15.784  0.1902  0.3638 -0.1787
35794POPC   C1A75512  11.417  23.223  15.938  0.2472  0.0030  0.1725
35794POPC   D2A75513  11.819  23.487  15.860  0.0713  0.0345 -0.1106
35794POPC   C3A75514  11.841  23.892  15.607 -0.2233  0.0563 -0.2511
35794POPC   C4A75515  11.543  24.100  15.391  0.2473  0.0953  0.0639
35794POPC   C1B75516  11.614  22.722  15.394  0.0771  0.2341 -0.0394
35794POPC   C2B75517  11.817  23.044  15.063  0.0314 -0.1108  0.0453
35794POPC   C3B75518  12.101  22.931  14.732  0.1643 -0.0386  0.0359
35794POPC   C4B75519  12.290  22.803  14.344  0.2916  0.1742 -0.6118
35795POPC   NC375520   0.036  23.413  20.345  0.2250 -0.0116  0.1634
35795POPC   PO475521  -0.141  23.269  20.017  0.0350 -0.0346 -0.0611
35795POPC   GL175522  -0.073  23.016  19.632 -0.3714 -0.2964  0.0749
35795POPC   GL275523  -0.380  23.062  19.590 -0.0187 -0.1477 -0.0264
35795POPC   C1A75524   0.238  23.022  19.257  0.2072 -0.3198  0.0168
35795POPC   D2A75525   0.268  23.077  18.813  0.2738 -0.1048 -0.1950
35795POPC   C3A75526   0.340  22.853  18.367 -0.0959 -0.2048  0.0235
35795POPC   C4A75527   0.431  22.714  17.953 -0.0474  0.0359 -0.1772
35795POPC   C1B75528  -0.283  22.872  19.125  0.2793 -0.0866  0.1201
35795POPC   C2B75529  -0.293  22.997  18.671  0.2155 -0.0424 -0.0484
35795POPC   C3B75530  -0.106  23.209  18.292  0.1556  0.0480  0.2621
35795POPC   C4B75531  -0.301  23.383  17.924  0.3523  0.0511 -0.1236
35796POPC   NC375532   2.473  20.263  19.892 -0.1805 -0.0635  0.1660
35796POPC   PO475533   2.559  20.003  19.640  0.4014 -0.0511 -0.1992
35796POPC   GL175534   2.707  20.146  19.298 -0.3671  0.2732 -0.1776
35796POPC   GL275535   2.509  20.076  19.131  0.1197  0.0104  0.1278
35796POPC   C1A75536   2.887  20.358  18.902 -0.2825  0.2784  0.0667
35796POPC   D2A75537   3.155  20.399  18.490  0.2937  0.1919  0.0107
35796POPC   C3A75538   3.126  20.180  18.138  0.4017 -0.1110  0.3091
35796POPC   C4A75539   3.116  19.744  17.966 -0.2603  0.0912  0.4122
35796POPC   C1B75540   2.313  20.273  18.790 -0.2335 -0.0596  0.2535
35796POPC   C2B75541   2.154  20.434  18.425  0.1181 -0.4654  0.0015
35796POPC   C3B75542   2.232  20.551  17.944  0.0426 -0.3064 -0.2444
35796POPC   C4B75543   2.278  20.467  17.542  0.2208  0.0937  0.2669
35797POPC   NC375544  14.392  22.022  18.927  0.3364  0.0981  0.2674
35797POPC   PO475545  14.392  22.413  19.027 -0.0880  0.2585 -0.0112
35797POPC   GL175546  14.403  22.547  18.560  0.0055  0.0780  0.1389
35797POPC   GL275547  14.630  22.662  18.636  0.1376  0.0285 -0.3105
35797POPC   C1A75548  14.620  22.591  18.104 -0.0860 -0.2780 -0.1412
35797POPC   D2A75549  14.912  22.609  17.737 -0.2931  0.2742 -0.1650
35797POPC   C3A75550  14.926  22.685  17.297  0.0364 -0.0789  0.4386
35797POPC   C4A75551  14.735  22.794  16.846  0.0392 -0.1910  0.0431
35797POPC   C1B75552  15.010  22.456  18.420 -0.0001 -0.3113 -0.2116
35797POPC   C2B75553  15.292  22.516  18.059 -0.0747 -0.0699 -0.1370
35797POPC   C3B75554  15.536  22.302  17.754 -0.0776 -0.0853 -0.2825
35797POPC   C4B75555  16.012  22.264  17.645  0.1474 -0.0685  0.0530
35798POPC   NC375556   9.073  19.150  18.266 -0.4459  0.1090  0.2282
35798POPC   PO475557   9.096  19.412  17.940 -0.1711  0.0692  0.0536
35798POPC   GL175558   8.872  19.349  17.639  0.2544  0.0264  0.3863
35798POPC   GL275559   8.577  19.373  17.645 -0.1004 -0.1200 -0.1280
35798POPC   C1A75560   8.732  18.993  17.324 -0.1809 -0.1363 -0.1046
35798POPC   D2A75561   8.605  18.553  17.141  0.4377 -0.0954  0.1784
35798POPC   C3A75562   8.154  18.640  16.996 -0.3039 -0.2241 -0.0465
35798POPC   C4A75563   7.735  18.555  16.866 -0.0889 -0.1032  0.4272
35798POPC   C1B75564   8.154  19.291  17.628 -0.1661 -0.0204 -0.0615
35798POPC   C2B75565   7.721  19.168  17.527  0.2084 -0.0230 -0.3050
35798POPC   C3B75566   7.348  19.359  17.417  0.0118 -0.0886 -0.1387
35798POPC   C4B75567   7.019  19.625  17.256  0.3163 -0.2521  0.4143
35799POPC   NC375568  10.524  27.570  20.369  0.0955 -0.0005 -0.0301
35799POPC   PO475569  10.181  27.535  20.215  0.0257 -0.1426  0.2432
35799POPC   GL175570  10.318  27.495  19.939  0.1473  0.5049  0.0256
35799POPC   GL275571  10.502  27.212  19.842 -0.4423 -0.1505  0.0571
35799POPC   C1A75572  10.139  27.507  19.527  0.0870  0.0865 -0.0045
35799POPC   D2A75573  10.017  27.911  19.352 -0.1455 -0.1267  0.1709
35799POPC   C3A75574   9.901  27.785  18.922  0.1082 -0.1867 -0.0181
35799POPC   C4A75575   9.898  27.921  18.517  0.1982  0.0650 -0.1505
35799POPC   C1B75576  10.542  27.163  19.377  0.1528  0.0551 -0.1669
35799POPC   C2B75577  10.646  27.335  18.938 -0.1526  0.2357 -0.1722
35799POPC   C3B75578  10.688  27.369  18.446 -0.0380  0.2140  0.3437
35799POPC   C4B75579  10.740  27.497  17.999 -0.0802 -0.2127  0.0092
35800POPC   NC375580   1.753  19.412  20.106 -0.2102 -0.0798  0.4579
35800POPC   PO475581   2.062  19.191  19.960  0.1929  0.0017  0.0022
35800POPC   GL175582   1.860  19.450  19.614  0.2947  0.3195 -0.0333
35800POPC   GL275583   2.075  19.307  19.435 -0.1052 -0.2505 -0.0185
35800POPC   C1A75584   1.765  19.611  19.162 -0.1470 -0.1461  0.0692
35800POPC   D2A75585   1.584  19.687  18.787 -0.0351 -0.2567 -0.1904
35800POPC   C3A75586   1.774  19.622  18.383  0.0687  0.0453 -0.1231
35800POPC   C4A75587   2.056  19.751  18.033 -0.0510 -0.1786  0.1251
35800POPC   C1B75588   2.401  19.449  19.095 -0.1011 -0.2494 -0.5912
35800POPC   C2B75589   2.461  19.111  18.808  0.1793  0.0973 -0.0723
35800POPC   C3B75590   2.217  18.873  18.544 -0.3290  0.1272 -0.1250
35800POPC   C4B75591   1.902  19.109  18.276 -0.3643  0.0604  0.0508
35801POPC   NC375592   4.900  28.889  20.767 -0.3244  0.1571 -0.1491
35801POPC   PO475593   5.148  29.032  20.592 -0.0530  0.1572  0.1017
35801POPC   GL175594   5.047  28.911  20.286  0.0000 -0.0005  0.1913
35801POPC   GL275595   5.308  28.905  20.137  0.3450 -0.1178 -0.1804
35801POPC   C1A75596   4.996  28.542  20.002  0.1093 -0.2874  0.2980
35801POPC   D2A75597   5.035  28.635  19.614 -0.0009 -0.0116  0.1109
35801POPC   C3A75598   5.333  28.638  19.307 -0.0767 -0.0743  0.1648
35801POPC   C4A75599   5.515  28.678  18.889  0.0845 -0.0351 -0.0411
35801POPC   C1B75600   4.873  29.043  19.921 -0.0400  0.1166 -0.2008
35801POPC   C2B75601   4.709  29.094  19.452  0.0219  0.2267  0.0392
35801POPC   C3B75602   4.591  28.999  19.036  0.1462  0.0767  0.2170
35801POPC   C4B75603   4.762  28.841  18.664 -0.1006  0.0793  0.1487
35802POPC   NC375604  11.027  21.615  14.263  0.0007 -0.0449 -0.0350
35802POPC   PO475605  11.086  21.247  14.271 -0.0203  0.2436  0.2867
35802POPC   GL175606  11.468  21.280  14.221 -0.0715  0.1093 -0.0365
35802POPC   GL275607  11.559  21.380  13.989 -0.1839 -0.2692 -0.2815
35802POPC   C1A75608  11.814  21.082  14.373  0.3085 -0.0159 -0.3255
35802POPC   D2A75609  12.296  20.984  14.391  0.2226 -0.2518 -0.1599
35802POPC   C3A75610  12.447  20.694  14.066 -0.0613  0.1662  0.3697
35802POPC   C4A75611  12.210  20.290  13.922 -0.0096 -0.2096 -0.2628
35802POPC   C1B75612  11.968  21.510  14.212 -0.2010  0.1742  0.1921
35802POPC   C2B75613  12.378  21.669  14.330  0.0145 -0.2044  0.1702
35802POPC   C3B75614  12.762  21.874  14.278  0.1513 -0.0582  0.1168
35802POPC   C4B75615  13.152  22.072  14.083 -0.0072  0.1407  0.0645
35803POPC   NC375616   6.902  23.950  18.884 -0.1730  0.2185 -0.0843
35803POPC   PO475617   6.543  23.969  19.000  0.0812 -0.2269 -0.2502
35803POPC   GL175618   6.512  24.008  18.620 -0.3247  0.1015  0.1611
35803POPC   GL275619   6.323  23.859  18.465  0.0686  0.0636 -0.1953
35803POPC   C1A75620   6.165  24.273  18.598 -0.4304 -0.1219  0.2007
35803POPC   D2A75621   5.737  24.365  18.400  0.0339  0.2066  0.0952
35803POPC   C3A75622   5.595  24.479  17.988  0.0810 -0.2326  0.3707
35803POPC   C4A75623   5.509  24.681  17.594 -0.4396 -0.2176  0.4445
35803POPC   C1B75624   5.939  23.964  18.199  0.1001  0.0976  0.0734
35803POPC   C2B75625   5.663  24.075  17.780 -0.1147  0.2350 -0.0947
35803POPC   C3B75626   5.360  24.175  17.497 -0.0065  0.1673 -0.3549
35803POPC   C4B75627   5.309  24.292  17.032 -0.2056 -0.0247 -0.2051
35804POPC   NC375628  10.738  22.871  13.778 -0.1936  0.0829 -0.3250
35804POPC   PO475629  10.509  23.034  14.077 -0.1448  0.2755 -0.4952
35804POPC   GL175630  10.855  23.321  14.049  0.1022  0.1816 -0.2868
35804POPC   GL275631  10.731  23.425  14.274  0.1086 -0.1533  0.0862
35804POPC   C1A75632  11.212  23.575  14.156  0.1990 -0.3944 -0.0230
35804POPC   D2A75633  11.712  23.611  14.148  0.0659 -0.3290 -0.0137
35804POPC   C3A75634  11.972  23.461  13.788 -0.0434  0.3622  0.1748
35804POPC   C4A75635  12.192  23.277  13.448  0.1874 -0.0536 -0.1056
35804POPC   C1B75636  10.494  23.683  13.996 -0.2668 -0.2340  0.0710
35804POPC   C2B75637  10.247  23.729  13.641 -0.1000 -0.0427  0.1885
35804POPC   C3B75638  10.036  24.013  13.299 -0.1063  0.0026  0.3148
35804POPC   C4B75639   9.942  24.481  13.183 -0.2411  0.1691 -0.1693
35805POPC   NC375640   2.573  25.555  20.201 -0.0697 -0.3249 -0.1779
35805POPC   PO475641   2.208  25.550  20.383 -0.0079 -0.1594 -0.2498
35805POPC   GL175642   2.183  25.864  20.157  0.1309  0.0810 -0.5788
35805POPC   GL275643   1.930  25.784  19.960 -0.0640 -0.3561 -0.2572
35805POPC   C1A75644   2.421  25.832  19.718  0.0791 -0.0369 -0.0438
35805POPC   D2A75645   2.593  26.193  19.446  0.1138  0.4219  0.1796
35805POPC   C3A75646   2.802  26.565  19.689 -0.0357  0.2133  0.0086
35805POPC   C4A75647   2.517  26.789  19.966 -0.0682 -0.0544  0.0469
35805POPC   C1B75648   1.951  25.684  19.505  0.0281  0.0911 -0.2386
35805POPC   C2B75649   1.743  25.699  19.073 -0.0992 -0.3869  0.1433
35805POPC   C3B75650   1.524  25.775  18.666 -0.1163 -0.0809  0.0624
35805POPC   C4B75651   1.578  25.822  18.188 -0.0660  0.0132 -0.0548
35806POPC   NC375652   4.144  18.996  19.661 -0.0192 -0.0403 -0.1604
35806POPC   PO475653   3.788  19.058  19.662  0.0394 -0.1866  0.0152
35806POPC   GL175654   3.642  19.012  19.296  0.2319  0.2276 -0.1431
35806POPC   GL275655   3.337  18.942  19.229 -0.1199  0.2802 -0.0357
35806POPC   C1A75656   3.567  19.158  18.839 -0.2140 -0.0485  0.0329
35806POPC   D2A75657   3.482  19.036  18.418  0.2309 -0.3190 -0.2466
35806POPC   C3A75658   3.255  18.684  18.232  0.0910 -0.0829 -0.1477
35806POPC   C4A75659   3.024  18.300  17.944 -0.1999  0.2374 -0.2376
35806POPC   C1B75660   3.606  18.681  18.970  0.0295  0.0486 -0.1035
35806POPC   C2B75661   3.883  18.626  18.599  0.2786 -0.0923  0.0962
35806POPC   C3B75662   4.189  18.363  18.268 -0.1180 -0.2661  0.0478
35806POPC   C4B75663   4.492  18.000  18.244 -0.3097  0.0747  0.0646
35807POPC   NC375664  14.881  25.229  19.683  0.0976 -0.1676 -0.1471
35807POPC   PO475665  15.195  25.431  19.848  0.0347  0.3059  0.2322
35807POPC   GL175666  15.293  25.117  19.554 -0.1188  0.0079  0.8100
35807POPC   GL275667  15.537  24.981  19.511  0.0769  0.0569 -0.1640
35807POPC   C1A75668  15.091  24.958  19.197  0.0093  0.2355  0.1386
35807POPC   D2A75669  15.060  24.827  18.731  0.5586 -0.0240  0.3437
35807POPC   C3A75670  14.925  25.133  18.383  0.1490 -0.1532 -0.1443
35807POPC   C4A75671  15.136  25.501  18.166 -0.0807 -0.0260  0.0139
35807POPC   C1B75672  15.935  24.944  19.319 -0.0603 -0.1376 -0.0360
35807POPC   C2B75673  16.022  25.116  18.939 -0.0812  0.2035 -0.0766
35807POPC   C3B75674  15.936  25.166  18.465  0.2492  0.1004  0.1499
35807POPC   C4B75675  15.453  25.108  18.321 -0.1431  0.1097 -0.3868
35808POPC   NC375676   0.306  21.973  19.952 -0.0222 -0.2301 -0.1945
35808POPC   PO475677   0.029  21.774  19.738 -0.2369 -0.0735  0.1769
35808POPC   GL175678  -0.053  21.709  19.340  0.1357  0.0536  0.0413
35808POPC   GL275679  -0.314  21.490  19.248 -0.0405  0.2211 -0.2048
35808POPC   C1A75680   0.108  21.523  18.939 -0.0290  0.0850  0.2022
35808POPC   D2A75681   0.425  21.484  18.666 -0.0639  0.2966  0.0262
35808POPC   C3A75682   0.526  21.301  18.211  0.3586  0.0237  0.0644
35808POPC   C4A75683   0.266  21.412  17.848  0.0291 -0.0351  0.1116
35808POPC   C1B75684  -0.329  21.772  18.895 -0.0119 -0.1718  0.1909
35808POPC   C2B75685  -0.204  21.949  18.467 -0.1369 -0.0729 -0.4446
35808POPC   C3B75686  -0.254  22.283  18.130 -0.0936  0.2651  0.1405
35808POPC   C4B75687  -0.131  22.743  18.015  0.1618 -0.0944  0.0271
35809POPC   NC375688  12.497  26.087  19.526 -0.1849 -0.1177  0.3286
35809POPC   PO475689  12.180  26.225  19.716  0.1168 -0.0496 -0.1939
35809POPC   GL175690  12.160  26.371  19.475  0.0008  0.0815  0.2800
35809POPC   GL275691  12.106  26.221  19.215  0.1624  0.1771 -0.0093
35809POPC   C1A75692  12.298  26.764  19.299  0.3613  0.2546 -0.0523
35809POPC   D2A75693  12.606  27.064  19.191  0.2392 -0.0133 -0.0713
35809POPC   C3A75694  12.822  27.188  18.816  0.0097 -0.2903 -0.0973
35809POPC   C4A75695  12.818  27.048  18.378 -0.0815 -0.2386 -0.3590
35809POPC   C1B75696  12.308  26.468  18.868  0.0146  0.0153  0.0984
35809POPC   C2B75697  12.410  26.656  18.460 -0.0730  0.0383 -0.2877
35809POPC   C3B75698  12.091  26.811  18.108  0.3467  0.1574  0.0287
35809POPC   C4B75699  12.201  27.009  17.655  0.1994  0.2206 -0.0297
35810POPC   NC375700   9.159  20.700  15.166 -0.2415  0.2097 -0.0504
35810POPC   PO475701   9.188  20.926  14.845  0.1691  0.1276 -0.2204
35810POPC   GL175702   8.955  20.641  14.621 -0.1303  0.4389 -0.2243
35810POPC   GL275703   9.051  20.379  14.788  0.2518 -0.0447  0.2898
35810POPC   C1A75704   8.480  20.551  14.710  0.1808 -0.4179  0.0380
35810POPC   D2A75705   8.026  20.574  14.761 -0.1674  0.2869 -0.1618
35810POPC   C3A75706   7.693  20.368  14.604  0.2353 -0.0694 -0.0769
35810POPC   C4A75707   7.380  20.071  14.810 -0.1011 -0.1061  0.1097
35810POPC   C1B75708   9.259  20.247  14.347  0.2098 -0.2004 -0.0790
35810POPC   C2B75709   9.158  20.121  13.876  0.1498 -0.0828  0.2310
35810POPC   C3B75710   8.987  20.119  13.424 -0.0320  0.3933 -0.2494
35810POPC   C4B75711   8.953  19.737  13.248 -0.2160 -0.1492  0.0115
35811POPC   NC375712   2.862  24.664  20.137 -0.0470 -0.0626  0.1405
35811POPC   PO475713   3.237  24.805  19.972  0.1620 -0.1270  0.0355
35811POPC   GL175714   2.935  24.973  19.640  0.2231  0.1030 -0.1344
35811POPC   GL275715   2.797  24.773  19.605 -0.1982  0.1088  0.0277
35811POPC   C1A75716   2.842  25.426  19.509  0.1589  0.2661 -0.0766
35811POPC   D2A75717   2.771  25.822  19.245 -0.0597  0.0228  0.1378
35811POPC   C3A75718   2.317  25.850  19.076  0.0835 -0.1847 -0.3858
35811POPC   C4A75719   1.955  26.056  18.828 -0.0657  0.2265 -0.3451
35811POPC   C1B75720   2.767  24.956  19.218  0.3153  0.2181 -0.0555
35811POPC   C2B75721   2.596  25.040  18.811 -0.0323 -0.0513  0.2759
35811POPC   C3B75722   2.468  25.230  18.428  0.2478 -0.1163  0.0352
35811POPC   C4B75723   2.296  25.235  17.999 -0.0805  0.0403  0.2066
35812POPC   NC375724  12.528  23.888  18.608  0.0893  0.0823 -0.0627
35812POPC   PO475725  12.173  23.832  18.725  0.3670 -0.1099  0.0017
35812POPC   GL175726  11.982  24.033  18.547  0.0635 -0.1601  0.1468
35812POPC   GL275727  11.900  24.012  18.273  0.0376 -0.3496 -0.4452
35812POPC   C1A75728  12.076  24.514  18.487  0.1086 -0.0601 -0.1609
35812POPC   D2A75729  12.365  24.859  18.484 -0.3776  0.0257 -0.1477
35812POPC   C3A75730  12.302  25.115  18.141  0.3160  0.0266  0.0540
35812POPC   C4A75731  12.527  25.434  17.898 -0.0373 -0.1842  0.2771
35812POPC   C1B75732  12.126  24.195  17.899  0.0851 -0.3307 -0.1005
35812POPC   C2B75733  12.356  24.464  17.587  0.0718 -0.1050  0.0664
35812POPC   C3B75734  12.604  24.465  17.205 -0.2467  0.1752 -0.0090
35812POPC   C4B75735  12.988  24.538  17.024 -0.0944  0.0417  0.3962
35813POPC   NC375736  11.071  31.944  20.236 -0.0218 -0.1315 -0.0175
35813POPC   PO475737  11.456  31.820  20.239 -0.1981 -0.2104  0.0404
35813POPC   GL175738  11.496  31.738  19.868 -0.3193  0.0495  0.0086
35813POPC   GL275739  11.423  31.913  19.680  0.2413  0.3658 -0.3097
35813POPC   C1A75740  11.172  31.533  19.552  0.2934 -0.0094  0.0196
35813POPC   D2A75741  10.904  31.515  19.194  0.0605  0.0007 -0.1888
35813POPC   C3A75742  11.074  31.485  18.721  0.3233  0.2144 -0.3649
35813POPC   C4A75743  11.198  31.668  18.302  0.0160 -0.1105  0.1975
35813POPC   C1B75744  11.362  31.970  19.276  0.2540 -0.2935 -0.1049
35813POPC   C2B75745  11.461  31.680  18.899  0.0765 -0.3460  0.1244
35813POPC   C3B75746  11.664  31.363  18.635 -0.2338  0.4466  0.0296
35813POPC   C4B75747  11.867  30.958  18.580  0.1681  0.1604 -0.0401
35814POPC   NC375748  14.803  27.410  20.371 -0.1491  0.0331  0.2016
35814POPC   PO475749  15.090  27.216  20.507 -0.0560  0.1906 -0.1991
35814POPC   GL175750  15.019  27.085  20.099 -0.2827 -0.0203  0.2801
35814POPC   GL275751  15.070  27.343  19.923  0.1925  0.1666 -0.0704
35814POPC   C1A75752  14.648  26.982  19.852 -0.0531 -0.1112 -0.0821
35814POPC   D2A75753  14.516  26.699  19.523  0.2186  0.0616  0.0878
35814POPC   C3A75754  14.200  26.886  19.239  0.0259  0.1220 -0.0911
35814POPC   C4A75755  13.965  27.224  18.968 -0.1562  0.0234 -0.1249
35814POPC   C1B75756  14.879  27.340  19.493  0.2356  0.1003  0.1796
35814POPC   C2B75757  15.051  27.315  19.062 -0.1216  0.0666 -0.0761
35814POPC   C3B75758  15.057  27.304  18.608 -0.1774  0.0417 -0.2962
35814POPC   C4B75759  15.185  27.310  18.191 -0.1656 -0.4208  0.0678
35815POPC   NC375760  14.158  18.924  19.082 -0.1671 -0.2634 -0.2181
35815POPC   PO475761  13.847  19.114  18.956 -0.1326  0.0313  0.3550
35815POPC   GL175762  13.897  19.257  18.530  0.0676  0.0162  0.3096
35815POPC   GL275763  14.178  19.124  18.535  0.0405  0.0288 -0.3994
35815POPC   C1A75764  13.930  19.427  18.128 -0.0284  0.1775 -0.0177
35815POPC   D2A75765  14.175  19.422  17.804 -0.0796 -0.2664 -0.0475
35815POPC   C3A75766  14.068  19.239  17.392  0.1204  0.1125  0.0495
35815POPC   C4A75767  14.127  19.385  16.973  0.2040 -0.2292 -0.1014
35815POPC   C1B75768  14.271  18.926  18.057  0.1025 -0.1033 -0.0878
35815POPC   C2B75769  14.323  18.857  17.603 -0.1461 -0.3668 -0.0535
35815POPC   C3B75770  14.658  18.878  17.287 -0.1588  0.0290 -0.2653
35815POPC   C4B75771  14.780  18.652  16.877 -0.2252 -0.2757 -0.1628
35816POPC   NC375772  12.072  22.492  18.063  0.1936  0.0641 -0.2026
35816POPC   PO475773  12.130  22.415  17.687  0.0425  0.3782  0.0450
35816POPC   GL175774  11.880  22.545  17.450 -0.1936 -0.0487  0.2061
35816POPC   GL275775  11.898  22.805  17.293 -0.0865 -0.2432 -0.1652
35816POPC   C1A75776  12.077  22.344  17.046  0.0729 -0.2233  0.3347
35816POPC   D2A75777  12.048  22.061  16.634  0.2157 -0.0874 -0.0017
35816POPC   C3A75778  12.450  22.107  16.389  0.1115 -0.3908  0.0427
35816POPC   C4A75779  12.731  22.407  16.188  0.0421 -0.2989 -0.2541
35816POPC   C1B75780  12.231  22.893  17.051  0.1537  0.0138 -0.0517
35816POPC   C2B75781  12.515  23.147  16.775  0.1768  0.0139 -0.1579
35816POPC   C3B75782  12.694  23.583  16.776 -0.1732  0.0690  0.0427
35816POPC   C4B75783  12.768  24.033  16.939 -0.1491 -0.0116  0.3243
35817POPC   NC375784  13.230  16.231  19.732  0.2766  0.3995 -0.2065
35817POPC   PO475785  13.030  16.480  19.503  0.1031  0.1471  0.1500
35817POPC   GL175786  13.266  16.480  19.239 -0.1499 -0.1873  0.3144
35817POPC   GL275787  13.318  16.189  19.209 -0.3859 -0.0240  0.2149
35817POPC   C1A75788  13.709  16.440  19.108  0.0627  0.0712 -0.4353
35817POPC   D2A75789  14.151  16.302  18.987 -0.1120  0.1229 -0.4142
35817POPC   C3A75790  14.407  15.987  18.778 -0.0821 -0.3428 -0.0182
35817POPC   C4A75791  14.851  15.947  18.587  0.2176 -0.2266 -0.0081
35817POPC   C1B75792  13.492  16.173  18.800  0.0579  0.0243  0.0941
35817POPC   C2B75793  13.819  16.308  18.532  0.2121  0.0803  0.3330
35817POPC   C3B75794  14.216  16.183  18.344  0.1264  0.0645 -0.1987
35817POPC   C4B75795  14.492  15.965  18.043  0.0971 -0.0765 -0.1199
35818POPC   NC375796   0.268  30.882  20.930  0.1137 -0.1218  0.0475
35818POPC   PO475797   0.653  30.711  20.975 -0.0759 -0.0830 -0.3256
35818POPC   GL175798   0.505  30.719  20.568 -0.0630  0.0561 -0.1874
35818POPC   GL275799   0.609  31.018  20.541  0.0382  0.1952 -0.3315
35818POPC   C1A75800   0.440  30.712  20.139  0.0360  0.1468  0.2325
35818POPC   D2A75801   0.668  30.844  19.710 -0.2749 -0.1703  0.0898
35818POPC   C3A75802   0.281  30.875  19.394  0.2858  0.0920  0.0881
35818POPC   C4A75803  -0.083  30.652  19.323  0.1149  0.0274  0.0830
35818POPC   C1B75804   0.792  31.168  20.131 -0.1925 -0.1272 -0.1535
35818POPC   C2B75805   1.039  31.145  19.712  0.1546  0.0504  0.1262
35818POPC   C3B75806   1.070  31.106  19.261 -0.2484  0.0037 -0.0726
35818POPC   C4B75807   1.508  31.025  19.107  0.1218 -0.0886 -0.2135
35819POPC   NC375808   7.328  27.277  20.169 -0.2679  0.2356  0.0491
35819POPC   PO475809   7.553  27.290  19.796  0.2365 -0.2406 -0.0934
35819POPC   GL175810   7.224  27.496  19.664 -0.1905  0.0199 -0.1194
35819POPC   GL275811   7.362  27.688  19.494  0.0249 -0.2353 -0.0112
35819POPC   C1A75812   6.896  27.553  19.335  0.1649  0.1145  0.0192
35819POPC   D2A75813   6.766  27.653  18.974  0.1675 -0.0196  0.0430
35819POPC   C3A75814   6.963  28.022  18.821 -0.1270 -0.0773  0.0202
35819POPC   C4A75815   6.977  28.066  18.384  0.0493  0.1647 -0.2146
35819POPC   C1B75816   7.324  27.762  19.045 -0.1089 -0.0159  0.0257
35819POPC   C2B75817   7.245  27.534  18.660  0.1149 -0.2356  0.1179
35819POPC   C3B75818   7.128  27.460  18.186 -0.2130  0.0402  0.3441
35819POPC   C4B75819   7.217  27.121  17.876 -0.0326  0.0124 -0.0092
35820POPC   NC375820   8.491  18.319  18.499  0.0566 -0.2666 -0.1382
35820POPC   PO475821   8.252  18.489  18.724 -0.1101 -0.1755  0.1468
35820POPC   GL175822   7.937  18.395  18.453  0.0514  0.1405 -0.0917
35820POPC   GL275823   7.958  18.130  18.462  0.0948 -0.2649 -0.2203
35820POPC   C1A75824   7.554  18.312  18.274  0.1208  0.0126  0.0541
35820POPC   D2A75825   7.440  17.991  17.929  0.0804  0.1424 -0.4900
35820POPC   C3A75826   6.980  17.914  17.786 -0.0170  0.0111  0.0088
35820POPC   C4A75827   6.548  17.882  17.619 -0.3836 -0.1884 -0.1476
35820POPC   C1B75828   7.856  17.855  18.068 -0.0122 -0.2700 -0.1844
35820POPC   C2B75829   7.782  17.558  17.721  0.3222 -0.0201  0.1417
35820POPC   C3B75830   7.704  17.679  17.292 -0.0640 -0.0416  0.1270
35820POPC   C4B75831   7.753  18.063  16.976 -0.0798  0.2211  0.0956
35821POPC   NC375832   5.070  24.028  19.355  0.0848  0.3467  0.1674
35821POPC   PO475833   4.945  24.375  19.484  0.0155 -0.0230 -0.1319
35821POPC   GL175834   4.634  24.531  19.242 -0.0677 -0.3555 -0.0544
35821POPC   GL275835   4.472  24.310  19.162  0.1647  0.1147  0.0299
35821POPC   C1A75836   4.473  24.907  19.006  0.0132 -0.0632  0.0703
35821POPC   D2A75837   4.106  25.139  18.811  0.3898  0.0719  0.0601
35821POPC   C3A75838   3.846  25.051  18.517  0.2330  0.1426 -0.0391
35821POPC   C4A75839   3.765  25.167  18.100 -0.0160  0.1362 -0.0378
35821POPC   C1B75840   4.216  24.101  18.787  0.2200  0.2690  0.2329
35821POPC   C2B75841   4.072  24.252  18.383  0.0138  0.0619  0.2948
35821POPC   C3B75842   3.698  24.132  18.131  0.1829 -0.1463  0.2487
35821POPC   C4B75843   3.287  24.003  18.045  0.3097 -0.0408 -0.0757
35822POPC   NC375844   5.135  26.586  19.978  0.2353  0.0966 -0.0485
35822POPC   PO475845   5.499  26.466  19.834 -0.0492 -0.1036 -0.4143
35822POPC   GL175846   5.628  26.262  19.495 -0.1086 -0.2594  0.1254
35822POPC   GL275847   5.892  26.396  19.412  0.1320  0.1535 -0.1763
35822POPC   C1A75848   5.363  26.103  19.155  0.2394  0.0620 -0.2339
35822POPC   D2A75849   5.501  26.082  18.693  0.1847 -0.4473 -0.1424
35822POPC   C3A75850   5.315  26.441  18.555 -0.0679 -0.0590 -0.1031
35822POPC   C4A75851   5.396  26.576  18.126 -0.1754 -0.1991  0.2737
35822POPC   C1B75852   5.714  26.465  18.956 -0.0957 -0.0709 -0.0649
35822POPC   C2B75853   5.779  26.407  18.472 -0.2429 -0.0495 -0.1897
35822POPC   C3B75854   5.827  26.237  18.067  0.1092 -0.0869  0.1341
35822POPC   C4B75855   6.029  25.954  17.775 -0.0023  0.0122  0.0983
35823POPC   NC375856  13.657  19.850  18.474 -0.2803 -0.0963  0.2967
35823POPC   PO475857  13.410  20.132  18.553 -0.1272  0.1085  0.1651
35823POPC   GL175858  13.715  20.263  18.270  0.1069 -0.4821 -0.1004
35823POPC   GL275859  13.709  20.287  17.996  0.0565  0.2146  0.0414
35823POPC   C1A75860  14.079  20.565  18.227 -0.0922 -0.0368 -0.0444
35823POPC   D2A75861  14.542  20.722  18.240  0.2322  0.1274  0.0503
35823POPC   C3A75862  14.822  20.744  17.800  0.0050  0.1997 -0.2020
35823POPC   C4A75863  14.800  20.632  17.359  0.0200 -0.2801 -0.2067
35823POPC   C1B75864  13.638  20.412  17.571 -0.2267  0.1192  0.0815
35823POPC   C2B75865  13.888  20.605  17.297  0.2215 -0.2474 -0.0045
35823POPC   C3B75866  14.163  20.962  17.082 -0.0030 -0.1116 -0.3335
35823POPC   C4B75867  14.487  21.319  16.981 -0.0040 -0.1709 -0.0175
35824POPC   NC375868  12.099  16.727  19.561 -0.2818  0.4956  0.3215
35824POPC   PO475869  12.431  16.914  19.621 -0.0526 -0.2743 -0.2078
35824POPC   GL175870  12.657  16.736  19.345 -0.6514 -0.2179 -0.1047
35824POPC   GL275871  12.521  16.459  19.264  0.3294 -0.0131  0.0529
35824POPC   C1A75872  12.820  16.966  18.981  0.0811  0.0824 -0.0103
35824POPC   D2A75873  12.841  16.751  18.573 -0.1197  0.0318  0.0789
35824POPC   C3A75874  12.863  16.346  18.377 -0.1102  0.1773  0.0156
35824POPC   C4A75875  13.074  15.933  18.487  0.0852  0.0547 -0.2138
35824POPC   C1B75876  12.498  16.138  18.926 -0.0501 -0.0929  0.0851
35824POPC   C2B75877  12.603  15.844  18.561  0.0977 -0.0605 -0.1244
35824POPC   C3B75878  12.709  15.669  18.181 -0.3142 -0.0034 -0.0736
35824POPC   C4B75879  13.078  15.812  18.001  0.2682 -0.1756  0.0227
35825POPC   NC375880   8.679  20.880  16.812  0.0367 -0.0197  0.2318
35825POPC   PO475881   8.391  21.137  16.698  0.1825 -0.1895 -0.2498
35825POPC   GL175882   8.305  21.003  16.357 -0.2759 -0.1524 -0.0196
35825POPC   GL275883   8.092  21.230  16.231 -0.3594 -0.1534  0.1357
35825POPC   C1A75884   8.324  20.734  15.929 -0.2087 -0.1121 -0.1119
35825POPC   D2A75885   8.411  20.430  15.594 -0.0150  0.3069  0.2399
35825POPC   C3A75886   8.105  20.407  15.292  0.1562 -0.3229 -0.0485
35825POPC   C4A75887   7.745  20.196  15.096  0.1325  0.0958  0.1137
35825POPC   C1B75888   7.881  20.894  16.083  0.1476 -0.2022  0.0382
35825POPC   C2B75889   7.742  20.683  15.723  0.3623  0.3764  0.1325
35825POPC   C3B75890   7.474  20.574  15.410  0.0316  0.1131  0.2051
35825POPC   C4B75891   7.195  20.447  14.999  0.2033  0.0389 -0.2857
35826POPC   NC375892  11.757  22.076  10.848 -0.4661 -0.3238  0.2231
35826POPC   PO475893  11.511  22.367  10.964  0.0635 -0.3851 -0.0555
35826POPC   GL175894  11.800  22.508  11.127  0.2240 -0.3092  0.2960
35826POPC   GL275895  11.958  22.349  11.301 -0.3443  0.1503 -0.1091
35826POPC   C1A75896  12.070  22.913  11.140  0.2262  0.0324 -0.1705
35826POPC   D2A75897  12.323  23.282  11.069 -0.1990  0.0566 -0.2416
35826POPC   C3A75898  12.310  23.681  10.886  0.0911 -0.1761  0.2135
35826POPC   C4A75899  12.323  24.120  10.881  0.1107 -0.0146 -0.1623
35826POPC   C1B75900  12.126  22.126  11.694  0.2012  0.0765  0.3545
35826POPC   C2B75901  12.468  22.104  11.983  0.1128 -0.2733 -0.0003
35826POPC   C3B75902  12.528  21.874  12.361  0.0221  0.2086  0.0200
35826POPC   C4B75903  12.475  21.648  12.717 -0.4175 -0.0683 -0.0954
35827POPC   NC375904   6.423  30.262  20.495  0.0494  0.1015 -0.3829
35827POPC   PO475905   6.112  30.460  20.604  0.2712 -0.1625  0.4884
35827POPC   GL175906   6.002  30.416  20.200  0.0702 -0.4306 -0.0014
35827POPC   GL275907   5.972  30.713  20.179  0.6684  0.3907 -0.1699
35827POPC   C1A75908   5.978  30.544  19.736 -0.3451 -0.0312 -0.3977
35827POPC   D2A75909   6.043  30.339  19.356  0.1031  0.0127 -0.0540
35827POPC   C3A75910   5.817  30.457  19.006  0.0742 -0.1734  0.1301
35827POPC   C4A75911   5.715  30.725  18.636 -0.2411  0.0120 -0.2897
35827POPC   C1B75912   5.851  31.050  19.909  0.3569  0.0393 -0.2975
35827POPC   C2B75913   5.695  31.086  19.484  0.1362 -0.0858 -0.2201
35827POPC   C3B75914   5.564  30.891  19.098  0.1325  0.3972 -0.1723
35827POPC   C4B75915   5.283  30.532  19.033 -0.2043  0.0934 -0.0142
35828POPC   NC375916  10.842  21.672  13.086  0.1423 -0.1917  0.1635
35828POPC   PO475917  11.154  21.932  13.028 -0.0044 -0.1098  0.0273
35828POPC   GL175918  11.544  22.016  13.244 -0.1797 -0.0892 -0.0223
35828POPC   GL275919  11.660  21.816  13.142  0.0003 -0.1479  0.1349
35828POPC   C1A75920  11.858  22.225  13.515 -0.2311 -0.0257 -0.1431
35828POPC   D2A75921  12.129  22.378  13.884 -0.1680  0.0470 -0.3299
35828POPC   C3A75922  12.436  22.716  13.663  0.4312  0.0210  0.2317
35828POPC   C4A75923  12.755  22.725  13.265 -0.1444  0.3005 -0.0832
35828POPC   C1B75924  12.113  21.841  13.123  0.1079 -0.3424 -0.0203
35828POPC   C2B75925  12.476  21.780  13.395 -0.0181  0.2463 -0.2315
35828POPC   C3B75926  12.784  21.444  13.628  0.1924 -0.3911 -0.1371
35828POPC   C4B75927  12.620  21.320  14.020 -0.2598  0.3127 -0.1101
35829POPC   NC375928   3.456  32.207  20.598  0.0179 -0.1104 -0.1354
35829POPC   PO475929   3.373  32.586  20.684 -0.0621 -0.3482 -0.0316
35829POPC   GL175930   3.298  32.583  20.293 -0.2650 -0.1973  0.0253
35829POPC   GL275931   3.317  32.866  20.178  0.1216 -0.1446  0.0725
35829POPC   C1A75932   3.295  32.421  19.873  0.1551  0.1578 -0.2254
35829POPC   D2A75933   3.132  32.148  19.559 -0.1202  0.0459 -0.2648
35829POPC   C3A75934   3.344  31.790  19.396  0.1265  0.1462 -0.1116
35829POPC   C4A75935   3.542  31.490  19.102  0.2459 -0.0712 -0.4174
35829POPC   C1B75936   3.570  32.816  19.749  0.0409 -0.3028 -0.1420
35829POPC   C2B75937   3.612  32.834  19.332  0.0300  0.1363 -0.0178
35829POPC   C3B75938   3.520  32.559  18.990 -0.0378 -0.0770 -0.0630
35829POPC   C4B75939   3.457  32.242  18.604 -0.1483 -0.2193 -0.1543
35830POPC   NC375940  11.417  23.807  18.833 -0.1251  0.1463  0.2869
35830POPC   PO475941  11.084  24.016  18.725 -0.2446  0.2435  0.3224
35830POPC   GL175942  11.203  24.409  18.514  0.4315 -0.2449  0.4628
35830POPC   GL275943  11.118  24.271  18.287  0.1331  0.1434 -0.0146
35830POPC   C1A75944  11.222  24.848  18.504  0.3148 -0.0276 -0.0508
35830POPC   D2A75945  11.016  25.247  18.589  0.0585 -0.0467  0.1690
35830POPC   C3A75946  10.985  25.641  18.301 -0.4673 -0.0035  0.0566
35830POPC   C4A75947  10.854  25.979  17.971 -0.1236  0.0665 -0.0642
35830POPC   C1B75948  11.458  24.511  18.088 -0.0945  0.0912  0.0160
35830POPC   C2B75949  11.938  24.615  18.026  0.1561 -0.3126  0.2898
35830POPC   C3B75950  12.357  24.575  18.095 -0.0115 -0.1361  0.2725
35830POPC   C4B75951  12.818  24.714  18.197  0.0144 -0.1280  0.2963
35831POPC   NC375952   4.328  21.446  19.713  0.1022  0.3055  0.1816
35831POPC   PO475953   4.024  21.172  19.705  0.0477 -0.0947  0.3402
35831POPC   GL175954   3.775  21.215  19.403  0.0362  0.1842  0.1544
35831POPC   GL275955   3.830  21.506  19.297 -0.1287  0.3422  0.1633
35831POPC   C1A75956   3.914  21.216  18.940 -0.0139  0.0854  0.2095
35831POPC   D2A75957   3.797  21.158  18.560  0.0256  0.5368  0.2409
35831POPC   C3A75958   3.565  21.193  18.170  0.2478 -0.0178  0.1821
35831POPC   C4A75959   3.228  21.077  17.857  0.0271  0.1852 -0.1897
35831POPC   C1B75960   3.509  21.517  18.900  0.2875 -0.0492 -0.0380
35831POPC   C2B75961   3.300  21.256  18.618 -0.1722  0.1205 -0.0533
35831POPC   C3B75962   2.933  21.116  18.356  0.2374 -0.3094 -0.2598
35831POPC   C4B75963   2.798  20.771  18.053 -0.2206 -0.3214  0.2176
35832POPC   NC375964   2.679  29.151  20.380  0.0504 -0.3246 -0.0411
35832POPC   PO475965   2.394  28.918  20.547 -0.0466 -0.0236  0.0548
35832POPC   GL175966   2.239  28.785  20.175 -0.3439  0.2763  0.0445
35832POPC   GL275967   2.297  29.071  20.061  0.1535 -0.1253  0.1547
35832POPC   C1A75968   1.984  28.854  19.775 -0.0680  0.0540 -0.3890
35832POPC   D2A75969   2.148  29.011  19.330  0.1741 -0.1091  0.3374
35832POPC   C3A75970   2.355  28.777  19.015  0.1879 -0.0282 -0.4838
35832POPC   C4A75971   2.434  28.380  18.774  0.0602  0.0437 -0.1457
35832POPC   C1B75972   2.270  29.296  19.712 -0.1135 -0.3767 -0.0696
35832POPC   C2B75973   2.407  29.597  19.361  0.0870 -0.1548  0.1468
35832POPC   C3B75974   2.439  29.979  19.167  0.1400 -0.0370  0.2015
35832POPC   C4B75975   2.606  30.378  18.981 -0.1358 -0.0121  0.1873
35833POPC   NC375976   7.347  28.114  20.412  0.1247  0.0267  0.1442
35833POPC   PO475977   7.287  28.501  20.332 -0.2988 -0.0525  0.0435
35833POPC   GL175978   7.214  28.278  19.941 -0.0568 -0.0909  0.0692
35833POPC   GL275979   7.191  28.034  19.915 -0.1481  0.1203  0.0258
35833POPC   C1A75980   7.348  28.226  19.517 -0.1481 -0.1244  0.1367
35833POPC   D2A75981   7.618  28.275  19.139  0.0654 -0.1953  0.0461
35833POPC   C3A75982   7.446  28.161  18.732  0.1106 -0.0716  0.1687
35833POPC   C4A75983   7.563  27.858  18.410 -0.0729 -0.0803 -0.0558
35833POPC   C1B75984   6.861  27.994  19.598 -0.0672 -0.1130 -0.1579
35833POPC   C2B75985   6.670  28.103  19.198 -0.1555  0.2044  0.3292
35833POPC   C3B75986   6.370  28.133  18.811  0.0466  0.1019 -0.1250
35833POPC   C4B75987   6.136  28.274  18.451  0.0928 -0.1663  0.2249
35834POPC   NC375988  12.257  31.631  20.121 -0.0219  0.1104 -0.2617
35834POPC   PO475989  12.397  31.306  20.264 -0.0785  0.1147  0.1753
35834POPC   GL175990  12.379  31.288  19.895  0.1361 -0.0256  0.0832
35834POPC   GL275991  12.577  31.352  19.749  0.3446  0.3021  0.2402
35834POPC   C1A75992  12.081  30.988  19.688 -0.2292 -0.1428 -0.5156
35834POPC   D2A75993  11.871  30.708  19.407  0.0271  0.0982  0.1367
35834POPC   C3A75994  11.975  30.567  18.947 -0.1265 -0.0354  0.2853
35834POPC   C4A75995  12.097  30.361  18.571 -0.0489  0.0426 -0.3652
35834POPC   C1B75996  12.224  31.384  19.448  0.0324  0.0846 -0.0223
35834POPC   C2B75997  12.130  31.678  19.044 -0.0578 -0.2416  0.4130
35834POPC   C3B75998  12.530  31.775  18.829 -0.0319  0.4945  0.2779
35834POPC   C4B75999  12.918  31.584  18.889  0.3222  0.1388 -0.0594
35835POPC   NC376000   4.788  30.588  21.003 -0.0053 -0.0862  0.2100
35835POPC   PO476001   5.121  30.602  20.791  0.1954  0.0206  0.1946
35835POPC   GL176002   4.912  30.600  20.416  0.0094 -0.2859 -0.0874
35835POPC   GL276003   5.011  30.881  20.388  0.1071 -0.1271  0.2648
35835POPC   C1A76004   4.974  30.538  19.938 -0.1597  0.1809  0.0536
35835POPC   D2A76005   4.924  30.364  19.493 -0.4510  0.2864 -0.0617
35835POPC   C3A76006   5.021  29.961  19.222 -0.2557  0.0706 -0.1433
35835POPC   C4A76007   5.335  30.017  18.906 -0.2109  0.0414  0.2835
35835POPC   C1B76008   4.831  31.012  20.051  0.2639 -0.1441  0.1508
35835POPC   C2B76009   4.714  30.997  19.639 -0.1362 -0.1746  0.1966
35835POPC   C3B76010   4.806  30.854  19.160  0.0808  0.0148  0.1096
35835POPC   C4B76011   4.783  30.448  18.990 -0.0843  0.0202 -0.0562
35836POPC   NC376012   8.324  30.622  20.503 -0.3126 -0.0040  0.1356
35836POPC   PO476013   8.317  30.281  20.284 -0.0038  0.0998 -0.2773
35836POPC   GL176014   8.447  30.344  19.914  0.0302  0.2457  0.0562
35836POPC   GL276015   8.723  30.252  19.892  0.2283  0.0251  0.1279
35836POPC   C1A76016   8.534  30.501  19.452 -0.0212 -0.0207 -0.0626
35836POPC   D2A76017   8.584  30.446  19.033 -0.2011 -0.0846  0.0582
35836POPC   C3A76018   8.929  30.460  18.660 -0.1642  0.1355  0.2223
35836POPC   C4A76019   8.905  30.719  18.297  0.2257 -0.0709  0.1062
35836POPC   C1B76020   8.979  30.299  19.520  0.1012  0.1123 -0.1797
35836POPC   C2B76021   8.952  30.131  19.106  0.1028  0.4638 -0.1659
35836POPC   C3B76022   9.002  30.008  18.649  0.1569  0.1180  0.1802
35836POPC   C4B76023   9.275  29.769  18.305 -0.1561 -0.0692  0.1144
35837POPC   NC376024   1.272  19.909  20.183 -0.0898 -0.2265  0.1306
35837POPC   PO476025   1.401  19.683  19.888  0.0029  0.0186 -0.0441
35837POPC   GL176026   1.372  19.542  19.524  0.0171  0.1015  0.2546
35837POPC   GL276027   1.389  19.342  19.301  0.1054 -0.1442 -0.2079
35837POPC   C1A76028   1.284  19.821  19.183 -0.0777  0.0182  0.1398
35837POPC   D2A76029   1.086  19.932  18.766  0.2305 -0.2207  0.1121
35837POPC   C3A76030   0.817  19.830  18.423  0.1344  0.0683  0.1234
35837POPC   C4A76031   0.510  19.850  18.028  0.2232  0.1688 -0.0069
35837POPC   C1B76032   1.386  19.161  18.872 -0.1222  0.3013 -0.1266
35837POPC   C2B76033   1.373  18.986  18.427  0.1199 -0.3546 -0.1048
35837POPC   C3B76034   1.540  18.927  18.009 -0.1487 -0.0586  0.0840
35837POPC   C4B76035   1.954  18.774  17.738  0.0437 -0.1932 -0.4910
35838POPC   NC376036  14.588  30.844  20.360 -0.1662 -0.1631  0.4515
35838POPC   PO476037  14.450  31.199  20.176  0.1925  0.0576  0.0302
35838POPC   GL176038  14.412  30.987  19.773  0.3429 -0.0423  0.3224
35838POPC   GL276039  14.244  30.787  19.788  0.1310 -0.1555  0.0603
35838POPC   C1A76040  14.597  30.872  19.348 -0.0009  0.0201 -0.3664
35838POPC   D2A76041  14.922  30.822  19.048  0.0479  0.0528  0.1418
35838POPC   C3A76042  14.910  30.608  18.621 -0.5174  0.3121 -0.2347
35838POPC   C4A76043  15.092  30.172  18.621  0.0086  0.1942  0.1821
35838POPC   C1B76044  13.950  30.686  19.502 -0.1140 -0.0121 -0.1636
35838POPC   C2B76045  13.783  30.512  19.110 -0.4385  0.0880 -0.3665
35838POPC   C3B76046  13.364  30.432  18.869 -0.1122  0.1293  0.4158
35838POPC   C4B76047  13.021  30.584  18.577  0.1631 -0.2705  0.3552
35839POPC   NC376048   4.947  18.035  19.726  0.1838  0.0930 -0.4499
35839POPC   PO476049   4.738  17.854  19.972  0.2985  0.2805 -0.0003
35839POPC   GL176050   4.872  17.494  19.729 -0.3647  0.2165  0.0242
35839POPC   GL276051   5.150  17.570  19.696  0.1287 -0.2459 -0.1162
35839POPC   C1A76052   4.625  17.203  19.456 -0.1353 -0.1202  0.1477
35839POPC   D2A76053   4.583  17.217  18.980 -0.2037 -0.0768 -0.2481
35839POPC   C3A76054   4.429  16.922  18.650 -0.2209  0.2676  0.0218
35839POPC   C4A76055   4.373  16.516  18.428 -0.0353 -0.2064  0.0730
35839POPC   C1B76056   5.039  17.410  19.241  0.0358 -0.1853 -0.0174
35839POPC   C2B76057   5.070  17.178  18.870 -0.0942 -0.0819  0.0368
35839POPC   C3B76058   5.297  16.867  18.659  0.0446 -0.0738  0.0187
35839POPC   C4B76059   5.324  16.943  18.219  0.4327  0.1862 -0.2496
35840POPC   NC376060   9.918  30.403  20.457  0.0421 -0.2600 -0.1120
35840POPC   PO476061  10.246  30.655  20.386  0.2145 -0.0092  0.0432
35840POPC   GL176062  10.235  30.424  20.053 -0.1295 -0.1149 -0.0503
35840POPC   GL276063  10.148  30.569  19.735 -0.1054 -0.0828 -0.0147
35840POPC   C1A76064  10.361  30.123  19.732 -0.1128 -0.1419  0.1005
35840POPC   D2A76065  10.401  29.710  19.552 -0.0520  0.1293 -0.0439
35840POPC   C3A76066  10.310  29.639  19.138  0.0754 -0.1444 -0.0493
35840POPC   C4A76067  10.264  29.247  18.822  0.0282  0.2237  0.0352
35840POPC   C1B76068  10.493  30.529  19.505  0.2465 -0.1070  0.0857
35840POPC   C2B76069  10.728  30.417  19.144 -0.1667  0.0610 -0.0208
35840POPC   C3B76070  11.152  30.282  18.999 -0.2868 -0.1003  0.0821
35840POPC   C4B76071  11.400  29.883  18.861  0.1148 -0.1587  0.2237
35841POPC   NC376072  13.486  18.806  18.806  0.0372 -0.1928 -0.2097
35841POPC   PO476073  13.380  18.421  18.822 -0.0080  0.1131  0.2090
35841POPC   GL176074  13.204  18.111  18.606  0.2281  0.0184  0.1173
35841POPC   GL276075  13.086  17.946  18.805  0.1750 -0.3512 -0.0573
35841POPC   C1A76076  13.246  18.179  18.141 -0.0213 -0.2099  0.2022
35841POPC   D2A76077  13.124  18.240  17.710  0.4145  0.1371  0.0392
35841POPC   C3A76078  12.845  18.520  17.480  0.2080  0.0839 -0.1693
35841POPC   C4A76079  12.591  18.531  17.134 -0.1205  0.2878 -0.1837
35841POPC   C1B76080  13.324  17.662  18.473 -0.1312 -0.0454 -0.0143
35841POPC   C2B76081  13.397  17.760  18.020 -0.1921  0.0956 -0.0354
35841POPC   C3B76082  13.449  17.836  17.586  0.0677  0.2590  0.0402
35841POPC   C4B76083  13.186  17.899  17.237 -0.4828 -0.1456  0.0008
35842POPC   NC376084   6.873  17.228  19.630  0.2511  0.0519 -0.2724
35842POPC   PO476085   6.896  17.613  19.658 -0.4361  0.1625  0.1901
35842POPC   GL176086   6.791  17.605  19.194  0.1110 -0.3906 -0.0333
35842POPC   GL276087   6.803  17.317  19.109 -0.0265 -0.0799 -0.1314
35842POPC   C1A76088   6.484  17.807  18.929  0.0484  0.0863  0.0472
35842POPC   D2A76089   6.229  17.642  18.630  0.0673 -0.1958  0.0834
35842POPC   C3A76090   6.339  17.214  18.503 -0.4505 -0.1893 -0.0122
35842POPC   C4A76091   6.466  16.755  18.354 -0.2323 -0.0939 -0.0674
35842POPC   C1B76092   6.911  17.009  18.816 -0.1528  0.4540  0.1500
35842POPC   C2B76093   6.863  16.618  18.635 -0.4476  0.0036  0.0401
35842POPC   C3B76094   6.816  16.402  18.196 -0.1288 -0.0257  0.1107
35842POPC   C4B76095   7.125  16.171  17.962 -0.0389  0.0891 -0.0265
35843POPC   NC376096  13.528  21.850  18.961 -0.2160 -0.1342  0.0924
35843POPC   PO476097  13.855  22.022  18.908  0.1997  0.3028  0.1273
35843POPC   GL176098  13.990  22.003  18.591 -0.1787 -0.4584 -0.0206
35843POPC   GL276099  14.200  21.888  18.457 -0.3801  0.1941  0.0827
35843POPC   C1A76100  13.772  21.854  18.213 -0.1226 -0.4940 -0.1057
35843POPC   D2A76101  13.421  21.858  17.885 -0.0838 -0.2734 -0.2456
35843POPC   C3A76102  13.202  22.155  17.743 -0.0491 -0.3023  0.3227
35843POPC   C4A76103  12.741  22.205  17.585 -0.0459  0.0706 -0.0691
35843POPC   C1B76104  14.560  22.124  18.290 -0.0504  0.3894 -0.0762
35843POPC   C2B76105  14.860  22.182  17.965 -0.0353  0.0892 -0.0671
35843POPC   C3B76106  15.068  22.139  17.541  0.1075  0.2602 -0.2359
35843POPC   C4B76107  15.382  21.828  17.470 -0.0212 -0.0031  0.1478
35844POPC   NC376108   6.581  18.937  18.570 -0.3282  0.0051  0.0875
35844POPC   PO476109   6.516  19.192  18.870  0.1995  0.2173  0.0161
35844POPC   GL176110   6.197  19.254  18.657  0.0451 -0.4967  0.2919
35844POPC   GL276111   5.979  19.126  18.710 -0.0437  0.1168 -0.1956
35844POPC   C1A76112   6.109  19.218  18.182  0.1697  0.0214 -0.2967
35844POPC   D2A76113   5.970  19.471  17.886  0.1509  0.2204 -0.1675
35844POPC   C3A76114   5.773  19.214  17.573 -0.2024 -0.1481  0.1561
35844POPC   C4A76115   5.841  18.956  17.212  0.1009  0.0624 -0.0099
35844POPC   C1B76116   6.105  18.763  18.361  0.1821  0.0740 -0.3606
35844POPC   C2B76117   6.019  18.434  18.015  0.4330 -0.0030 -0.2334
35844POPC   C3B76118   5.900  18.112  17.727 -0.0061  0.1071  0.0397
35844POPC   C4B76119   6.059  17.878  17.357 -0.4467  0.0733 -0.0999
35845POPC   NC376120   3.412  23.976  19.612 -0.0153  0.1893  0.1396
35845POPC   PO476121   3.767  24.071  19.720 -0.0416 -0.0115  0.1338
35845POPC   GL176122   3.697  24.430  19.537 -0.1763  0.4172  0.1320
35845POPC   GL276123   3.939  24.420  19.274  0.2328 -0.0645  0.1757
35845POPC   C1A76124   3.484  24.286  19.130 -0.2913  0.1758 -0.3310
35845POPC   D2A76125   3.214  24.276  18.795  0.0455 -0.0278 -0.0099
35845POPC   C3A76126   3.295  24.497  18.385  0.0907 -0.0849  0.1516
35845POPC   C4A76127   3.401  24.444  17.907  0.2469  0.0942 -0.0030
35845POPC   C1B76128   4.115  24.595  18.862 -0.1036  0.1845  0.0886
35845POPC   C2B76129   4.191  24.734  18.413 -0.1234  0.3023  0.2267
35845POPC   C3B76130   4.626  24.754  18.178  0.3328  0.0718 -0.0371
35845POPC   C4B76131   4.643  24.612  17.709  0.2778 -0.0372  0.0897
35846POPC   NC376132   4.219  16.847  20.575  0.3444  0.4026 -0.6032
35846POPC   PO476133   4.265  16.986  20.239 -0.0433 -0.2121  0.0272
35846POPC   GL176134   4.070  17.088  19.830  0.4003 -0.1838  0.0832
35846POPC   GL276135   4.308  16.901  19.699  0.0812  0.5344  0.1506
35846POPC   C1A76136   4.028  17.192  19.380  0.0672  0.0846  0.0828
35846POPC   D2A76137   4.076  17.169  18.893 -0.1119 -0.0173 -0.2465
35846POPC   C3A76138   3.908  16.843  18.610  0.1764 -0.3218  0.2623
35846POPC   C4A76139   3.564  16.502  18.666  0.0612 -0.1379 -0.0815
35846POPC   C1B76140   4.338  16.800  19.162  0.0635 -0.1146 -0.0503
35846POPC   C2B76141   4.145  16.505  18.904 -0.2260 -0.1963  0.1972
35846POPC   C3B76142   3.993  16.269  18.569 -0.0623  0.4063  0.2830
35846POPC   C4B76143   3.958  16.269  18.137  0.2598 -0.0260 -0.4198
35847POPC   NC376144   9.398  22.929  11.490 -0.1866  0.1180 -0.0227
35847POPC   PO476145   9.558  23.272  11.339  0.1170 -0.1110  0.0528
35847POPC   GL176146   9.458  23.460  11.621  0.0755 -0.2254  0.2097
35847POPC   GL276147   9.619  23.644  11.810  0.0047 -0.2416  0.0460
35847POPC   C1A76148   9.236  23.835  11.546 -0.1017  0.1509  0.1785
35847POPC   D2A76149   9.222  24.309  11.432 -0.4290 -0.0337  0.1079
35847POPC   C3A76150   8.789  24.444  11.375  0.3713 -0.0182  0.1301
35847POPC   C4A76151   8.360  24.347  11.585  0.1073  0.1354  0.0067
35847POPC   C1B76152   9.750  23.896  12.176 -0.1595 -0.0630 -0.0457
35847POPC   C2B76153   9.607  24.039  12.591 -0.1173 -0.0350  0.1384
35847POPC   C3B76154   9.560  24.105  13.047  0.0868  0.1350 -0.1366
35847POPC   C4B76155   9.637  24.239  13.506  0.0624 -0.0682  0.1728
35848POPC   NC376156  15.800  18.436  19.501  0.0937 -0.1578  0.3324
35848POPC   PO476157  15.580  18.648  19.762  0.2198 -0.0280  0.3346
35848POPC   GL176158  15.605  18.878  19.480  0.1302  0.1189 -0.2000
35848POPC   GL276159  15.413  19.072  19.320  0.2687  0.1602 -0.2636
35848POPC   C1A76160  15.796  18.754  19.073 -0.0717  0.3820 -0.0936
35848POPC   D2A76161  15.871  18.541  18.689 -0.0895  0.2177  0.0461
35848POPC   C3A76162  15.891  18.709  18.282  0.2161  0.0156 -0.2462
35848POPC   C4A76163  16.046  18.841  17.833 -0.0584 -0.0247  0.4525
35848POPC   C1B76164  15.309  19.281  18.935 -0.2068 -0.2375 -0.0394
35848POPC   C2B76165  15.224  19.301  18.496 -0.2084  0.2004  0.2323
35848POPC   C3B76166  15.348  19.598  18.171  0.0235 -0.0372 -0.0910
35848POPC   C4B76167  15.303  19.952  17.924 -0.1289  0.0403 -0.0715
35849POPC   NC376168   4.377  19.724  19.121  0.0710  0.4271  0.3460
35849POPC   PO476169   4.023  19.789  19.316  0.1764 -0.0827 -0.1791
35849POPC   GL176170   3.754  19.877  18.917  0.0044 -0.0111  0.0946
35849POPC   GL276171   3.887  19.740  18.700  0.1618 -0.0531 -0.0811
35849POPC   C1A76172   3.678  20.094  18.517 -0.0177  0.3429  0.0116
35849POPC   D2A76173   3.655  20.094  18.090  0.0557 -0.0024  0.2538
35849POPC   C3A76174   3.770  19.776  17.831  0.2965  0.0656 -0.0421
35849POPC   C4A76175   3.769  19.482  17.523  0.5225  0.2209 -0.1626
35849POPC   C1B76176   3.681  19.481  18.265 -0.1681 -0.1466 -0.3013
35849POPC   C2B76177   3.664  19.162  17.894  0.4338 -0.0528  0.2480
35849POPC   C3B76178   3.745  18.759  17.662  0.0252  0.1641  0.1090
35849POPC   C4B76179   3.386  18.478  17.613 -0.0335 -0.0966 -0.1483
35850POPC   NC376180  14.887  22.353  19.305 -0.1850 -0.3790  0.0750
35850POPC   PO476181  15.034  22.580  19.600  0.1687 -0.1028 -0.1948
35850POPC   GL176182  14.991  22.800  19.223  0.3557 -0.0153  0.3279
35850POPC   GL276183  14.707  22.979  19.151  0.1694  0.0087  0.3074
35850POPC   C1A76184  15.132  22.867  18.777  0.1107  0.0033  0.0506
35850POPC   D2A76185  15.077  22.951  18.336 -0.1555 -0.2033  0.3039
35850POPC   C3A76186  15.380  23.009  18.024  0.2334 -0.2238 -0.0080
35850POPC   C4A76187  15.610  23.263  17.703 -0.3142 -0.0742 -0.2073
35850POPC   C1B76188  15.121  23.274  19.093  0.0036  0.1155 -0.1187
35850POPC   C2B76189  15.465  23.560  18.935 -0.2910 -0.0536 -0.4384
35850POPC   C3B76190  15.616  23.768  18.546  0.1167 -0.3007 -0.0410
35850POPC   C4B76191  15.680  23.804  18.095 -0.2056  0.4873 -0.0195
35851POPC   NC376192   6.275  26.084  19.290  0.4224  0.2160 -0.0916
35851POPC   PO476193   6.420  26.260  19.594 -0.0374 -0.2198 -0.1956
35851POPC   GL176194   6.480  26.463  19.299 -0.2138 -0.2155 -0.1121
35851POPC   GL276195   6.709  26.326  19.161  0.0079 -0.2521 -0.0847
35851POPC   C1A76196   6.487  26.803  18.930  0.4633  0.0658  0.1192
35851POPC   D2A76197   6.365  27.138  18.559 -0.0291  0.0419 -0.0917
35851POPC   C3A76198   6.063  27.062  18.191  0.1599  0.3221  0.0861
35851POPC   C4A76199   5.830  26.757  17.998  0.0937 -0.1062  0.0431
35851POPC   C1B76200   6.640  26.358  18.694  0.0118 -0.0754 -0.1777
35851POPC   C2B76201   6.867  26.718  18.552 -0.2012 -0.0686 -0.0750
35851POPC   C3B76202   6.786  26.996  18.195 -0.2190  0.0562  0.1911
35851POPC   C4B76203   6.495  27.346  18.072  0.1238  0.0890  0.3154
35852POPC   NC376204  13.282  25.755  19.471 -0.0843  0.4600 -0.1083
35852POPC   PO476205  13.549  26.038  19.634  0.3120  0.1173 -0.0407
35852POPC   GL176206  13.586  26.312  19.248 -0.1021 -0.1018 -0.0128
35852POPC   GL276207  13.232  26.276  19.233 -0.0425 -0.0508  0.1613
35852POPC   C1A76208  13.873  26.202  18.943  0.0527  0.0143  0.2117
35852POPC   D2A76209  14.117  25.995  18.652  0.2704 -0.0748 -0.1736
35852POPC   C3A76210  14.067  25.545  18.676  0.0908 -0.1332 -0.0233
35852POPC   C4A76211  14.336  25.250  18.511 -0.2587  0.0427 -0.0371
35852POPC   C1B76212  13.332  25.918  18.886  0.0317  0.1936  0.1424
35852POPC   C2B76213  13.625  25.982  18.540  0.0515 -0.0429  0.0616
35852POPC   C3B76214  13.746  26.208  18.163 -0.0263 -0.1583 -0.1140
35852POPC   C4B76215  13.426  26.206  17.800  0.1592  0.3101  0.0972
35853POPC   NC376216  15.207  30.815  20.714  0.0374 -0.1296  0.1019
35853POPC   PO476217  14.931  31.054  20.602  0.2167  0.1667  0.2311
35853POPC   GL176218  14.993  30.994  20.220  0.3108  0.1145  0.0811
35853POPC   GL276219  15.154  30.754  20.148  0.0518 -0.2802 -0.0066
35853POPC   C1A76220  15.142  31.326  19.870  0.1142  0.3407  0.3106
35853POPC   D2A76221  15.093  31.715  19.628  0.0548 -0.1290  0.0587
35853POPC   C3A76222  15.346  31.580  19.255 -0.1438  0.2764 -0.0067
35853POPC   C4A76223  15.738  31.486  18.968  0.1886 -0.1675 -0.0391
35853POPC   C1B76224  15.236  30.469  19.796 -0.1490 -0.3085 -0.0792
35853POPC   C2B76225  14.981  30.353  19.438 -0.0341 -0.3079  0.1064
35853POPC   C3B76226  14.797  30.362  19.022  0.1697 -0.1338  0.3601
35853POPC   C4B76227  14.545  30.240  18.616 -0.1225 -0.0967 -0.0013
35854POPC   NC376228  11.463  22.692  17.651  0.0066  0.0500 -0.0510
35854POPC   PO476229  11.443  22.894  17.308 -0.2164  0.1498 -0.1804
35854POPC   GL176230  11.651  22.907  16.946  0.1004 -0.0982  0.2085
35854POPC   GL276231  11.694  23.159  16.769  0.2413  0.2335  0.3609
35854POPC   C1A76232  11.972  22.645  16.719  0.0973 -0.0997 -0.2655
35854POPC   D2A76233  12.146  22.546  16.396  0.0614  0.0081  0.2491
35854POPC   C3A76234  12.403  22.782  16.165 -0.1341  0.1973  0.0377
35854POPC   C4A76235  12.569  23.113  15.892  0.0046  0.0444 -0.2355
35854POPC   C1B76236  11.771  23.416  16.414 -0.1486 -0.0553  0.0920
35854POPC   C2B76237  12.126  23.647  16.183 -0.0370  0.0917 -0.1707
35854POPC   C3B76238  12.297  23.852  15.837 -0.0643  0.2411  0.2132
35854POPC   C4B76239  12.291  23.920  15.405  0.3981 -0.1774  0.3354
35855POPC   NC376240   4.597  23.213  18.730  0.0195 -0.0192  0.0036
35855POPC   PO476241   4.586  22.881  18.963 -0.2806  0.0287  0.3427
35855POPC   GL176242   4.222  23.045  18.956  0.1842  0.1770  0.0803
35855POPC   GL276243   4.116  23.313  18.999 -0.4545  0.2935 -0.1373
35855POPC   C1A76244   3.856  22.891  18.754 -0.0902  0.0662 -0.0341
35855POPC   D2A76245   3.784  22.601  18.408 -0.0588 -0.0846  0.0289
35855POPC   C3A76246   3.593  22.873  18.080 -0.2012  0.4403  0.0460
35855POPC   C4A76247   3.718  23.203  17.843 -0.1552 -0.3310 -0.0014
35855POPC   C1B76248   4.143  23.289  18.522  0.1055  0.2812  0.1232
35855POPC   C2B76249   4.124  23.018  18.180 -0.0434 -0.0974 -0.2117
35855POPC   C3B76250   4.104  22.852  17.715 -0.1364 -0.1248 -0.2182
35855POPC   C4B76251   3.713  22.887  17.440 -0.1458  0.0842  0.2756
35856POPC   NC376252   7.219  17.845  19.369 -0.0114 -0.2280 -0.3253
35856POPC   PO476253   7.608  17.927  19.361 -0.2181 -0.4161 -0.0896
35856POPC   GL176254   7.575  17.783  19.035  0.3253  0.2196  0.1666
35856POPC   GL276255   7.464  17.985  18.838 -0.1211 -0.2346 -0.3889
35856POPC   C1A76256   7.609  17.683  18.532 -0.0817  0.0697 -0.0028
35856POPC   D2A76257   7.873  17.359  18.347  0.3192  0.2983  0.0880
35856POPC   C3A76258   7.773  16.974  18.124 -0.0286 -0.0818 -0.0388
35856POPC   C4A76259   7.715  16.582  17.890 -0.1141  0.0463  0.2343
35856POPC   C1B76260   7.076  17.761  18.788  0.2358  0.0039 -0.0679
35856POPC   C2B76261   6.789  17.411  18.612  0.0293  0.0944  0.0403
35856POPC   C3B76262   6.847  17.115  18.286  0.4246 -0.2477  0.2193
35856POPC   C4B76263   6.831  17.010  17.819 -0.0066  0.0589  0.0163
35857POPC   NC376264  14.799  31.525  20.329  0.1641  0.0266  0.0525
35857POPC   PO476265  15.119  31.583  20.531  0.0787 -0.1883  0.1964
35857POPC   GL176266  15.419  31.685  20.207  0.3045 -0.2199 -0.0229
35857POPC   GL276267  15.311  31.943  20.143  0.0412 -0.3694 -0.0375
35857POPC   C1A76268  15.607  31.652  19.724  0.0669  0.2489  0.2289
35857POPC   D2A76269  15.930  31.417  19.517 -0.1298 -0.0328  0.2936
35857POPC   C3A76270  16.180  31.573  19.168  0.1694  0.1135 -0.1307
35857POPC   C4A76271  16.029  31.921  18.847 -0.0434 -0.0140 -0.1486
35857POPC   C1B76272  15.664  32.141  19.893  0.0353  0.0355 -0.2814
35857POPC   C2B76273  15.862  32.509  19.749  0.3197  0.0970 -0.2167
35857POPC   C3B76274  16.178  32.642  19.518  0.1515 -0.0096 -0.0078
35857POPC   C4B76275  16.202  32.733  19.089  0.0042 -0.1459  0.0914
35858POPC   NC376276   2.980  31.870  20.595  0.1181  0.1595 -0.3711
35858POPC   PO476277   3.275  31.691  20.763 -0.0050 -0.2284  0.1694
35858POPC   GL176278   3.423  31.774  20.378  0.3652  0.3174 -0.0128
35858POPC   GL276279   3.558  31.689  20.159 -0.0111 -0.0640  0.2650
35858POPC   C1A76280   3.155  31.887  19.984  0.1635  0.0613 -0.0758
35858POPC   D2A76281   3.006  31.553  19.667 -0.2717 -0.1128 -0.0355
35858POPC   C3A76282   3.125  31.344  19.282  0.1915 -0.1924 -0.1036
35858POPC   C4A76283   3.217  31.317  18.777  0.1738  0.0319  0.0504
35858POPC   C1B76284   3.536  31.310  19.849 -0.0811 -0.3339  0.4159
35858POPC   C2B76285   3.521  31.076  19.478  0.0531  0.0433 -0.1650
35858POPC   C3B76286   3.248  30.890  19.113 -0.0789 -0.1695 -0.4534
35858POPC   C4B76287   2.876  30.782  18.944  0.3308  0.1440 -0.1203
35859POPC   NC376288   5.286  17.150  20.478 -0.1706  0.0393  0.0729
35859POPC   PO476289   5.165  17.221  20.116 -0.1670  0.1500 -0.0808
35859POPC   GL176290   5.397  17.010  19.824  0.2327  0.1051 -0.0136
35859POPC   GL276291   5.171  16.960  19.632  0.1219  0.0297 -0.1118
35859POPC   C1A76292   5.698  16.753  19.715  0.1775  0.1025  0.0135
35859POPC   D2A76293   6.019  16.467  19.711 -0.0036 -0.1629  0.1623
35859POPC   C3A76294   6.150  16.049  19.538 -0.3015 -0.0383  0.2252
35859POPC   C4A76295   6.202  15.664  19.188  0.0992 -0.1236  0.0409
35859POPC   C1B76296   5.321  16.923  19.197  0.1467 -0.0850  0.0477
35859POPC   C2B76297   5.577  17.194  18.936  0.0121 -0.1879  0.2501
35859POPC   C3B76298   5.755  17.071  18.515 -0.3551 -0.0545  0.1408
35859POPC   C4B76299   5.773  16.924  18.073 -0.0627 -0.1220  0.0574
35860POPC   NC376300   0.918  28.934  20.826 -0.2979 -0.1469 -0.3429
35860POPC   PO476301   0.695  28.616  20.909  0.2009  0.2159 -0.5018
35860POPC   GL176302   0.705  28.554  20.511 -0.0593 -0.0030  0.2736
35860POPC   GL276303   0.684  28.800  20.413 -0.3199 -0.1251  0.0852
35860POPC   C1A76304   0.849  28.214  20.351  0.1284  0.0580 -0.0736
35860POPC   D2A76305   0.675  27.795  20.100 -0.0946  0.0585  0.0002
35860POPC   C3A76306   0.324  27.823  19.875  0.3839  0.0394  0.1080
35860POPC   C4A76307  -0.108  27.870  19.928 -0.0858 -0.0304  0.0441
35860POPC   C1B76308   0.801  28.838  19.957  0.3118 -0.0211  0.1112
35860POPC   C2B76309   0.690  28.994  19.543  0.1086 -0.0322  0.1005
35860POPC   C3B76310   0.717  29.275  19.108  0.3721 -0.0951 -0.4431
35860POPC   C4B76311   1.063  29.450  18.827 -0.0247  0.0035 -0.2482
35861POPC   NC376312   3.772  27.966  20.236  0.0033 -0.1173 -0.0535
35861POPC   PO476313   3.694  27.673  20.471 -0.2718  0.0584 -0.1982
35861POPC   GL176314   3.782  27.460  20.188  0.2497 -0.5136  0.1434
35861POPC   GL276315   3.741  27.579  19.938 -0.3550  0.0330  0.0340
35861POPC   C1A76316   3.972  27.117  19.965 -0.1218 -0.0756 -0.1844
35861POPC   D2A76317   4.286  26.928  19.728  0.1611  0.2076 -0.1801
35861POPC   C3A76318   4.216  26.851  19.271 -0.1896  0.1865 -0.2661
35861POPC   C4A76319   3.958  26.549  19.060 -0.2712  0.1510  0.2412
35861POPC   C1B76320   3.534  27.652  19.557 -0.0371  0.5495  0.1216
35861POPC   C2B76321   3.558  27.564  19.116 -0.1016 -0.2067  0.1833
35861POPC   C3B76322   3.645  27.512  18.687 -0.0448  0.1895  0.3224
35861POPC   C4B76323   3.322  27.278  18.399 -0.3383 -0.1691  0.4119
35862POPC   NC376324   3.647  20.832  19.553 -0.0103 -0.1713 -0.3962
35862POPC   PO476325   3.241  20.989  19.584  0.1642 -0.1156 -0.4091
35862POPC   GL176326   3.345  20.797  19.171 -0.2749  0.1929  0.4273
35862POPC   GL276327   3.521  20.981  19.033 -0.0835  0.0395  0.1804
35862POPC   C1A76328   3.032  20.837  18.864  0.1245  0.1231  0.1672
35862POPC   D2A76329   2.693  20.747  18.583 -0.0969 -0.4421 -0.4349
35862POPC   C3A76330   2.664  20.315  18.462 -0.2473  0.0449 -0.3042
35862POPC   C4A76331   2.941  19.920  18.475 -0.2529 -0.1342 -0.0623
35862POPC   C1B76332   3.480  20.786  18.584 -0.1554  0.2028 -0.0754
35862POPC   C2B76333   3.390  20.692  18.157  0.1584  0.0740  0.1583
35862POPC   C3B76334   3.570  20.482  17.826  0.1446 -0.2325 -0.0352
35862POPC   C4B76335   3.676  20.341  17.367 -0.3149  0.1855 -0.2050
35863POPC   NC376336  10.612  23.366  13.620  0.0789  0.1200  0.1351
35863POPC   PO476337  10.496  23.022  13.382 -0.0086 -0.4843 -0.1288
35863POPC   GL176338  10.370  23.329  13.185  0.4001  0.2272 -0.2234
35863POPC   GL276339  10.061  23.284  13.156  0.2220  0.2246  0.1024
35863POPC   C1A76340  10.518  23.754  12.981 -0.2138 -0.4586  0.0651
35863POPC   D2A76341  10.651  24.048  12.644  0.0677 -0.0457  0.1303
35863POPC   C3A76342  10.685  24.329  12.270  0.1425 -0.1425 -0.1075
35863POPC   C4A76343  10.492  24.695  11.987 -0.4552  0.1261 -0.1301
35863POPC   C1B76344   9.719  23.564  13.126 -0.2537 -0.3224 -0.1438
35863POPC   C2B76345   9.384  23.649  12.837 -0.0986 -0.0683  0.0300
35863POPC   C3B76346   8.973  23.803  12.683 -0.2396 -0.0808  0.0720
35863POPC   C4B76347   8.601  23.851  12.426  0.1751 -0.0293  0.1279
35864POPC   NC376348   9.451  22.997  15.851 -0.0686 -0.0329  0.0474
35864POPC   PO476349   9.119  22.779  15.819 -0.2624  0.0193  0.0433
35864POPC   GL176350   9.005  22.927  15.509 -0.1079 -0.0105  0.0655
35864POPC   GL276351   9.148  23.215  15.526 -0.1992 -0.0299 -0.1076
35864POPC   C1A76352   8.678  23.022  15.182  0.0967  0.0070 -0.1571
35864POPC   D2A76353   8.312  23.062  14.932 -0.0740 -0.0988  0.0900
35864POPC   C3A76354   7.905  23.329  15.020 -0.3091  0.0526  0.0777
35864POPC   C4A76355   7.530  23.517  15.167 -0.0364  0.1512 -0.0947
35864POPC   C1B76356   8.985  23.400  15.153 -0.0442 -0.0797  0.3413
35864POPC   C2B76357   8.731  23.614  14.869  0.2733  0.0514  0.3388
35864POPC   C3B76358   8.755  23.862  14.404  0.0318  0.1016 -0.0005
35864POPC   C4B76359   8.963  24.284  14.169 -0.0056 -0.0683  0.0160
35865POPC   NC376360  14.469  23.840  19.667  0.1236 -0.1113  0.2615
35865POPC   PO476361  14.134  23.714  19.644  0.1793 -0.3235 -0.1325
35865POPC   GL176362  14.177  23.693  19.197 -0.1997  0.0752 -0.3191
35865POPC   GL276363  14.076  23.785  18.975 -0.4182 -0.1709 -0.0528
35865POPC   C1A76364  14.533  23.447  18.933  0.0074 -0.1431 -0.0026
35865POPC   D2A76365  14.853  23.268  18.682 -0.0675  0.0547 -0.2531
35865POPC   C3A76366  15.374  23.333  18.547  0.1939  0.2506 -0.0318
35865POPC   C4A76367  15.744  23.267  18.297 -0.0847  0.1255 -0.0907
35865POPC   C1B76368  14.423  23.908  18.672 -0.2652 -0.1011  0.3646
35865POPC   C2B76369  14.563  23.946  18.239 -0.1780  0.0099  0.2496
35865POPC   C3B76370  14.812  24.097  17.857  0.0538  0.2151 -0.3135
35865POPC   C4B76371  15.129  24.350  17.654  0.0435  0.2184 -0.0839
35866POPC   NC376372   4.654  25.254  19.953 -0.0429  0.0515  0.1086
35866POPC   PO476373   4.798  25.544  19.748  0.1653  0.0632 -0.2715
35866POPC   GL176374   4.916  25.561  19.316  0.3401 -0.1753  0.0875
35866POPC   GL276375   5.206  25.691  19.379  0.3167  0.2499  0.0543
35866POPC   C1A76376   4.849  25.892  19.010 -0.0753 -0.3266 -0.2231
35866POPC   D2A76377   4.940  26.311  18.882  0.3133  0.0128  0.0173
35866POPC   C3A76378   4.719  26.641  18.606  0.1181 -0.0113 -0.0455
35866POPC   C4A76379   4.675  26.910  18.167 -0.2492 -0.2327  0.0440
35866POPC   C1B76380   5.287  25.612  18.869 -0.2935 -0.0181 -0.2076
35866POPC   C2B76381   5.278  25.363  18.467  0.1444 -0.1022 -0.1518
35866POPC   C3B76382   4.956  25.358  18.181 -0.2832  0.1576 -0.2697
35866POPC   C4B76383   4.697  25.401  17.807 -0.2746  0.1802  0.0049
35867POPC   NC376384  10.574  23.755  16.393 -0.0995  0.5327 -0.2809
35867POPC   PO476385  10.255  23.750  16.211  0.3124  0.0285  0.1095
35867POPC   GL176386  10.395  24.076  16.087 -0.0883 -0.1078  0.0377
35867POPC   GL276387  10.589  24.388  16.059  0.0721 -0.2378 -0.2303
35867POPC   C1A76388  10.223  24.324  15.736  0.0658  0.0214 -0.1442
35867POPC   D2A76389  10.003  24.095  15.387 -0.2842  0.0070 -0.2876
35867POPC   C3A76390   9.935  24.347  15.043  0.1159 -0.1245  0.1037
35867POPC   C4A76391  10.045  24.756  14.924  0.1448 -0.2468 -0.0112
35867POPC   C1B76392  11.047  24.328  16.082  0.0037  0.0141 -0.0930
35867POPC   C2B76393  11.393  24.324  16.339 -0.1248  0.1312 -0.0072
35867POPC   C3B76394  11.803  24.526  16.254  0.1210 -0.0925 -0.2815
35867POPC   C4B76395  12.110  24.704  16.564  0.4044 -0.3610  0.0141
35868POPC   NC376396   5.065  29.407  20.302  0.3077 -0.1075 -0.2483
35868POPC   PO476397   4.897  29.523  20.625 -0.0410  0.2289  0.0076
35868POPC   GL176398   4.543  29.390  20.453 -0.2143 -0.5435  0.2159
35868POPC   GL276399   4.675  29.111  20.382 -0.0905 -0.3056  0.2520
35868POPC   C1A76400   4.468  29.357  19.969 -0.2932  0.1266 -0.1238
35868POPC   D2A76401   4.534  29.554  19.587  0.0373  0.1428  0.1468
35868POPC   C3A76402   4.747  29.499  19.201  0.0039 -0.3516  0.1970
35868POPC   C4A76403   5.071  29.580  18.908 -0.2469  0.0672  0.1380
35868POPC   C1B76404   4.625  28.693  20.223  0.3819  0.3037 -0.1919
35868POPC   C2B76405   4.331  28.342  20.076  0.0071  0.0328 -0.3195
35868POPC   C3B76406   4.039  28.126  19.820  0.1365 -0.1284  0.0504
35868POPC   C4B76407   3.983  27.819  19.449 -0.0430  0.0740 -0.0115
35869POPC   NC376408   0.972  20.682  19.818  0.1444 -0.0275  0.0899
35869POPC   PO476409   0.649  20.767  19.616 -0.0540 -0.1378 -0.1818
35869POPC   GL176410   0.720  20.755  19.234  0.0222  0.2983  0.0222
35869POPC   GL276411   0.975  20.743  19.251 -0.2440 -0.0557 -0.0072
35869POPC   C1A76412   0.635  20.584  18.820 -0.1262 -0.0807 -0.0419
35869POPC   D2A76413   0.618  20.849  18.429 -0.0822  0.1164 -0.0159
35869POPC   C3A76414   0.669  20.851  18.003  0.1040 -0.0605 -0.0422
35869POPC   C4A76415   0.649  21.123  17.582  0.0257 -0.2792  0.2929
35869POPC   C1B76416   1.080  20.831  18.837  0.0377 -0.0418  0.0044
35869POPC   C2B76417   1.231  20.802  18.444 -0.1557  0.2039 -0.0955
35869POPC   C3B76418   1.191  20.801  17.969 -0.0994 -0.0504  0.0971
35869POPC   C4B76419   1.320  20.713  17.529 -0.1253 -0.0057  0.0073
35870POPC   NC376420   8.544  24.808  18.045  0.4159 -0.0649 -0.3887
35870POPC   PO476421   8.894  24.821  17.875 -0.2492 -0.0560  0.3337
35870POPC   GL176422   8.857  25.063  17.654  0.4063 -0.2941 -0.1579
35870POPC   GL276423   8.559  25.016  17.591  0.1811  0.1658  0.1010
35870POPC   C1A76424   8.921  25.151  17.215 -0.1072 -0.2108 -0.1330
35870POPC   D2A76425   9.106  25.490  16.945  0.1183 -0.0402  0.0345
35870POPC   C3A76426   8.938  25.595  16.538  0.0846 -0.3454 -0.1844
35870POPC   C4A76427   8.784  25.845  16.188 -0.3123 -0.0487 -0.1420
35870POPC   C1B76428   8.536  25.487  17.466  0.0994  0.2423 -0.1141
35870POPC   C2B76429   8.281  25.833  17.262 -0.0911 -0.1959 -0.1427
35870POPC   C3B76430   7.842  25.729  17.132  0.5156 -0.1655 -0.0207
35870POPC   C4B76431   7.622  25.628  16.771  0.0234 -0.3147 -0.2821
35871POPC   NC376432   2.732  31.520  20.164  0.0881 -0.1585 -0.1576
35871POPC   PO476433   2.755  31.162  20.289  0.0826  0.0791  0.0102
35871POPC   GL176434   2.618  31.049  19.942  0.4937 -0.1103  0.0428
35871POPC   GL276435   2.746  31.127  19.791  0.1276  0.1022  0.3361
35871POPC   C1A76436   2.203  30.891  19.696 -0.0777  0.3984 -0.0801
35871POPC   D2A76437   1.875  31.098  19.489 -0.0189 -0.1659  0.1231
35871POPC   C3A76438   1.909  31.232  19.011  0.2611 -0.0696  0.4533
35871POPC   C4A76439   1.620  31.272  18.606  0.1400 -0.0033 -0.1051
35871POPC   C1B76440   2.646  30.924  19.414 -0.1111  0.2947  0.0997
35871POPC   C2B76441   2.344  30.883  19.080  0.1209 -0.0097 -0.4384
35871POPC   C3B76442   2.039  30.831  18.734  0.2951  0.0842 -0.1975
35871POPC   C4B76443   1.581  30.753  18.699  0.0568  0.3819 -0.0965
35872POPC   NC376444   3.944  25.921  19.729 -0.1258  0.0107 -0.3577
35872POPC   PO476445   4.263  25.726  19.818 -0.0409  0.4500  0.1220
35872POPC   GL176446   4.437  25.723  19.407 -0.3046  0.2211 -0.0143
35872POPC   GL276447   4.583  25.964  19.462 -0.0791 -0.1793 -0.1641
35872POPC   C1A76448   4.095  25.825  19.077  0.1304 -0.0270 -0.2116
35872POPC   D2A76449   3.823  26.148  18.825  0.1696  0.0151  0.2538
35872POPC   C3A76450   3.638  25.831  18.591 -0.0250  0.2115 -0.0036
35872POPC   C4A76451   3.622  25.681  18.195 -0.1974 -0.0984 -0.2503
35872POPC   C1B76452   4.912  26.308  19.333 -0.1462 -0.3058 -0.0746
35872POPC   C2B76453   5.235  26.563  19.132 -0.1597 -0.0970  0.2988
35872POPC   C3B76454   5.395  26.849  18.854  0.1916  0.1194 -0.0745
35872POPC   C4B76455   5.670  26.900  18.452 -0.2612 -0.0832 -0.0795
35873POPC   NC376456  14.138  28.193  20.356  0.1496 -0.0639 -0.2521
35873POPC   PO476457  14.368  27.918  20.282 -0.1691  0.2050  0.1224
35873POPC   GL176458  14.404  28.080  20.022 -0.1728  0.0168  0.1881
35873POPC   GL276459  14.688  28.202  20.055  0.2470  0.0598  0.1773
35873POPC   C1A76460  14.267  28.367  19.740 -0.1798 -0.0622 -0.1819
35873POPC   D2A76461  14.102  28.629  19.407  0.1943 -0.0155  0.2446
35873POPC   C3A76462  14.037  28.496  18.967 -0.0468 -0.0602  0.5162
35873POPC   C4A76463  13.770  28.381  18.609 -0.1635 -0.2273 -0.0783
35873POPC   C1B76464  14.867  28.143  19.672  0.0305 -0.0565 -0.2940
35873POPC   C2B76465  15.106  28.156  19.302 -0.0666  0.0539  0.0130
35873POPC   C3B76466  14.930  28.250  18.879  0.0318  0.0384  0.1953
35873POPC   C4B76467  14.653  28.520  18.710 -0.1611 -0.1439  0.0376
35874POPC   NC376468   1.756  27.681  20.552 -0.0824 -0.0190  0.0800
35874POPC   PO476469   1.786  27.303  20.512  0.3006 -0.1979 -0.0922
35874POPC   GL176470   1.898  27.395  20.159 -0.0087 -0.1356 -0.1366
35874POPC   GL276471   1.797  27.223  19.917 -0.2048 -0.0341 -0.4177
35874POPC   C1A76472   1.968  27.770  19.897  0.1810  0.0003 -0.0405
35874POPC   D2A76473   1.961  28.112  19.587  0.2859 -0.0211  0.0558
35874POPC   C3A76474   1.737  28.113  19.221 -0.0513  0.1714 -0.0289
35874POPC   C4A76475   1.921  28.288  18.844 -0.0018  0.4137 -0.0859
35874POPC   C1B76476   1.791  26.847  19.626 -0.0962 -0.0011 -0.1636
35874POPC   C2B76477   1.644  26.765  19.170  0.1775  0.0615 -0.2785
35874POPC   C3B76478   1.664  26.806  18.694 -0.1535  0.0571 -0.0157
35874POPC   C4B76479   1.644  26.718  18.231  0.1488 -0.0961  0.2138
35875POPC   NC376480  10.429  21.017  13.394 -0.0375  0.0173  0.1124
35875POPC   PO476481  10.610  20.857  13.707 -0.0780  0.0064 -0.0937
35875POPC   GL176482  10.761  20.544  13.768 -0.0171 -0.1631 -0.2520
35875POPC   GL276483  10.852  20.469  14.006  0.1796 -0.3395 -0.0552
35875POPC   C1A76484  10.559  20.158  13.841 -0.2402 -0.1588  0.0210
35875POPC   D2A76485  10.698  19.727  14.016  0.0866 -0.1691 -0.2663
35875POPC   C3A76486  10.526  19.366  13.849  0.0038 -0.0325 -0.0963
35875POPC   C4A76487  10.239  19.018  13.765  0.1481  0.3024 -0.2558
35875POPC   C1B76488  11.067  20.164  13.794 -0.2708  0.1600 -0.0374
35875POPC   C2B76489  11.305  20.142  13.389  0.1463  0.1020  0.1961
35875POPC   C3B76490  11.283  20.171  12.951 -0.2159  0.1973  0.0851
35875POPC   C4B76491  11.216  20.170  12.505 -0.1541 -0.1426 -0.0367
35876POPC   NC376492  12.382  29.966  20.618  0.6132  0.3360 -0.2706
35876POPC   PO476493  12.105  30.193  20.847 -0.1658  0.1837 -0.1407
35876POPC   GL176494  11.876  29.950  20.500  0.3379  0.2695 -0.0044
35876POPC   GL276495  12.003  30.049  20.300 -0.1476 -0.0126 -0.1676
35876POPC   C1A76496  12.108  29.605  20.243  0.3197  0.0277  0.3076
35876POPC   D2A76497  12.204  29.180  20.151  0.0351 -0.5003  0.0496
35876POPC   C3A76498  12.580  29.146  19.865  0.2536  0.1840 -0.0229
35876POPC   C4A76499  12.957  29.224  19.578 -0.0347  0.1343  0.0855
35876POPC   C1B76500  11.798  29.895  19.908  0.0186  0.2084 -0.0837
35876POPC   C2B76501  11.823  29.813  19.428 -0.0325  0.0699  0.1087
35876POPC   C3B76502  12.126  29.602  19.129 -0.3392  0.1298 -0.0202
35876POPC   C4B76503  12.331  29.409  18.744  0.0806  0.1409  0.3583
35877POPC   NC376504   6.553  18.047  19.352 -0.0661  0.1681 -0.2569
35877POPC   PO476505   6.558  18.414  19.321  0.0220 -0.2094  0.1882
35877POPC   GL176506   6.396  18.334  18.988  0.1540 -0.0728  0.2660
35877POPC   GL276507   6.148  18.230  18.982  0.0104 -0.3707  0.0200
35877POPC   C1A76508   6.408  18.268  18.495 -0.2164  0.0891 -0.0841
35877POPC   D2A76509   6.542  18.116  18.064  0.0922  0.1652  0.0480
35877POPC   C3A76510   6.381  18.349  17.633 -0.0303 -0.2187  0.0076
35877POPC   C4A76511   6.163  18.547  17.299 -0.0028 -0.0287 -0.0917
35877POPC   C1B76512   5.959  18.127  18.562 -0.0199  0.0358 -0.0639
35877POPC   C2B76513   6.116  17.901  18.190  0.1622  0.0777  0.0738
35877POPC   C3B76514   6.178  17.673  17.810 -0.1925  0.0157 -0.3058
35877POPC   C4B76515   6.462  17.391  17.520  0.0354 -0.1895 -0.1235
35878POPC   NC376516   3.354  25.207  19.788  0.1221  0.2093  0.2511
35878POPC   PO476517   3.683  25.068  19.958 -0.3384 -0.1185 -0.1333
35878POPC   GL176518   3.810  25.257  19.554 -0.3605 -0.0347  0.1763
35878POPC   GL276519   3.800  25.486  19.552  0.1624 -0.2778 -0.2502
35878POPC   C1A76520   4.226  25.303  19.269  0.1258 -0.4221 -0.0058
35878POPC   D2A76521   4.430  25.507  18.971 -0.1966  0.1873 -0.1440
35878POPC   C3A76522   4.416  25.882  18.691 -0.4151  0.0369  0.0431
35878POPC   C4A76523   4.126  25.995  18.430 -0.1062 -0.1110  0.1772
35878POPC   C1B76524   3.753  25.507  19.086 -0.0449  0.1586  0.2965
35878POPC   C2B76525   3.487  25.350  18.762 -0.1763  0.3191 -0.0731
35878POPC   C3B76526   3.394  25.019  18.397  0.0117 -0.0050 -0.2703
35878POPC   C4B76527   3.714  24.668  18.189 -0.1403 -0.1515 -0.2105
35879POPC   NC376528   2.638  23.790  20.089 -0.2125 -0.0694 -0.1732
35879POPC   PO476529   2.670  24.175  20.142  0.0161 -0.1130  0.0030
35879POPC   GL176530   2.493  24.027  19.728  0.1340  0.1615  0.1809
35879POPC   GL276531   2.542  23.966  19.422 -0.1015 -0.0347 -0.0367
35879POPC   C1A76532   2.047  23.979  19.633 -0.0241 -0.3067  0.0347
35879POPC   D2A76533   1.686  24.087  19.328  0.0337  0.0601 -0.0674
35879POPC   C3A76534   1.232  24.133  19.217 -0.0892  0.4363  0.0234
35879POPC   C4A76535   0.836  24.214  19.082  0.4343  0.0314  0.3882
35879POPC   C1B76536   2.685  24.085  19.011 -0.1156  0.0011 -0.3042
35879POPC   C2B76537   2.854  23.794  18.656 -0.1810 -0.2409  0.0663
35879POPC   C3B76538   2.802  23.402  18.399 -0.0922 -0.2900  0.0757
35879POPC   C4B76539   2.731  22.967  18.368 -0.2804 -0.0934  0.0404
35880POPC   NC376540   8.426  16.899  19.305  0.0624  0.1007 -0.0552
35880POPC   PO476541   8.549  16.537  19.251  0.0293  0.5152 -0.1446
35880POPC   GL176542   8.615  16.579  18.936 -0.0646  0.0642 -0.0546
35880POPC   GL276543   8.761  16.344  18.791 -0.1953  0.0702 -0.2485
35880POPC   C1A76544   8.373  16.484  18.569  0.0728 -0.0208 -0.1573
35880POPC   D2A76545   8.417  16.025  18.439 -0.2074 -0.1390 -0.2743
35880POPC   C3A76546   8.179  16.074  18.039 -0.3546 -0.0686 -0.0710
35880POPC   C4A76547   8.027  15.966  17.616  0.1283  0.2913  0.0409
35880POPC   C1B76548   9.123  16.417  18.541 -0.0220 -0.3356  0.1036
35880POPC   C2B76549   9.125  16.215  18.111  0.0630  0.0725  0.0853
35880POPC   C3B76550   9.152  16.202  17.669  0.1403  0.1188  0.3366
35880POPC   C4B76551   9.412  16.300  17.328  0.1155 -0.0472  0.0774
35881POPC   NC376552  11.975  17.465  19.098  0.3512  0.2254 -0.1450
35881POPC   PO476553  12.140  17.795  18.957  0.1864  0.0212  0.1923
35881POPC   GL176554  12.360  17.638  18.678  0.3733 -0.0395 -0.2507
35881POPC   GL276555  12.106  17.493  18.583 -0.1614  0.0987 -0.0483
35881POPC   C1A76556  12.395  17.779  18.271  0.1143  0.0764 -0.0961
35881POPC   D2A76557  12.540  17.614  17.851  0.1446 -0.1805 -0.2028
35881POPC   C3A76558  12.620  17.217  17.625  0.0899 -0.1885  0.1944
35881POPC   C4A76559  12.540  16.846  17.346  0.1681  0.0678 -0.0317
35881POPC   C1B76560  12.158  17.337  18.112 -0.1993  0.0296  0.2531
35881POPC   C2B76561  12.122  17.192  17.647 -0.1462 -0.0447  0.3584
35881POPC   C3B76562  12.193  17.166  17.272 -0.0502  0.2067 -0.3027
35881POPC   C4B76563  12.128  16.750  17.096  0.3184 -0.0454 -0.2523
35882POPC   NC376564   9.086  19.849  17.649  0.0984  0.0820  0.1253
35882POPC   PO476565   8.841  19.697  17.344 -0.1705 -0.0283  0.0249
35882POPC   GL176566   8.704  19.437  17.211  0.2035  0.0522 -0.1063
35882POPC   GL276567   8.354  19.557  17.238  0.3404 -0.1024 -0.3509
35882POPC   C1A76568   8.683  19.130  16.842  0.0315 -0.0581  0.2559
35882POPC   D2A76569   8.558  18.785  16.566  0.0754  0.1175 -0.1169
35882POPC   C3A76570   8.404  18.705  16.171  0.0559 -0.0407 -0.0684
35882POPC   C4A76571   8.647  18.860  15.776 -0.2473  0.2345  0.3859
35882POPC   C1B76572   8.249  19.107  17.166  0.0705  0.0075  0.1553
35882POPC   C2B76573   7.816  19.048  17.058  0.2538 -0.3008 -0.0428
35882POPC   C3B76574   7.458  19.344  16.983 -0.1035 -0.1473  0.2163
35882POPC   C4B76575   7.073  19.174  16.746 -0.1173 -0.0346 -0.5270
35883POPC   NC376576  12.263  32.319  20.570  0.4469  0.2833 -0.1757
35883POPC   PO476577  12.087  32.013  20.399 -0.2157  0.1046 -0.2081
35883POPC   GL176578  12.210  32.103  20.045  0.2019 -0.0410  0.0511
35883POPC   GL276579  11.963  32.032  19.901  0.0344 -0.0710  0.2874
35883POPC   C1A76580  12.472  31.895  19.745 -0.0316  0.0555  0.1289
35883POPC   D2A76581  12.650  31.735  19.342  0.2469 -0.2349  0.0550
35883POPC   C3A76582  12.905  31.343  19.342  0.0360  0.2731 -0.2479
35883POPC   C4A76583  13.364  31.454  19.203 -0.1267 -0.1108  0.0839
35883POPC   C1B76584  11.947  31.932  19.471 -0.2259  0.0976 -0.0170
35883POPC   C2B76585  11.810  32.040  19.088 -0.1432 -0.0207 -0.1736
35883POPC   C3B76586  11.888  31.845  18.664  0.1107  0.2269 -0.2696
35883POPC   C4B76587  12.193  31.640  18.461  0.3705  0.2249  0.0903
35884POPC   NC376588   6.826  21.849  17.764 -0.0574  0.0217 -0.0192
35884POPC   PO476589   6.484  21.894  17.971 -0.0049  0.2599  0.2292
35884POPC   GL176590   6.180  21.859  17.626  0.0417  0.1478 -0.2027
35884POPC   GL276591   6.380  21.627  17.452 -0.0225 -0.0418  0.1282
35884POPC   C1A76592   6.246  22.107  17.206  0.0456  0.0514 -0.2468
35884POPC   D2A76593   5.929  22.145  16.871 -0.0981 -0.1550 -0.0248
35884POPC   C3A76594   6.126  22.374  16.541 -0.0285 -0.0069 -0.1536
35884POPC   C4A76595   6.330  22.489  16.173 -0.0982  0.0126 -0.0315
35884POPC   C1B76596   6.358  21.578  16.979  0.1796 -0.0757 -0.0906
35884POPC   C2B76597   6.087  21.495  16.583  0.1268 -0.1568  0.0218
35884POPC   C3B76598   5.763  21.805  16.452  0.0052 -0.3399 -0.0116
35884POPC   C4B76599   5.304  21.819  16.442 -0.1531  0.0707 -0.2456
35885POPC   NC376600  11.058  22.516  13.922  0.0783  0.2829 -0.1014
35885POPC   PO476601  11.025  22.888  14.149  0.2396 -0.1166  0.0490
35885POPC   GL176602  11.427  22.905  13.982 -0.0406  0.2870 -0.0640
35885POPC   GL276603  11.550  23.149  13.793  0.0903  0.1292 -0.0801
35885POPC   C1A76604  11.821  23.011  14.235 -0.1409  0.0770  0.2827
35885POPC   D2A76605  12.136  23.390  14.315 -0.1040  0.3171 -0.1979
35885POPC   C3A76606  12.055  23.853  14.475 -0.0405 -0.1917  0.1266
35885POPC   C4A76607  12.221  24.284  14.496  0.2012  0.2903  0.1041
35885POPC   C1B76608  11.691  23.218  13.370  0.2411 -0.3527 -0.0910
35885POPC   C2B76609  11.895  23.564  13.115 -0.1059  0.0933  0.0653
35885POPC   C3B76610  11.973  23.914  12.850  0.1200  0.0917 -0.2216
35885POPC   C4B76611  11.909  24.282  12.627  0.1283 -0.1194 -0.0548
35886POPC   NC376612  16.187  26.824  20.552  0.4588  0.1160 -0.0294
35886POPC   PO476613  15.967  27.134  20.416  0.0876  0.2250  0.2195
35886POPC   GL176614  15.976  27.368  20.092  0.1354 -0.0739  0.2929
35886POPC   GL276615  15.780  27.546  20.263  0.1129  0.0633 -0.2212
35886POPC   C1A76616  15.984  27.438  19.650 -0.0475 -0.2434 -0.0948
35886POPC   D2A76617  15.819  27.382  19.279  0.0921  0.3476  0.0247
35886POPC   C3A76618  16.046  27.253  18.889  0.2665  0.0927 -0.4027
35886POPC   C4A76619  16.150  27.444  18.474  0.1036 -0.1125 -0.0531
35886POPC   C1B76620  15.571  27.326  19.886  0.2557  0.0100  0.1871
35886POPC   C2B76621  15.336  27.327  19.456 -0.1545  0.2013 -0.0359
35886POPC   C3B76622  15.371  27.681  19.149  0.1958  0.1973  0.0462
35886POPC   C4B76623  15.558  27.717  18.757  0.2408  0.1977  0.0764
35887POPC   NC376624  15.556  23.623  20.046 -0.3131  0.0250 -0.1012
35887POPC   PO476625  15.303  23.917  20.017 -0.0273 -0.0496  0.0600
35887POPC   GL176626  15.627  23.937  19.700 -0.2965  0.1495  0.0584
35887POPC   GL276627  15.891  24.083  19.603 -0.0462  0.1359 -0.2973
35887POPC   C1A76628  15.765  23.715  19.316 -0.1096  0.1570 -0.0821
35887POPC   D2A76629  15.957  23.374  19.104 -0.0068  0.0722  0.2859
35887POPC   C3A76630  16.007  23.561  18.674  0.0209 -0.1456  0.1763
35887POPC   C4A76631  16.242  23.862  18.401  0.1721  0.2751  0.1927
35887POPC   C1B76632  16.252  23.877  19.396  0.3732 -0.0029  0.2540
35887POPC   C2B76633  16.462  23.493  19.128 -0.2996  0.1238  0.2152
35887POPC   C3B76634  16.566  23.585  18.681 -0.1912 -0.0352 -0.1533
35887POPC   C4B76635  16.889  23.330  18.448  0.0800 -0.3180 -0.3218
35888POPC   NC376636  11.657  21.791  15.934  0.3082 -0.1879  0.2330
35888POPC   PO476637  11.310  21.716  15.705  0.3511 -0.0902 -0.0691
35888POPC   GL176638  11.608  21.846  15.471 -0.4063  0.3774 -0.0255
35888POPC   GL276639  11.607  22.139  15.585  0.0749 -0.2491  0.0891
35888POPC   C1A76640  11.729  21.886  15.057 -0.0738 -0.0318 -0.2144
35888POPC   D2A76641  11.769  22.091  14.629  0.0843  0.1095  0.2438
35888POPC   C3A76642  11.853  22.079  14.165 -0.1104  0.3273  0.1602
35888POPC   C4A76643  11.814  21.739  13.828  0.2699  0.1191 -0.1897
35888POPC   C1B76644  12.045  22.258  15.376 -0.1161  0.1053  0.1939
35888POPC   C2B76645  12.129  22.640  15.226  0.0131 -0.1224  0.0983
35888POPC   C3B76646  12.514  22.834  15.058  0.1297 -0.1772  0.2529
35888POPC   C4B76647  13.005  22.855  15.026  0.2737  0.2879 -0.0902
35889POPC   NC376648  14.334  29.041  20.485 -0.3414 -0.2223 -0.0517
35889POPC   PO476649  13.994  29.174  20.661 -0.1454  0.0343 -0.1180
35889POPC   GL176650  14.112  29.416  20.326  0.2020  0.1274  0.2425
35889POPC   GL276651  13.857  29.445  20.249 -0.0034  0.3588  0.3437
35889POPC   C1A76652  14.254  29.463  19.906  0.1654  0.1555  0.1176
35889POPC   D2A76653  14.696  29.356  19.697  0.0629 -0.2058  0.0466
35889POPC   C3A76654  14.623  29.300  19.214 -0.1198 -0.2416 -0.0708
35889POPC   C4A76655  14.342  29.338  18.879  0.0305 -0.0270  0.3070
35889POPC   C1B76656  13.804  29.223  19.829  0.2325 -0.4244 -0.0489
35889POPC   C2B76657  13.547  29.229  19.447 -0.3372  0.1588 -0.1495
35889POPC   C3B76658  13.449  29.159  19.037 -0.3492  0.1068 -0.2231
35889POPC   C4B76659  13.185  29.066  18.683  0.0768 -0.2036  0.0347
35890POPC   NC376660   8.603  22.418  16.634  0.2100  0.1572  0.0199
35890POPC   PO476661   8.399  22.144  16.782  0.3156  0.2787 -0.2975
35890POPC   GL176662   7.909  22.207  16.629 -0.3957  0.1325  0.2772
35890POPC   GL276663   7.915  21.949  16.704 -0.0448  0.1313 -0.3217
35890POPC   C1A76664   7.449  22.317  16.743 -0.1400 -0.2999 -0.0415
35890POPC   D2A76665   6.999  22.604  16.712  0.1724  0.2793  0.0861
35890POPC   C3A76666   6.797  22.408  16.329  0.1034 -0.0108 -0.2781
35890POPC   C4A76667   6.880  22.257  15.853 -0.0355 -0.0653 -0.1027
35890POPC   C1B76668   7.470  21.817  16.647 -0.0803 -0.1955 -0.1942
35890POPC   C2B76669   7.220  21.517  16.412  0.0834 -0.1475 -0.0998
35890POPC   C3B76670   6.996  21.303  16.048 -0.1046 -0.1485  0.0085
35890POPC   C4B76671   6.712  21.228  15.720 -0.0943 -0.1576  0.1780
35891POPC   NC376672  12.455  27.713  20.839 -0.1481  0.2549  0.0407
35891POPC   PO476673  12.186  27.671  20.571  0.5577 -0.0928 -0.1544
35891POPC   GL176674  12.330  27.831  20.254 -0.2140  0.0724  0.1011
35891POPC   GL276675  12.095  28.022  20.165 -0.1765 -0.0285 -0.1879
35891POPC   C1A76676  12.272  27.584  19.869 -0.2234  0.0628 -0.2534
35891POPC   D2A76677  12.457  27.603  19.456  0.0652  0.0074  0.1586
35891POPC   C3A76678  12.916  27.641  19.399 -0.1146 -0.1313 -0.0978
35891POPC   C4A76679  13.079  27.652  18.994 -0.1767 -0.1712 -0.0151
35891POPC   C1B76680  12.318  28.142  19.765  0.0084 -0.1549  0.0889
35891POPC   C2B76681  12.266  28.031  19.311 -0.2609 -0.0684 -0.2054
35891POPC   C3B76682  12.308  28.099  18.871  0.3062 -0.0883  0.1539
35891POPC   C4B76683  12.276  27.950  18.410  0.1616 -0.0650  0.0299
35892POPC   NC376684   9.255  23.320  16.380 -0.0814  0.4577 -0.0451
35892POPC   PO476685   9.657  23.228  16.297  0.2300  0.0777  0.1870
35892POPC   GL176686   9.733  23.482  15.918  0.0748 -0.1836 -0.2802
35892POPC   GL276687   9.491  23.521  15.688 -0.1537  0.2630 -0.2194
35892POPC   C1A76688   9.720  23.938  15.761 -0.0277 -0.0805  0.0351
35892POPC   D2A76689   9.710  24.432  15.788  0.0031 -0.2628  0.0691
35892POPC   C3A76690  10.054  24.749  15.858  0.1182 -0.1267  0.1169
35892POPC   C4A76691  10.378  24.985  16.102  0.1177 -0.1210  0.0770
35892POPC   C1B76692   9.262  23.842  15.492  0.1054  0.0581 -0.2785
35892POPC   C2B76693   8.874  23.981  15.353 -0.1793 -0.2791 -0.1003
35892POPC   C3B76694   8.452  24.004  15.178 -0.1185 -0.0216 -0.0875
35892POPC   C4B76695   8.304  24.142  14.757 -0.1464  0.0297  0.0709
35893POPC   NC376696   8.881  28.933  20.300 -0.2093 -0.1323  0.1266
35893POPC   PO476697   9.164  28.684  20.319 -0.2550  0.0857 -0.3917
35893POPC   GL176698   9.220  28.625  19.947  0.2435  0.0572  0.0458
35893POPC   GL276699   9.000  28.565  19.790 -0.0079  0.0626  0.2189
35893POPC   C1A76700   9.310  28.905  19.507  0.2063 -0.0153  0.1690
35893POPC   D2A76701   9.467  29.161  19.183 -0.3252  0.1262  0.2057
35893POPC   C3A76702   9.360  28.928  18.764 -0.3946  0.2514  0.0822
35893POPC   C4A76703   9.407  28.787  18.362  0.1959 -0.2246 -0.0445
35893POPC   C1B76704   8.686  28.381  19.492  0.0458 -0.0480  0.0100
35893POPC   C2B76705   8.709  28.201  19.046 -0.0098  0.1158  0.4611
35893POPC   C3B76706   8.877  27.879  18.751  0.1088  0.1155 -0.0866
35893POPC   C4B76707   8.927  27.783  18.345 -0.3586  0.1243 -0.3475
35894POPC   NC376708  15.525  22.506  20.013  0.1273  0.1056 -0.2576
35894POPC   PO476709  15.829  22.610  19.763 -0.0970  0.0204 -0.0359
35894POPC   GL176710  15.739  22.677  19.365 -0.1309  0.2183  0.2086
35894POPC   GL276711  15.911  22.426  19.265  0.3548 -0.1757  0.0456
35894POPC   C1A76712  15.377  22.473  19.069 -0.2145 -0.1940  0.1445
35894POPC   D2A76713  15.446  22.487  18.604 -0.0002 -0.1296 -0.0572
35894POPC   C3A76714  15.742  22.160  18.344 -0.0584 -0.0274  0.0815
35894POPC   C4A76715  15.727  21.907  17.966 -0.0667  0.1586  0.0676
35894POPC   C1B76716  16.227  22.177  19.180 -0.3187 -0.1166  0.2454
35894POPC   C2B76717  16.607  22.033  18.925 -0.1189 -0.2449  0.0602
35894POPC   C3B76718  16.915  22.068  18.627 -0.1060 -0.2129 -0.0114
35894POPC   C4B76719  17.150  21.736  18.396  0.1109  0.2209  0.1602
35895POPC   NC376720   9.200  30.302  20.010 -0.2675  0.0877 -0.0777
35895POPC   PO476721   9.472  30.428  20.246 -0.2539 -0.1118 -0.0193
35895POPC   GL176722   9.724  30.396  19.880 -0.0521  0.1091  0.4244
35895POPC   GL276723   9.512  30.583  19.742  0.0093 -0.1327 -0.2880
35895POPC   C1A76724   9.951  30.222  19.512 -0.2519 -0.4287 -0.1837
35895POPC   D2A76725  10.293  30.156  19.236 -0.1472 -0.0900 -0.1652
35895POPC   C3A76726  10.364  30.221  18.759  0.2757 -0.1798  0.0641
35895POPC   C4A76727  10.401  30.482  18.352 -0.1297  0.0150 -0.1029
35895POPC   C1B76728   9.783  30.705  19.334  0.0428  0.1271 -0.1449
35895POPC   C2B76729  10.175  30.652  19.094  0.4730  0.0240  0.0920
35895POPC   C3B76730  10.516  30.722  18.798 -0.0988  0.1575  0.2123
35895POPC   C4B76731  10.949  30.533  18.559  0.1759  0.1890  0.1294
35896POPC   NC376732   5.660  18.278  19.973 -0.0171  0.0753  0.0993
35896POPC   PO476733   5.604  17.917  19.836  0.2983  0.0257  0.3522
35896POPC   GL176734   5.581  17.779  19.468  0.3232 -0.0522  0.2472
35896POPC   GL276735   5.557  17.833  19.263  0.0547  0.2051  0.1272
35896POPC   C1A76736   5.591  17.297  19.428  0.5445  0.2333  0.0066
35896POPC   D2A76737   5.778  16.901  19.268  0.1037  0.3811  0.1259
35896POPC   C3A76738   5.591  16.597  18.964  0.0343  0.3597  0.0868
35896POPC   C4A76739   5.482  16.108  18.943 -0.1117  0.1132  0.0726
35896POPC   C1B76740   5.643  18.188  18.963 -0.3602 -0.0590 -0.0161
35896POPC   C2B76741   5.387  18.150  18.547  0.1896 -0.0956  0.1747
35896POPC   C3B76742   5.137  18.176  18.127  0.0147 -0.1460 -0.3546
35896POPC   C4B76743   5.274  18.199  17.702 -0.0045 -0.1236 -0.1508
35897POPC   NC376744  10.553  23.361  15.972 -0.2348 -0.1123  0.1718
35897POPC   PO476745  10.878  23.347  16.214 -0.0933  0.3430  0.0439
35897POPC   GL176746  10.951  23.683  16.099 -0.1654  0.0277  0.0934
35897POPC   GL276747  10.712  23.820  15.949  0.3118  0.0596  0.0760
35897POPC   C1A76748  11.284  23.954  15.888 -0.1648  0.1871 -0.1663
35897POPC   D2A76749  11.533  24.370  15.857 -0.1751  0.1170 -0.0539
35897POPC   C3A76750  11.358  24.795  15.892 -0.1105  0.2986  0.0377
35897POPC   C4A76751  11.320  25.275  15.926  0.1124  0.0628 -0.2742
35897POPC   C1B76752  10.989  23.652  15.674 -0.1115  0.2894 -0.2511
35897POPC   C2B76753  11.347  23.636  15.456 -0.1880  0.2467  0.0285
35897POPC   C3B76754  11.553  23.722  15.037  0.2894  0.1262  0.1266
35897POPC   C4B76755  11.534  23.850  14.577 -0.1426  0.0703 -0.2640
35898POPC   NC376756  10.196  19.140  17.928 -0.1826  0.0887  0.1184
35898POPC   PO476757   9.827  19.324  18.059  0.0145 -0.2071  0.3641
35898POPC   GL176758   9.595  18.922  17.834  0.3363 -0.1743  0.0296
35898POPC   GL276759   9.762  19.019  17.693  0.2564 -0.0262  0.1752
35898POPC   C1A76760   9.454  18.767  17.367  0.2304  0.1629  0.1182
35898POPC   D2A76761   9.531  18.453  17.009 -0.0479  0.2634 -0.0223
35898POPC   C3A76762   9.316  18.441  16.626 -0.0750 -0.1691  0.5542
35898POPC   C4A76763   9.101  18.665  16.296 -0.0601 -0.0408 -0.0800
35898POPC   C1B76764  10.054  18.731  17.571 -0.1142 -0.1447 -0.0456
35898POPC   C2B76765  10.042  18.471  17.133 -0.1416  0.2269  0.0616
35898POPC   C3B76766  10.069  18.075  17.003  0.1358 -0.0860  0.1792
35898POPC   C4B76767  10.056  17.676  16.702 -0.0615 -0.0439  0.0807
35899POPC   NC376768   0.825  15.452  20.258  0.0179  0.2158 -0.3625
35899POPC   PO476769   0.465  15.366  20.404  0.2503 -0.0482  0.0502
35899POPC   GL176770   0.430  15.604  20.022 -0.0141 -0.1570 -0.1009
35899POPC   GL276771   0.114  15.630  19.996  0.0773 -0.1875  0.2239
35899POPC   C1A76772   0.627  15.753  19.609  0.1031  0.0863  0.2161
35899POPC   D2A76773   1.010  15.828  19.392 -0.0769 -0.0651  0.0626
35899POPC   C3A76774   0.997  16.028  18.948 -0.1044 -0.1720  0.0111
35899POPC   C4A76775   1.070  16.093  18.517 -0.1933 -0.0407 -0.0139
35899POPC   C1B76776   0.121  15.425  19.620  0.3528  0.0772  0.0707
35899POPC   C2B76777   0.495  15.327  19.358  0.2637  0.0208  0.1357
35899POPC   C3B76778   0.899  15.416  19.154 -0.2144 -0.0009 -0.1778
35899POPC   C4B76779   1.205  15.611  18.887 -0.2262 -0.1068 -0.3339
35900POPC   NC376780  11.304  26.287  19.642  0.0380 -0.2668 -0.1703
35900POPC   PO476781  11.682  26.221  19.621  0.2832 -0.4753 -0.2726
35900POPC   GL176782  11.601  26.334  19.190 -0.1574  0.2815 -0.0221
35900POPC   GL276783  11.420  26.090  19.160 -0.1036 -0.0817 -0.0565
35900POPC   C1A76784  11.802  26.623  18.906 -0.0367  0.0557 -0.3396
35900POPC   D2A76785  11.916  26.912  18.544  0.0404  0.4949  0.1807
35900POPC   C3A76786  11.780  27.373  18.618  0.1145  0.0079  0.1803
35900POPC   C4A76787  11.954  27.757  18.854 -0.0432 -0.0149  0.0100
35900POPC   C1B76788  11.305  26.372  18.788 -0.0275  0.2138 -0.2945
35900POPC   C2B76789  11.227  26.668  18.542 -0.1599 -0.2339 -0.1943
35900POPC   C3B76790  11.172  26.776  18.149 -0.0492  0.3144  0.2883
35900POPC   C4B76791  11.122  27.083  17.788  0.0748 -0.1273 -0.0399
35901POPC   NC376792   7.900  17.858  19.869  0.2030  0.0092 -0.0684
35901POPC   PO476793   7.795  17.503  19.734  0.0291 -0.2319  0.1488
35901POPC   GL176794   7.466  17.433  19.515 -0.0563  0.0618  0.2914
35901POPC   GL276795   7.438  17.122  19.529  0.1671 -0.2180  0.0595
35901POPC   C1A76796   7.283  17.392  19.053 -0.0958 -0.1427 -0.2443
35901POPC   D2A76797   7.264  17.287  18.592 -0.1173  0.0247 -0.0791
35901POPC   C3A76798   7.308  16.815  18.463  0.2361  0.1393  0.0007
35901POPC   C4A76799   7.191  16.689  18.025  0.1331  0.0707 -0.3786
35901POPC   C1B76800   7.471  16.930  19.133 -0.3583 -0.0264  0.1374
35901POPC   C2B76801   7.315  16.591  18.970 -0.0947  0.0612 -0.0689
35901POPC   C3B76802   7.135  16.210  18.790  0.1795  0.2383 -0.0581
35901POPC   C4B76803   6.820  16.000  18.607  0.0468 -0.2429 -0.1599
35902POPC   NC376804   8.798  31.496  20.325 -0.0364 -0.3774  0.0296
35902POPC   PO476805   8.893  31.256  20.045 -0.0648 -0.1867  0.0162
35902POPC   GL176806   8.805  31.398  19.681 -0.0558 -0.1457 -0.3367
35902POPC   GL276807   8.656  31.145  19.587 -0.1413  0.0868 -0.1319
35902POPC   C1A76808   8.816  31.554  19.248 -0.2009  0.1133 -0.2199
35902POPC   D2A76809   8.909  31.744  18.798 -0.2306  0.0844 -0.1678
35902POPC   C3A76810   8.800  31.644  18.332  0.2459 -0.1290  0.1440
35902POPC   C4A76811   8.564  31.625  17.969 -0.0330  0.0892  0.0022
35902POPC   C1B76812   8.860  30.992  19.130 -0.0374  0.3738  0.1229
35902POPC   C2B76813   9.187  30.908  18.813 -0.0478  0.1856  0.1555
35902POPC   C3B76814   9.667  30.751  18.865 -0.1596 -0.0764 -0.0034
35902POPC   C4B76815   9.933  30.409  18.717  0.1014 -0.3311  0.0375
35903POPC   NC376816   2.872  17.947  20.346 -0.0182 -0.3822  0.2152
35903POPC   PO476817   3.182  17.713  20.336 -0.0363  0.1674  0.1591
35903POPC   GL176818   3.119  17.584  19.986  0.1342 -0.3038  0.0356
35903POPC   GL276819   2.833  17.627  19.946 -0.0330  0.0744  0.0942
35903POPC   C1A76820   3.162  17.253  19.704 -0.1221  0.1339  0.0688
35903POPC   D2A76821   3.401  16.953  19.514  0.4248  0.1072  0.0468
35903POPC   C3A76822   3.356  16.525  19.403  0.1668  0.1525  0.4849
35903POPC   C4A76823   3.385  16.176  19.136  0.2082 -0.1749  0.1371
35903POPC   C1B76824   2.628  17.303  19.682  0.0851 -0.1348  0.0182
35903POPC   C2B76825   2.404  17.009  19.403  0.2322 -0.0119 -0.0106
35903POPC   C3B76826   2.110  17.103  19.047  0.0039 -0.2884 -0.0859
35903POPC   C4B76827   2.154  17.489  18.774  0.1380 -0.2049 -0.1699
35904POPC   NC376828  15.930  24.721  20.674  0.2060 -0.1061  0.2389
35904POPC   PO476829  15.938  24.663  20.267  0.1931 -0.1985  0.0552
35904POPC   GL176830  16.063  24.382  19.898  0.0958 -0.1421  0.0612
35904POPC   GL276831  16.328  24.383  19.766  0.2144 -0.1727  0.1257
35904POPC   C1A76832  16.007  24.495  19.436  0.1494 -0.1672 -0.3441
35904POPC   D2A76833  16.263  24.609  19.027  0.2816 -0.1679 -0.0941
35904POPC   C3A76834  15.973  24.642  18.705 -0.1266  0.1328  0.0648
35904POPC   C4A76835  15.881  24.254  18.422  0.1168 -0.1282 -0.0511
35904POPC   C1B76836  16.562  24.274  19.377  0.0732  0.0914 -0.2059
35904POPC   C2B76837  16.724  24.428  18.951  0.0046  0.1411  0.0130
35904POPC   C3B76838  16.791  24.658  18.550 -0.1573  0.1510 -0.0347
35904POPC   C4B76839  16.818  25.056  18.255  0.3514 -0.0762 -0.4639
35905POPC   NC376840  16.420  27.380  20.182  0.2078  0.0437  0.0815
35905POPC   PO476841  16.506  26.996  20.251 -0.0444  0.0083 -0.2468
35905POPC   GL176842  16.712  27.013  19.928 -0.1397  0.0881 -0.1253
35905POPC   GL276843  16.924  27.291  19.969 -0.1591  0.0533 -0.1557
35905POPC   C1A76844  16.634  26.855  19.511 -0.0434  0.0253  0.2933
35905POPC   D2A76845  16.334  26.606  19.230 -0.0590  0.1495 -0.2591
35905POPC   C3A76846  16.001  26.820  18.960 -0.0592  0.0263 -0.0828
35905POPC   C4A76847  15.761  26.856  18.585 -0.2854  0.0059 -0.2797
35905POPC   C1B76848  16.533  27.408  19.688 -0.2536 -0.0781  0.1296
35905POPC   C2B76849  16.437  27.670  19.295 -0.3137  0.2260  0.1641
35905POPC   C3B76850  16.383  28.112  19.114  0.0986 -0.2501  0.2994
35905POPC   C4B76851  16.052  28.383  19.035  0.1410 -0.2890 -0.2744
35906POPC   NC376852   2.911  27.043  20.685 -0.0365 -0.2693  0.2031
35906POPC   PO476853   2.665  27.392  20.675  0.2470  0.0796  0.0291
35906POPC   GL176854   2.932  27.303  20.325 -0.1358 -0.1327  0.1169
35906POPC   GL276855   2.720  27.212  20.170  0.3010  0.0693 -0.1480
35906POPC   C1A76856   3.094  27.527  19.953  0.1624 -0.1021 -0.0212
35906POPC   D2A76857   3.051  27.637  19.527  0.0942  0.1873 -0.0374
35906POPC   C3A76858   3.268  27.929  19.192  0.1535 -0.3128  0.2502
35906POPC   C4A76859   3.378  28.336  18.954  0.0073  0.0774  0.0455
35906POPC   C1B76860   2.323  27.226  19.900 -0.0844 -0.1426  0.0035
35906POPC   C2B76861   2.410  27.081  19.484  0.1105 -0.2675  0.4283
35906POPC   C3B76862   2.300  27.175  19.030 -0.2228  0.0557 -0.2782
35906POPC   C4B76863   1.914  27.250  18.813 -0.0026  0.1782  0.0536
35907POPC   NC376864   3.369  28.584  20.674 -0.2574  0.0704 -0.1591
35907POPC   PO476865   3.629  28.366  20.454  0.0328  0.0882  0.3642
35907POPC   GL176866   3.275  28.526  20.230 -0.2231 -0.3267  0.0582
35907POPC   GL276867   3.440  28.795  20.101  0.1893 -0.2432 -0.1069
35907POPC   C1A76868   3.043  28.521  19.838 -0.4375  0.1764 -0.2255
35907POPC   D2A76869   3.130  28.364  19.375 -0.2384 -0.4386 -0.0965
35907POPC   C3A76870   2.848  28.514  19.049  0.2303 -0.2245  0.2201
35907POPC   C4A76871   2.813  28.757  18.717  0.2130  0.0368  0.3518
35907POPC   C1B76872   3.837  28.668  19.863  0.3710 -0.2130  0.0176
35907POPC   C2B76873   4.068  28.624  19.482  0.3394  0.1984  0.0875
35907POPC   C3B76874   4.159  28.872  19.162  0.0275 -0.2848  0.2661
35907POPC   C4B76875   4.134  29.305  19.108  0.0714  0.1719 -0.2584
35908POPC   NC376876  15.403  16.473  20.129  0.2314  0.0984  0.0806
35908POPC   PO476877  15.007  16.399  20.266  0.3379  0.0086 -0.2774
35908POPC   GL176878  15.146  16.190  19.873 -0.2176  0.0978 -0.0156
35908POPC   GL276879  14.870  16.156  19.678 -0.0013 -0.1083 -0.2194
35908POPC   C1A76880  15.247  16.324  19.430  0.0021 -0.0004 -0.3842
35908POPC   D2A76881  15.479  16.352  19.062  0.0448  0.0457  0.0260
35908POPC   C3A76882  15.331  16.194  18.653  0.1200  0.0140  0.2451
35908POPC   C4A76883  15.287  16.105  18.177  0.0048 -0.2085 -0.0160
35908POPC   C1B76884  14.940  15.840  19.381  0.1340 -0.0281 -0.2410
35908POPC   C2B76885  15.054  15.727  18.989 -0.2249 -0.3065 -0.2208
35908POPC   C3B76886  15.277  15.703  18.615  0.0973  0.1693 -0.1382
35908POPC   C4B76887  15.591  15.485  18.325  0.0876 -0.0611  0.1361
35909POPC   NC376888   1.635  23.133  20.031  0.1479 -0.0047 -0.0929
35909POPC   PO476889   2.007  23.092  19.948  0.2623  0.0211 -0.0482
35909POPC   GL176890   1.938  23.149  19.509  0.3704 -0.2041 -0.1542
35909POPC   GL276891   1.669  23.123  19.562  0.0343  0.0903 -0.3806
35909POPC   C1A76892   1.998  23.242  19.072 -0.0827 -0.2379  0.0780
35909POPC   D2A76893   1.802  23.429  18.651 -0.2610  0.0530  0.0455
35909POPC   C3A76894   1.793  23.273  18.256  0.1090 -0.3473 -0.0670
35909POPC   C4A76895   1.701  22.902  18.013 -0.1667 -0.1994  0.2571
35909POPC   C1B76896   1.518  23.068  19.110 -0.0549 -0.0501 -0.0397
35909POPC   C2B76897   1.392  23.017  18.668  0.0970  0.1493  0.1161
35909POPC   C3B76898   1.428  22.711  18.371  0.1153  0.1266  0.1019
35909POPC   C4B76899   1.312  22.456  17.964 -0.2026 -0.3870 -0.0674
35910POPC   NC376900   9.760  31.786  19.682  0.0688 -0.3355 -0.1305
35910POPC   PO476901   9.899  32.141  19.861 -0.4052  0.0556 -0.1115
35910POPC   GL176902  10.000  32.353  19.589  0.0913  0.1141  0.0328
35910POPC   GL276903  10.050  32.634  19.541  0.0122 -0.1379  0.0620
35910POPC   C1A76904  10.147  32.210  19.141  0.0230 -0.0023 -0.0640
35910POPC   D2A76905  10.053  31.876  18.785 -0.2815  0.0853 -0.0368
35910POPC   C3A76906   9.761  31.671  18.491  0.1143 -0.4028 -0.0147
35910POPC   C4A76907   9.643  31.210  18.681  0.0853 -0.1533  0.3219
35910POPC   C1B76908   9.935  32.815  19.141  0.0440  0.0493 -0.0414
35910POPC   C2B76909  10.128  32.981  18.735  0.0160  0.3098  0.2110
35910POPC   C3B76910  10.506  32.796  18.524 -0.2065 -0.0439 -0.2744
35910POPC   C4B76911  10.667  32.683  18.104  0.1741  0.0991 -0.0668
35911POPC   NC376912  14.696  18.689  19.725  0.1047 -0.1449  0.1878
35911POPC   PO476913  14.671  19.063  19.604  0.0983  0.0075 -0.0166
35911POPC   GL176914  14.645  18.869  19.250  0.3440 -0.0535 -0.1578
35911POPC   GL276915  14.538  18.610  19.261  0.2455 -0.0655 -0.1395
35911POPC   C1A76916  14.534  18.883  18.799  0.1717  0.1902  0.1853
35911POPC   D2A76917  14.390  18.605  18.471  0.0257  0.0351  0.2505
35911POPC   C3A76918  14.692  18.637  18.139  0.1778  0.0379 -0.1489
35911POPC   C4A76919  14.721  18.509  17.698 -0.3060  0.2422  0.1750
35911POPC   C1B76920  14.730  18.411  18.962 -0.2892 -0.2070  0.0656
35911POPC   C2B76921  14.808  18.362  18.509 -0.1220 -0.1738  0.1847
35911POPC   C3B76922  15.032  18.226  18.168  0.1414  0.3619 -0.0654
35911POPC   C4B76923  15.427  18.172  17.921 -0.0688 -0.0478  0.0150
35912POPC   NC376924   5.084  27.577  20.364 -0.1144 -0.1800 -0.2256
35912POPC   PO476925   5.369  27.731  20.578  0.0418  0.1338 -0.3683
35912POPC   GL176926   5.450  27.857  20.223 -0.2701 -0.0765 -0.1755
35912POPC   GL276927   5.211  28.061  20.185  0.0905 -0.0790 -0.0518
35912POPC   C1A76928   5.414  27.788  19.779 -0.1946 -0.3763 -0.2372
35912POPC   D2A76929   5.750  27.590  19.475 -0.1813  0.2123  0.2497
35912POPC   C3A76930   5.651  27.572  19.047 -0.1805  0.5489 -0.2620
35912POPC   C4A76931   5.404  27.311  18.771 -0.0852 -0.1255  0.0285
35912POPC   C1B76932   4.791  28.113  19.950  0.1901  0.0160 -0.3737
35912POPC   C2B76933   4.471  28.137  19.622 -0.0609 -0.2395 -0.1088
35912POPC   C3B76934   4.382  28.007  19.212 -0.0686  0.1262  0.3353
35912POPC   C4B76935   4.313  28.109  18.743 -0.3752 -0.0252  0.0272
35913POPC   NC376936  10.627  26.756  19.998 -0.0195 -0.1044  0.0458
35913POPC   PO476937  10.910  26.505  19.874  0.4666  0.0421 -0.1238
35913POPC   GL176938  10.786  26.697  19.459 -0.0510 -0.0279 -0.0847
35913POPC   GL276939  10.917  26.974  19.632  0.4139  0.0723  0.1872
35913POPC   C1A76940  10.386  26.718  19.122  0.1005  0.0274 -0.0841
35913POPC   D2A76941   9.994  26.698  18.955 -0.1027  0.0185  0.2938
35913POPC   C3A76942   9.779  27.056  18.881  0.2155 -0.1339  0.1658
35913POPC   C4A76943   9.858  27.365  18.495 -0.1791 -0.0526  0.0585
35913POPC   C1B76944  11.048  27.053  19.179 -0.0232 -0.1220 -0.1334
35913POPC   C2B76945  11.154  27.187  18.748  0.1863  0.2713  0.1886
35913POPC   C3B76946  11.355  27.225  18.328  0.0843  0.0474  0.2257
35913POPC   C4B76947  11.727  27.217  18.077  0.1264 -0.0768 -0.0361
35914POPC   NC376948  12.600  24.019  19.087 -0.3458  0.0995 -0.0378
35914POPC   PO476949  12.955  24.025  19.013 -0.2705  0.0664 -0.4596
35914POPC   GL176950  12.889  24.384  18.816 -0.4349  0.0539 -0.2387
35914POPC   GL276951  12.865  24.580  19.002 -0.1415 -0.0619 -0.1754
35914POPC   C1A76952  13.140  24.460  18.407 -0.3558  0.0626  0.0192
35914POPC   D2A76953  13.632  24.520  18.332 -0.1166  0.0281 -0.2021
35914POPC   C3A76954  13.671  24.417  17.878  0.2427 -0.1258 -0.1195
35914POPC   C4A76955  13.409  24.443  17.540 -0.1018  0.2004 -0.0306
35914POPC   C1B76956  12.852  24.898  18.741 -0.0983  0.0288  0.2324
35914POPC   C2B76957  12.842  25.222  18.387 -0.0505 -0.0719  0.0802
35914POPC   C3B76958  12.943  25.172  17.942  0.0240 -0.2547  0.1905
35914POPC   C4B76959  12.621  24.982  17.752  0.0876  0.2993 -0.1149
35915POPC   NC376960   9.528  17.092  18.868  0.2371  0.2621  0.1254
35915POPC   PO476961   9.150  17.190  19.026 -0.1072  0.0721  0.4430
35915POPC   GL176962   9.056  17.100  18.650  0.0027 -0.0377  0.0654
35915POPC   GL276963   9.234  17.184  18.462 -0.2720  0.2052 -0.3119
35915POPC   C1A76964   8.794  17.186  18.253  0.2611 -0.3341  0.0780
35915POPC   D2A76965   8.577  16.904  17.932 -0.0688  0.1539  0.2957
35915POPC   C3A76966   8.222  16.646  17.960  0.4039 -0.1431 -0.0733
35915POPC   C4A76967   7.952  16.420  18.286 -0.0891 -0.0458  0.2205
35915POPC   C1B76968   9.308  17.277  17.986 -0.1558  0.0364 -0.2133
35915POPC   C2B76969   9.461  17.097  17.626 -0.1759  0.2417  0.2212
35915POPC   C3B76970   9.628  16.822  17.309  0.1726 -0.1071  0.1861
35915POPC   C4B76971   9.640  16.537  16.969 -0.1999  0.0209  0.1498
35916POPC   NC376972   2.425  32.006  20.891  0.2424  0.2015  0.0528
35916POPC   PO476973   2.501  31.794  20.546  0.0908 -0.6622 -0.0786
35916POPC   GL176974   2.398  31.947  20.150  0.3340  0.0420 -0.0822
35916POPC   GL276975   2.679  32.137  20.147 -0.0209  0.1605  0.0236
35916POPC   C1A76976   2.281  32.287  19.841  0.1995  0.1347 -0.0499
35916POPC   D2A76977   2.150  32.546  19.404  0.1442  0.0913 -0.3139
35916POPC   C3A76978   2.370  32.582  19.021 -0.0988 -0.1367 -0.1508
35916POPC   C4A76979   2.732  32.447  18.798  0.0267  0.0427  0.2756
35916POPC   C1B76980   2.679  31.898  19.768  0.2118 -0.1537  0.1900
35916POPC   C2B76981   2.743  31.823  19.351  0.1216 -0.2303  0.1782
35916POPC   C3B76982   2.612  31.983  18.892  0.1998 -0.0540 -0.3866
35916POPC   C4B76983   2.314  32.282  18.580 -0.0355 -0.1727  0.2305
35917POPC   NC376984   7.277  27.025  19.497  0.3271 -0.2199 -0.3413
35917POPC   PO476985   7.402  26.643  19.560 -0.0194  0.2952 -0.2811
35917POPC   GL176986   7.477  26.594  19.196  0.2494 -0.1004 -0.1699
35917POPC   GL276987   7.185  26.451  19.037  0.0911  0.1268  0.0480
35917POPC   C1A76988   7.458  26.855  18.798  0.1030 -0.2544 -0.0454
35917POPC   D2A76989   7.290  27.104  18.450  0.0148 -0.1859 -0.1678
35917POPC   C3A76990   7.594  27.315  18.212 -0.2459 -0.0873  0.0338
35917POPC   C4A76991   8.010  27.212  18.063  0.0445  0.1767 -0.1492
35917POPC   C1B76992   6.920  26.796  19.045  0.1620 -0.0243 -0.1496
35917POPC   C2B76993   6.874  27.176  18.815 -0.1648  0.1768 -0.0073
35917POPC   C3B76994   6.710  27.477  18.514 -0.2053  0.0818  0.0691
35917POPC   C4B76995   6.479  27.868  18.439  0.2635  0.2758 -0.1675
35918POPC   NC376996   9.575  24.844  18.239 -0.0771  0.0757 -0.0244
35918POPC   PO476997   9.471  24.581  17.932 -0.0703 -0.1714  0.2711
35918POPC   GL176998   9.328  24.963  17.681 -0.1058 -0.1234  0.1193
35918POPC   GL276999   9.349  24.863  17.391 -0.1132 -0.0160 -0.0860
35918POPC   C1A77000   9.434  25.320  17.372 -0.3740  0.0826  0.1889
35918POPC   D2A77001   9.136  25.684  17.435 -0.0522  0.1823  0.2350
35918POPC   C3A77002   9.194  26.115  17.267 -0.0040  0.0678 -0.0654
35918POPC   C4A77003   9.345  26.507  17.083 -0.0877  0.0246  0.0088
35918POPC   C1B77004   9.407  25.030  16.961  0.0601  0.0779 -0.0854
35918POPC   C2B77005   9.553  25.094  16.531  0.0761 -0.1366  0.0665
35918POPC   C3B77006   9.554  25.256  16.097 -0.2310 -0.0556  0.1167
35918POPC   C4B77007   9.447  25.427  15.693 -0.0271 -0.0593 -0.4349
35919POPC   NC377008   6.390  22.284  18.222  0.2486 -0.2864  0.1322
35919POPC   PO477009   6.679  22.464  18.435 -0.2452 -0.0244  0.3925
35919POPC   GL177010   6.497  22.698  18.182 -0.1644  0.1137 -0.2491
35919POPC   GL277011   6.571  22.832  17.856  0.3234 -0.0044  0.1822
35919POPC   C1A77012   6.105  22.590  17.927 -0.1997  0.3008  0.0971
35919POPC   D2A77013   5.936  22.292  17.682  0.2084 -0.3552  0.1737
35919POPC   C3A77014   5.744  22.149  17.302 -0.1939  0.1665 -0.1173
35919POPC   C4A77015   5.903  21.721  17.102  0.3158  0.0209  0.0540
35919POPC   C1B77016   6.372  22.538  17.524  0.1677 -0.0714 -0.1937
35919POPC   C2B77017   6.089  22.581  17.227  0.3846  0.0378  0.1864
35919POPC   C3B77018   5.858  23.016  17.259 -0.1630  0.1453  0.1362
35919POPC   C4B77019   5.851  23.432  16.963  0.1305  0.0566 -0.1342
35920POPC   NC377020   7.122  29.717  20.188 -0.3603  0.0353 -0.1722
35920POPC   PO477021   6.784  29.603  20.150  0.0433  0.4459 -0.1024
35920POPC   GL177022   6.805  29.291  19.947  0.0247 -0.0228 -0.1365
35920POPC   GL277023   6.984  29.361  19.740  0.2637 -0.0843 -0.0746
35920POPC   C1A77024   6.522  29.122  19.655  0.0744  0.0200  0.3247
35920POPC   D2A77025   6.454  28.970  19.253 -0.1366 -0.3460  0.1524
35920POPC   C3A77026   6.388  29.050  18.785  0.3889  0.1047 -0.0778
35920POPC   C4A77027   6.144  28.823  18.411 -0.2454 -0.0657 -0.0160
35920POPC   C1B77028   6.861  29.251  19.315 -0.1014 -0.1301 -0.0907
35920POPC   C2B77029   6.841  29.396  18.904 -0.2390 -0.0850  0.1429
35920POPC   C3B77030   7.168  29.434  18.628  0.1563  0.0105  0.0140
35920POPC   C4B77031   7.581  29.519  18.443 -0.1875 -0.0786  0.3731
35921POPC   NC377032   8.653  19.947  17.012  0.0659 -0.3366  0.2682
35921POPC   PO477033   8.692  20.294  16.815  0.1365  0.1907  0.1710
35921POPC   GL177034   8.714  20.086  16.471 -0.0372  0.1228  0.0813
35921POPC   GL277035   8.411  19.993  16.502  0.0123 -0.0345  0.1130
35921POPC   C1A77036   8.660  19.733  16.154 -0.3511  0.0158  0.1443
35921POPC   D2A77037   8.457  19.334  16.219  0.1819  0.2490  0.1779
35921POPC   C3A77038   8.195  19.138  15.849  0.0690 -0.2235 -0.0130
35921POPC   C4A77039   7.818  18.825  15.827 -0.2470  0.1406  0.0226
35921POPC   C1B77040   8.116  19.720  16.331  0.1700  0.3247 -0.2765
35921POPC   C2B77041   7.952  19.323  16.252  0.2941  0.1194 -0.1628
35921POPC   C3B77042   7.523  19.244  16.005  0.0356 -0.2255  0.1354
35921POPC   C4B77043   7.098  19.246  15.891  0.0495 -0.0856  0.0528
35922POPC   NC377044  13.519  22.830  18.766  0.1233  0.2517 -0.3675
35922POPC   PO477045  13.223  23.038  18.696  0.0656  0.0635 -0.0588
35922POPC   GL177046  13.198  23.129  18.416 -0.2320 -0.0097 -0.2852
35922POPC   GL277047  13.026  23.042  18.204  0.0279  0.0697  0.1443
35922POPC   C1A77048  13.343  23.524  18.213 -0.1174  0.0010  0.1321
35922POPC   D2A77049  13.599  23.916  18.039  0.0773  0.0804 -0.1249
35922POPC   C3A77050  14.090  23.810  17.977 -0.0952 -0.2669  0.2669
35922POPC   C4A77051  14.403  23.577  17.819  0.1990 -0.0315 -0.1487
35922POPC   C1B77052  13.111  23.067  17.748 -0.1536  0.0542  0.0549
35922POPC   C2B77053  13.116  23.185  17.350 -0.1175  0.1498 -0.0324
35922POPC   C3B77054  13.424  23.381  17.086 -0.0326  0.3770 -0.2342
35922POPC   C4B77055  13.539  23.504  16.653  0.1054  0.2066  0.1418
35923POPC   NC377056   9.167  24.472  17.567  0.0365  0.1536 -0.2685
35923POPC   PO477057   9.300  24.129  17.381 -0.1988 -0.2064  0.0111
35923POPC   GL177058   9.165  24.375  17.027  0.2153  0.0425  0.3332
35923POPC   GL277059   9.032  24.244  16.797  0.1683 -0.3130  0.0426
35923POPC   C1A77060   8.885  24.729  16.947  0.0340 -0.1050 -0.1226
35923POPC   D2A77061   8.860  25.103  16.693 -0.0536  0.1938 -0.1580
35923POPC   C3A77062   8.602  25.139  16.357 -0.2329 -0.5092  0.2804
35923POPC   C4A77063   8.518  25.237  15.878  0.1754 -0.2029 -0.1976
35923POPC   C1B77064   9.170  24.687  16.517  0.1790  0.1474 -0.1428
35923POPC   C2B77065   9.135  25.071  16.254  0.1957  0.3778 -0.0932
35923POPC   C3B77066   9.041  25.417  15.994  0.0069 -0.0225 -0.2097
35923POPC   C4B77067   9.066  25.825  15.779  0.1791  0.0441  0.1630
35924POPC   NC377068  15.453  24.921  20.037 -0.0872  0.0371 -0.2287
35924POPC   PO477069  15.098  24.855  19.903 -0.0543 -0.1033 -0.1329
35924POPC   GL177070  14.804  24.739  19.514  0.1829  0.2614 -0.2533
35924POPC   GL277071  14.931  24.498  19.535  0.1659  0.4027  0.1168
35924POPC   C1A77072  14.693  24.669  19.074 -0.6475 -0.2567 -0.2605
35924POPC   D2A77073  14.776  24.343  18.749 -0.0596 -0.0334 -0.0626
35924POPC   C3A77074  15.134  24.268  18.534 -0.1663  0.0644  0.0229
35924POPC   C4A77075  15.516  24.506  18.662 -0.0986 -0.2369  0.3041
35924POPC   C1B77076  15.078  24.343  19.125 -0.0040 -0.0276  0.1791
35924POPC   C2B77077  15.455  24.097  18.960 -0.0689 -0.2560  0.1773
35924POPC   C3B77078  15.972  24.135  19.004  0.0875 -0.3071  0.4624
35924POPC   C4B77079  16.417  24.027  18.916 -0.1894  0.0731 -0.2225
35925POPC   NC377080   9.595  23.590  17.252  0.2922  0.0273 -0.2567
35925POPC   PO477081   9.920  23.624  17.046 -0.3105  0.2749 -0.1516
35925POPC   GL177082  10.282  23.881  16.875  0.2792 -0.3358  0.2024
35925POPC   GL277083  10.561  23.891  16.864  0.1598  0.0697 -0.0809
35925POPC   C1A77084  10.189  24.238  16.595 -0.0696  0.0820  0.1892
35925POPC   D2A77085   9.849  24.182  16.275 -0.2813  0.0828  0.0808
35925POPC   C3A77086   9.573  24.367  16.572  0.1407 -0.2179  0.0293
35925POPC   C4A77087   9.556  24.594  16.998 -0.0412  0.3257 -0.0670
35925POPC   C1B77088  10.693  24.281  16.615 -0.3628 -0.1849  0.1126
35925POPC   C2B77089  10.444  24.658  16.474  0.1476  0.1721 -0.0982
35925POPC   C3B77090   9.964  24.771  16.367 -0.2220 -0.2559 -0.2339
35925POPC   C4B77091   9.575  24.705  16.192 -0.1882 -0.1720 -0.3085
35926POPC   NC377092  11.901  31.043  20.675 -0.1543  0.0617  0.2637
35926POPC   PO477093  11.664  31.019  20.390  0.0651 -0.0599 -0.0168
35926POPC   GL177094  11.721  31.265  20.174 -0.0576  0.1406  0.1343
35926POPC   GL277095  11.446  31.317  20.011  0.0074 -0.1552  0.2328
35926POPC   C1A77096  11.887  31.498  19.786 -0.0736  0.1460  0.3155
35926POPC   D2A77097  11.654  31.541  19.437  0.4377 -0.0806  0.1245
35926POPC   C3A77098  11.779  31.282  19.080 -0.1376  0.2293  0.0173
35926POPC   C4A77099  12.178  31.039  19.073 -0.2776 -0.2546 -0.0929
35926POPC   C1B77100  11.506  31.092  19.612  0.0694 -0.1861  0.0396
35926POPC   C2B77101  11.331  31.204  19.152  0.0097 -0.1285 -0.0905
35926POPC   C3B77102  11.368  31.004  18.729 -0.1088 -0.0671  0.3150
35926POPC   C4B77103  11.338  30.705  18.348 -0.4159 -0.4379 -0.2247
35927POPC   NC377104  15.952  24.930  19.818  0.0533  0.1315  0.0464
35927POPC   PO477105  15.748  25.278  19.854 -0.0998  0.0935  0.1191
35927POPC   GL177106  15.654  25.535  19.509  0.2962  0.3687  0.0251
35927POPC   GL277107  15.684  25.723  19.713 -0.4465 -0.0795  0.0607
35927POPC   C1A77108  15.505  25.329  19.142  0.0559 -0.0076  0.3299
35927POPC   D2A77109  15.536  24.970  18.878  0.0605 -0.1827  0.1571
35927POPC   C3A77110  15.528  24.558  19.154 -0.0070  0.0472  0.1014
35927POPC   C4A77111  15.373  24.298  19.493 -0.3302 -0.0080 -0.0420
35927POPC   C1B77112  15.649  25.918  19.332  0.1739  0.0384 -0.1024
35927POPC   C2B77113  15.436  25.885  18.918 -0.2244  0.2784  0.2861
35927POPC   C3B77114  15.242  25.904  18.489 -0.0342  0.1013  0.0842
35927POPC   C4B77115  15.410  25.949  18.026 -0.0182  0.1426 -0.0355
35928POPC   NC377116   4.019  31.218  20.731  0.1209  0.0840  0.0812
35928POPC   PO477117   3.993  30.809  20.679  0.4085  0.1135  0.1878
35928POPC   GL177118   4.008  30.539  20.309 -0.0214 -0.1274 -0.1198
35928POPC   GL277119   3.976  30.799  20.170 -0.2916 -0.0899 -0.3221
35928POPC   C1A77120   4.076  30.364  19.913  0.0247 -0.1618  0.0263
35928POPC   D2A77121   4.419  30.469  19.661 -0.0747 -0.0616 -0.0571
35928POPC   C3A77122   4.317  30.530  19.199 -0.2110 -0.2707 -0.0404
35928POPC   C4A77123   4.235  30.860  18.815  0.1882 -0.0292 -0.0820
35928POPC   C1B77124   3.939  30.839  19.707 -0.1118  0.2858 -0.1728
35928POPC   C2B77125   3.788  30.720  19.256  0.1562  0.0489 -0.4457
35928POPC   C3B77126   3.600  30.472  18.889  0.0185 -0.0077  0.0863
35928POPC   C4B77127   3.440  30.320  18.498  0.0397  0.2378 -0.0644
35929POPC   NC377128   9.720  22.946  12.484 -0.2209 -0.0793  0.0342
35929POPC   PO477129   9.960  22.999  12.201 -0.3541  0.0918  0.1354
35929POPC   GL177130   9.783  23.352  12.384  0.0621 -0.3553 -0.1228
35929POPC   GL277131   9.757  23.430  12.668  0.0406 -0.1331 -0.2860
35929POPC   C1A77132   9.394  23.607  12.325 -0.1983 -0.1818 -0.2000
35929POPC   D2A77133   9.039  23.907  12.114 -0.2016 -0.1505  0.2088
35929POPC   C3A77134   8.944  24.262  12.410  0.2311 -0.2619  0.1003
35929POPC   C4A77135   9.129  24.224  12.801 -0.2089 -0.3936  0.0014
35929POPC   C1B77136  10.054  23.732  12.774  0.1893  0.0715  0.1940
35929POPC   C2B77137  10.221  24.181  12.841  0.1837  0.3443  0.1668
35929POPC   C3B77138  10.315  24.548  12.601  0.0174  0.1238  0.1712
35929POPC   C4B77139  10.248  24.910  12.329  0.3181 -0.1333  0.0943
35930POPC   NC377140  11.820  19.812  17.412  0.0033  0.2160 -0.2814
35930POPC   PO477141  12.055  19.626  17.704 -0.1562  0.2356  0.0945
35930POPC   GL177142  12.232  19.341  17.457  0.0573  0.5029 -0.0094
35930POPC   GL277143  12.292  19.453  17.194  0.1708  0.0437  0.1256
35930POPC   C1A77144  12.310  18.941  17.215 -0.2979 -0.2862  0.1339
35930POPC   D2A77145  12.432  18.829  16.776 -0.2141  0.1737 -0.0307
35930POPC   C3A77146  12.466  18.405  16.535 -0.2604 -0.1534  0.0929
35930POPC   C4A77147  12.684  17.981  16.494 -0.0316 -0.0421  0.0694
35930POPC   C1B77148  12.620  19.332  16.880 -0.1456  0.1305 -0.1215
35930POPC   C2B77149  12.990  19.322  16.606  0.1515  0.1161 -0.2827
35930POPC   C3B77150  13.329  19.326  16.287 -0.0216 -0.1339  0.0512
35930POPC   C4B77151  13.554  19.721  16.265  0.4846 -0.1794  0.0089
35931POPC   NC377152  12.318  19.261  17.996 -0.3080 -0.0820 -0.0735
35931POPC   PO477153  11.915  19.254  18.045  0.0243  0.0942 -0.0864
35931POPC   GL177154  12.109  18.979  17.702  0.3468 -0.2912 -0.0063
35931POPC   GL277155  11.826  18.832  17.677  0.2705  0.0626 -0.5569
35931POPC   C1A77156  12.220  18.536  17.647  0.0246  0.3483  0.0882
35931POPC   D2A77157  12.067  18.282  17.318 -0.0174  0.1811 -0.0235
35931POPC   C3A77158  12.201  17.864  17.353  0.0529  0.2996 -0.0601
35931POPC   C4A77159  12.570  17.552  17.180 -0.0342  0.0449 -0.1850
35931POPC   C1B77160  11.805  18.827  17.236 -0.2441 -0.1110 -0.2479
35931POPC   C2B77161  11.884  18.882  16.819 -0.2947  0.1109 -0.2015
35931POPC   C3B77162  12.106  18.867  16.397  0.2247  0.0136  0.1703
35931POPC   C4B77163  12.393  18.642  16.106 -0.0294  0.2761  0.0496
35932POPC   NC377164   9.396  19.330  17.533  0.0831 -0.3707  0.0731
35932POPC   PO477165   9.264  19.370  17.168  0.1206  0.0456 -0.1719
35932POPC   GL177166   9.308  19.092  16.879  0.2281  0.1749 -0.2756
35932POPC   GL277167   9.199  19.058  16.627  0.3526  0.1910  0.0647
35932POPC   C1A77168   9.045  18.704  16.966  0.1385 -0.1075 -0.0445
35932POPC   D2A77169   8.815  18.364  16.742  0.1509  0.0169 -0.2597
35932POPC   C3A77170   8.549  17.996  16.754 -0.0405  0.0628  0.1516
35932POPC   C4A77171   8.358  17.570  16.702  0.2455  0.1435 -0.3165
35932POPC   C1B77172   9.489  19.280  16.340 -0.3091 -0.0182 -0.1341
35932POPC   C2B77173   9.896  19.407  16.510  0.2933 -0.3537 -0.2276
35932POPC   C3B77174  10.320  19.232  16.565 -0.1541 -0.4783  0.0961
35932POPC   C4B77175  10.577  19.240  16.231 -0.1100  0.1590  0.1326
35933POPC   NC377176  10.778  17.482  19.418 -0.4425  0.1549 -0.1340
35933POPC   PO477177  11.094  17.235  19.497 -0.2635 -0.0178 -0.2468
35933POPC   GL177178  11.124  17.107  19.050  0.0677 -0.4706  0.1153
35933POPC   GL277179  11.319  16.819  19.065  0.1391  0.0047 -0.0255
35933POPC   C1A77180  11.140  17.129  18.600 -0.1454  0.1336  0.1977
35933POPC   D2A77181  11.097  17.332  18.147  0.4000  0.1833  0.1318
35933POPC   C3A77182  10.882  17.079  17.799  0.0569  0.2106  0.1390
35933POPC   C4A77183  10.853  16.749  17.459  0.2004 -0.1679  0.1133
35933POPC   C1B77184  11.488  16.776  18.664 -0.1823  0.1799 -0.1065
35933POPC   C2B77185  11.557  16.582  18.307 -0.0243  0.1196  0.0778
35933POPC   C3B77186  11.591  16.174  18.069  0.1275  0.0351 -0.1189
35933POPC   C4B77187  11.741  15.794  17.837  0.1490  0.1230 -0.3432
35934POPC   NC377188  10.336  23.372  17.626 -0.1237 -0.1035 -0.0246
35934POPC   PO477189  10.711  23.587  17.610  0.1310 -0.1606  0.2145
35934POPC   GL177190  10.651  23.969  17.556  0.1712  0.1126 -0.2301
35934POPC   GL277191  10.692  24.110  17.792 -0.0430 -0.1269 -0.0584
35934POPC   C1A77192  10.945  24.089  17.253 -0.1054 -0.1593  0.0682
35934POPC   D2A77193  11.266  24.444  17.138  0.5317 -0.0610  0.1364
35934POPC   C3A77194  11.310  24.907  16.949 -0.0181  0.1090 -0.1015
35934POPC   C4A77195  11.448  25.326  16.899 -0.3208 -0.2665  0.0286
35934POPC   C1B77196  11.072  24.339  17.665  0.3196  0.0933 -0.2727
35934POPC   C2B77197  11.423  24.582  17.605  0.0032  0.0171  0.1236
35934POPC   C3B77198  11.664  24.808  17.329 -0.0807  0.0245 -0.1823
35934POPC   C4B77199  11.849  25.157  17.057 -0.2394 -0.0003  0.4130
35935POPC   NC377200   1.004  16.844  20.368 -0.2091 -0.2842 -0.1015
35935POPC   PO477201   0.610  16.832  20.368  0.2783  0.0249  0.5688
35935POPC   GL177202   0.591  16.914  19.992 -0.3059  0.0092  0.0979
35935POPC   GL277203   0.802  17.028  19.869 -0.0127 -0.1305  0.0304
35935POPC   C1A77204   0.529  16.706  19.563  0.0658 -0.1497  0.1015
35935POPC   D2A77205   0.311  16.631  19.136 -0.0528  0.1320 -0.0495
35935POPC   C3A77206   0.429  16.311  18.825 -0.1008 -0.0625  0.1934
35935POPC   C4A77207   0.546  16.032  18.487  0.0257  0.3367 -0.1420
35935POPC   C1B77208   0.701  17.243  19.513  0.2244  0.0294  0.3091
35935POPC   C2B77209   0.755  17.022  19.102 -0.0301 -0.2505  0.0837
35935POPC   C3B77210   0.611  16.813  18.767 -0.3739 -0.1393 -0.0375
35935POPC   C4B77211   0.625  16.549  18.399  0.0132 -0.1723 -0.1665
35936POPC   NC377212  13.510  29.141  20.585  0.0545 -0.0671  0.2477
35936POPC   PO477213  13.247  28.914  20.742 -0.2917  0.2617  0.1016
35936POPC   GL177214  13.141  28.804  20.440  0.0106 -0.0903  0.3426
35936POPC   GL277215  12.892  28.900  20.340 -0.0798  0.2482 -0.1862
35936POPC   C1A77216  13.489  28.922  20.091 -0.0763  0.3718 -0.0683
35936POPC   D2A77217  13.746  28.730  19.810 -0.0072 -0.1082 -0.0256
35936POPC   C3A77218  13.671  28.483  19.384 -0.1631  0.4202  0.0272
35936POPC   C4A77219  13.459  28.683  19.001  0.0230 -0.0344 -0.0356
35936POPC   C1B77220  12.996  28.827  19.890 -0.1317  0.0020 -0.0241
35936POPC   C2B77221  12.748  28.756  19.505  0.0202 -0.0931 -0.1235
35936POPC   C3B77222  12.421  29.020  19.353  0.1913 -0.0352 -0.2149
35936POPC   C4B77223  12.187  28.932  19.020  0.1789 -0.3016  0.0642
35937POPC   NC377224   4.356  20.150  19.399  0.1160  0.1772 -0.1276
35937POPC   PO477225   4.665  20.216  19.167  0.1723 -0.0003 -0.3999
35937POPC   GL177226   4.674  20.065  18.820 -0.0091  0.4847  0.2888
35937POPC   GL277227   4.960  20.077  18.780 -0.1764 -0.0856  0.3371
35937POPC   C1A77228   4.354  19.780  18.632  0.3223 -0.2918 -0.0600
35937POPC   D2A77229   4.114  19.743  18.236  0.2770 -0.3115 -0.3414
35937POPC   C3A77230   4.230  19.319  18.075  0.2731  0.3060  0.0866
35937POPC   C4A77231   4.579  19.062  17.809  0.1488  0.0943  0.2538
35937POPC   C1B77232   4.738  20.012  18.367 -0.1583  0.1500 -0.1248
35937POPC   C2B77233   4.816  20.209  17.932  0.1905 -0.1851 -0.1190
35937POPC   C3B77234   4.965  20.234  17.522 -0.1145  0.2515 -0.0251
35937POPC   C4B77235   4.917  19.957  17.187  0.1836 -0.0350 -0.1352
35938POPC   NC377236   5.462  29.670  20.518 -0.2968  0.4338 -0.2595
35938POPC   PO477237   5.236  29.954  20.394  0.0498 -0.0467  0.2375
35938POPC   GL177238   5.034  29.857  20.110 -0.0669  0.1001  0.0251
35938POPC   GL277239   4.692  29.731  20.187  0.0605 -0.1978 -0.2945
35938POPC   C1A77240   4.760  30.030  19.800 -0.2910  0.2847  0.1582
35938POPC   D2A77241   4.502  30.052  19.407 -0.2303  0.0983 -0.1108
35938POPC   C3A77242   4.493  30.023  18.911  0.0457 -0.1846 -0.2172
35938POPC   C4A77243   4.326  29.847  18.501 -0.2980 -0.1457 -0.0439
35938POPC   C1B77244   4.972  29.586  19.780  0.2141 -0.0935 -0.0238
35938POPC   C2B77245   5.300  29.570  19.427 -0.0112 -0.0265 -0.1132
35938POPC   C3B77246   5.530  29.479  18.975 -0.2323 -0.1707 -0.1654
35938POPC   C4B77247   5.509  29.140  18.665 -0.0477  0.0609 -0.2063
35939POPC   NC377248   3.520  29.278  20.494 -0.1399 -0.0891 -0.0592
35939POPC   PO477249   3.199  29.023  20.482  0.1430 -0.3302 -0.3102
35939POPC   GL177250   2.972  28.856  20.143  0.1518 -0.1434  0.4360
35939POPC   GL277251   3.014  29.155  20.008 -0.0579  0.1195  0.2572
35939POPC   C1A77252   2.647  28.824  19.805 -0.0491 -0.0323 -0.0640
35939POPC   D2A77253   2.688  28.912  19.322  0.2609  0.3404 -0.0124
35939POPC   C3A77254   2.550  29.216  19.047  0.1140 -0.1919 -0.2424
35939POPC   C4A77255   2.153  29.245  18.787 -0.1755 -0.2035  0.1519
35939POPC   C1B77256   3.183  28.984  19.676 -0.1284 -0.3232  0.0761
35939POPC   C2B77257   3.124  28.915  19.164 -0.0036 -0.0733 -0.1870
35939POPC   C3B77258   3.315  28.776  18.740  0.0169 -0.3810 -0.2172
35939POPC   C4B77259   3.628  28.501  18.557  0.1851 -0.0266  0.0967
35940POPC   NC377260   9.753  22.956  14.922 -0.1682  0.1015  0.1314
35940POPC   PO477261  10.071  23.189  14.938  0.0404 -0.3692 -0.2814
35940POPC   GL177262  10.079  23.530  14.866  0.0408  0.4083  0.1590
35940POPC   GL277263  10.023  23.659  14.646  0.0176  0.1420  0.0068
35940POPC   C1A77264  10.328  23.857  15.022  0.2234 -0.0924 -0.5676
35940POPC   D2A77265  10.435  24.278  15.168  0.3360  0.3033 -0.4586
35940POPC   C3A77266  10.331  24.680  15.342  0.0125  0.3824 -0.1490
35940POPC   C4A77267  10.439  24.996  15.084 -0.1613  0.3187  0.0571
35940POPC   C1B77268   9.756  23.891  14.889  0.0593  0.0741  0.3572
35940POPC   C2B77269   9.565  24.136  15.227 -0.0136 -0.3410 -0.1503
35940POPC   C3B77270   9.232  24.380  15.458  0.1876  0.1587  0.4179
35940POPC   C4B77271   8.876  24.684  15.553  0.3232 -0.4016 -0.0281
35941POPC   NC377272  10.328  17.519  18.845  0.1863  0.2025  0.1147
35941POPC   PO477273  10.682  17.612  18.951 -0.1789 -0.1539 -0.0276
35941POPC   GL177274  10.659  17.395  18.551 -0.3214 -0.6086 -0.2042
35941POPC   GL277275  10.696  17.136  18.765  0.2218  0.0217 -0.0567
35941POPC   C1A77276  10.597  17.455  18.111  0.1236  0.2940 -0.0372
35941POPC   D2A77277  10.474  17.301  17.680 -0.0221 -0.0982  0.0492
35941POPC   C3A77278  10.735  17.214  17.320 -0.0085 -0.0142  0.0095
35941POPC   C4A77279  10.846  17.273  16.890 -0.1166  0.1372  0.0570
35941POPC   C1B77280  10.747  16.997  18.396  0.0947 -0.4857 -0.0570
35941POPC   C2B77281  11.108  16.796  18.195 -0.1594  0.1967  0.1486
35941POPC   C3B77282  11.357  16.579  17.852  0.0009  0.0802  0.2224
35941POPC   C4B77283  11.339  16.666  17.378 -0.2042 -0.0868  0.1589
35942POPC   NC377284   6.244  20.554  18.658 -0.0430  0.0023 -0.2802
35942POPC   PO477285   6.583  20.530  18.459 -0.1419  0.0409  0.0529
35942POPC   GL177286   6.350  20.342  18.176  0.3218 -0.0064  0.1844
35942POPC   GL277287   6.142  20.143  18.388  0.0207  0.0566  0.1652
35942POPC   C1A77288   6.282  19.986  17.845 -0.1766 -0.4503  0.2021
35942POPC   D2A77289   6.208  19.718  17.471  0.0172 -0.2911 -0.1796
35942POPC   C3A77290   6.219  19.338  17.175 -0.0643  0.0657 -0.1623
35942POPC   C4A77291   6.334  18.966  16.949 -0.0296  0.0924  0.1617
35942POPC   C1B77292   5.839  19.951  18.056 -0.3180  0.0297 -0.1506
35942POPC   C2B77293   5.763  19.804  17.623  0.2553  0.3370 -0.0559
35942POPC   C3B77294   5.788  19.577  17.237  0.2068 -0.1338  0.0594
35942POPC   C4B77295   5.831  19.363  16.799  0.4338 -0.2725  0.1056
35943POPC   NC377296  15.113  24.329  19.953  0.0809 -0.1576  0.1043
35943POPC   PO477297  14.777  24.157  19.862  0.2507  0.2225  0.2755
35943POPC   GL177298  14.879  24.076  19.519  0.4592  0.2206 -0.2927
35943POPC   GL277299  14.667  24.162  19.243 -0.2449  0.0062  0.0213
35943POPC   C1A77300  15.268  23.819  19.411 -0.1200  0.3576  0.1412
35943POPC   D2A77301  15.389  23.384  19.500 -0.4281  0.2315  0.0106
35943POPC   C3A77302  15.522  23.031  19.209  0.0525 -0.1691  0.3695
35943POPC   C4A77303  15.729  22.749  18.910  0.0138 -0.1457 -0.0762
35943POPC   C1B77304  14.957  23.857  19.007  0.0465  0.2221  0.1912
35943POPC   C2B77305  14.915  23.829  18.590 -0.3088  0.0563  0.0538
35943POPC   C3B77306  15.197  23.881  18.250 -0.0890 -0.2446  0.1846
35943POPC   C4B77307  15.467  24.259  18.167  0.1236 -0.0980 -0.2938
35944POPC   NC377308  11.456  32.830  20.093  0.1043 -0.3441 -0.2247
35944POPC   PO477309  11.152  33.080  19.981  0.2597  0.1425  0.0874
35944POPC   GL177310  11.254  32.861  19.593 -0.0998 -0.2042  0.2264
35944POPC   GL277311  10.964  32.724  19.440  0.1044  0.1385 -0.0369
35944POPC   C1A77312  11.655  32.828  19.373  0.1053 -0.1046  0.1783
35944POPC   D2A77313  12.045  32.565  19.236  0.3162 -0.0495 -0.0586
35944POPC   C3A77314  12.073  32.405  18.812  0.0537  0.1269 -0.0592
35944POPC   C4A77315  12.089  32.189  18.363  0.0338  0.1785 -0.3737
35944POPC   C1B77316  11.301  32.616  19.132  0.2302 -0.0622 -0.0133
35944POPC   C2B77317  11.493  32.346  18.795 -0.0109 -0.2559 -0.4103
35944POPC   C3B77318  11.504  32.048  18.459 -0.1558 -0.1443  0.2358
35944POPC   C4B77319  11.447  31.948  17.992  0.0437 -0.2701 -0.1781
35945POPC   NC377320  15.824  29.752  21.056 -0.3264 -0.1719  0.0962
35945POPC   PO477321  15.897  29.751  20.685  0.0937 -0.0354  0.3749
35945POPC   GL177322  16.163  29.707  20.408  0.0445 -0.1844  0.1002
35945POPC   GL277323  15.994  29.418  20.333 -0.3282 -0.0514  0.2185
35945POPC   C1A77324  16.255  30.045  20.064 -0.1502 -0.1497 -0.0960
35945POPC   D2A77325  16.257  30.318  19.691 -0.1019  0.2515 -0.1230
35945POPC   C3A77326  16.423  30.108  19.311  0.1133 -0.0630 -0.0677
35945POPC   C4A77327  16.565  29.980  18.858  0.1845 -0.2816 -0.0511
35945POPC   C1B77328  16.233  29.405  19.948  0.0283  0.3617  0.0780
35945POPC   C2B77329  16.218  29.313  19.530  0.0896 -0.2465  0.1229
35945POPC   C3B77330  16.119  28.967  19.258  0.1440 -0.0726  0.0289
35945POPC   C4B77331  15.738  28.800  19.073 -0.1349 -0.2804  0.4257
35946POPC   NC377332  14.226  15.035  20.326  0.1816  0.1513 -0.2238
35946POPC   PO477333  14.344  14.652  20.222  0.3305 -0.2257 -0.0130
35946POPC   GL177334  14.304  14.496  19.828  0.3726  0.0911  0.0912
35946POPC   GL277335  14.585  14.478  19.765  0.1792 -0.1016 -0.0308
35946POPC   C1A77336  14.235  14.746  19.421 -0.2403  0.1834 -0.5114
35946POPC   D2A77337  14.261  15.033  19.064 -0.6472  0.0951 -0.1773
35946POPC   C3A77338  14.173  15.007  18.611 -0.0424  0.0085 -0.0102
35946POPC   C4A77339  14.314  15.080  18.206 -0.1609 -0.1700 -0.0761
35946POPC   C1B77340  14.770  14.493  19.378 -0.1267  0.0472 -0.2231
35946POPC   C2B77341  15.011  14.480  18.978  0.1600 -0.1028  0.1143
35946POPC   C3B77342  15.300  14.577  18.645 -0.3596 -0.0038  0.0461
35946POPC   C4B77343  15.634  14.455  18.315  0.1812  0.0268  0.0533
35947POPC   NC377344   0.220  17.289  20.442 -0.0986 -0.0551 -0.0020
35947POPC   PO477345   0.194  17.051  20.151  0.0702  0.0608  0.0567
35947POPC   GL177346   0.052  17.105  19.797  0.0891 -0.0021  0.0548
35947POPC   GL277347  -0.204  17.136  19.785  0.4839 -0.0019  0.3297
35947POPC   C1A77348   0.204  17.079  19.343  0.0021 -0.3989 -0.1646
35947POPC   D2A77349   0.253  17.269  18.925 -0.3724  0.0982 -0.0675
35947POPC   C3A77350   0.367  17.174  18.502  0.1735  0.1529 -0.1360
35947POPC   C4A77351   0.152  17.038  18.128  0.0234  0.0619 -0.1846
35947POPC   C1B77352  -0.267  16.915  19.400  0.0970  0.1404 -0.1472
35947POPC   C2B77353  -0.118  16.838  18.963 -0.0585 -0.0613  0.1154
35947POPC   C3B77354   0.101  16.710  18.644  0.3646  0.2009  0.3738
35947POPC   C4B77355   0.148  16.483  18.242  0.1518  0.0269 -0.0901
35948POPC   NC377356  11.100  22.142  15.791 -0.0225  0.1546 -0.0703
35948POPC   PO477357  11.211  22.104  16.153 -0.3236  0.1403  0.0232
35948POPC   GL177358  11.546  22.270  16.071 -0.0351 -0.3863 -0.0049
35948POPC   GL277359  11.744  22.257  16.214 -0.0626 -0.1342 -0.1177
35948POPC   C1A77360  11.842  22.547  15.834  0.0894 -0.0135 -0.1278
35948POPC   D2A77361  12.284  22.614  15.735 -0.0633 -0.0493 -0.2772
35948POPC   C3A77362  12.689  22.395  15.693 -0.3832 -0.1861 -0.1228
35948POPC   C4A77363  12.980  22.043  15.814  0.0828  0.3156 -0.2275
35948POPC   C1B77364  12.082  21.997  16.009 -0.0572  0.0221 -0.1396
35948POPC   C2B77365  12.476  21.944  15.767 -0.0200 -0.2665 -0.1141
35948POPC   C3B77366  12.810  22.068  15.375 -0.2964 -0.0191 -0.0315
35948POPC   C4B77367  13.051  22.403  15.205  0.0620 -0.1541  0.3201
35949POPC   NC377368  11.668  20.506  16.831  0.1589  0.2955 -0.2093
35949POPC   PO477369  11.836  20.726  17.110  0.0011 -0.2431  0.1834
35949POPC   GL177370  12.256  20.638  17.087  0.0246 -0.2315 -0.0685
35949POPC   GL277371  12.352  20.333  17.179  0.1601 -0.1116  0.1715
35949POPC   C1A77372  12.531  20.752  16.756  0.1215  0.0342  0.1005
35949POPC   D2A77373  12.835  20.705  16.409 -0.0001 -0.0022  0.1861
35949POPC   C3A77374  13.287  20.624  16.349  0.1222  0.1189 -0.2395
35949POPC   C4A77375  13.716  20.777  16.445  0.2090  0.2430 -0.5003
35949POPC   C1B77376  12.651  20.123  16.980 -0.0409  0.1103  0.0059
35949POPC   C2B77377  12.841  19.841  16.663  0.0613  0.4111  0.1556
35949POPC   C3B77378  13.014  19.701  16.221  0.0822 -0.1616  0.0217
35949POPC   C4B77379  13.198  19.937  15.853 -0.2950 -0.1672  0.1842
35950POPC   NC377380   6.015  17.648  19.727 -0.0123  0.1640 -0.3447
35950POPC   PO477381   6.023  17.904  19.416  0.0988 -0.1212  0.2461
35950POPC   GL177382   5.925  17.547  19.286  0.1624  0.4622  0.1039
35950POPC   GL277383   5.879  17.667  18.967 -0.1099 -0.3521 -0.0049
35950POPC   C1A77384   6.189  17.226  19.046 -0.0770 -0.1602  0.0613
35950POPC   D2A77385   6.407  16.834  18.879  0.0485 -0.1927 -0.3752
35950POPC   C3A77386   6.048  16.657  18.622 -0.1645 -0.1355 -0.1341
35950POPC   C4A77387   5.636  16.595  18.434  0.0037  0.1973  0.2451
35950POPC   C1B77388   5.759  17.631  18.508  0.1188  0.1417 -0.2243
35950POPC   C2B77389   5.984  17.420  18.200  0.2732  0.2007  0.2093
35950POPC   C3B77390   6.314  17.084  18.005 -0.1352  0.0760 -0.0002
35950POPC   C4B77391   6.395  16.675  17.852  0.3465 -0.0212 -0.0578
35951POPC   NC377392   6.738  18.612  18.901  0.1932 -0.3149  0.1873
35951POPC   PO477393   7.058  18.804  18.792 -0.1632  0.3305 -0.1084
35951POPC   GL177394   7.089  18.668  18.309  0.1912 -0.1447  0.0153
35951POPC   GL277395   6.877  18.525  18.394 -0.0238 -0.4618  0.1604
35951POPC   C1A77396   7.056  18.361  18.012 -0.2339  0.1303 -0.1006
35951POPC   D2A77397   6.883  18.367  17.625  0.2501  0.0739  0.0962
35951POPC   C3A77398   7.064  18.430  17.211  0.2899  0.0243 -0.2318
35951POPC   C4A77399   7.332  18.247  16.858  0.3454 -0.4162 -0.0233
35951POPC   C1B77400   6.695  18.659  18.014  0.0944 -0.0875  0.0147
35951POPC   C2B77401   6.630  18.855  17.600  0.2609  0.1926  0.4323
35951POPC   C3B77402   6.624  18.698  17.164  0.0653 -0.2937  0.0667
35951POPC   C4B77403   6.457  18.495  16.692  0.0451 -0.3617 -0.1283
35952POPC   NC377404   2.096  24.878  19.981  0.1506  0.3353  0.3644
35952POPC   PO477405   2.474  24.965  20.156 -0.1726 -0.1979  0.2582
35952POPC   GL177406   2.445  25.153  19.857 -0.0852  0.0384  0.2039
35952POPC   GL277407   2.223  25.370  19.862  0.2350 -0.0190 -0.0500
35952POPC   C1A77408   2.302  24.906  19.420 -0.2061 -0.0818  0.3751
35952POPC   D2A77409   2.162  24.748  18.983 -0.1352  0.2865 -0.0836
35952POPC   C3A77410   1.912  24.634  18.592 -0.0964 -0.0670 -0.0720
35952POPC   C4A77411   1.979  24.728  18.151 -0.0344  0.0423 -0.0210
35952POPC   C1B77412   2.329  25.371  19.435  0.2418  0.2002  0.1744
35952POPC   C2B77413   2.131  25.347  19.004  0.1199  0.0740  0.0947
35952POPC   C3B77414   1.948  25.332  18.622  0.0452  0.0705  0.0907
35952POPC   C4B77415   1.829  25.270  18.176 -0.0759  0.0847 -0.1842
35953POPC   NC377416   7.865  18.785  18.687  0.0421  0.0919 -0.1204
35953POPC   PO477417   7.922  19.156  18.539 -0.0749 -0.0435  0.1269
35953POPC   GL177418   7.809  19.073  18.217 -0.0193 -0.0447  0.1801
35953POPC   GL277419   7.821  18.795  18.182  0.0163 -0.1873  0.1973
35953POPC   C1A77420   7.444  19.119  17.938 -0.1656  0.1217 -0.0961
35953POPC   D2A77421   7.156  18.912  17.690 -0.0649  0.2290  0.1171
35953POPC   C3A77422   6.985  19.027  17.309  0.1612 -0.0528  0.1258
35953POPC   C4A77423   6.667  19.251  17.161  0.2034  0.1953  0.0914
35953POPC   C1B77424   7.686  18.680  17.789  0.0527  0.0354 -0.2616
35953POPC   C2B77425   7.550  18.667  17.375 -0.0685  0.1072  0.0886
35953POPC   C3B77426   7.338  18.768  17.015  0.1384 -0.3828 -0.0922
35953POPC   C4B77427   6.998  18.662  16.726  0.1381 -0.1110  0.0809
35954POPC   NC377428   1.981  28.533  20.544  0.0490 -0.2030 -0.3149
35954POPC   PO477429   2.266  28.437  20.805  0.0055  0.1020  0.0119
35954POPC   GL177430   2.304  28.222  20.410 -0.1718 -0.2472 -0.3133
35954POPC   GL277431   2.094  28.090  20.372 -0.2572 -0.0113 -0.3777
35954POPC   C1A77432   2.250  28.375  19.954  0.2778  0.1275 -0.0309
35954POPC   D2A77433   2.298  28.533  19.557  0.1008  0.2350 -0.1884
35954POPC   C3A77434   2.267  28.251  19.210  0.1248 -0.0573 -0.0294
35954POPC   C4A77435   2.344  27.817  19.016  0.1251  0.0857 -0.4190
35954POPC   C1B77436   2.421  27.953  20.055 -0.1992  0.0643  0.1570
35954POPC   C2B77437   2.370  27.764  19.595 -0.0286  0.0504  0.3343
35954POPC   C3B77438   2.018  27.663  19.358 -0.3274 -0.1303  0.2029
35954POPC   C4B77439   1.823  27.237  19.313  0.0211  0.0543 -0.0351
35955POPC   NC377440  11.340  20.869  16.302 -0.0819 -0.1931 -0.2173
35955POPC   PO477441  11.158  20.507  16.167  0.2458 -0.1260 -0.2021
35955POPC   GL177442  11.416  20.373  15.879 -0.4917  0.1429 -0.4398
35955POPC   GL277443  11.208  20.337  15.670 -0.1038  0.1639 -0.0719
35955POPC   C1A77444  11.840  20.383  15.746 -0.1348  0.0060 -0.1694
35955POPC   D2A77445  12.255  20.347  15.560 -0.1111  0.1100 -0.0305
35955POPC   C3A77446  12.242  19.915  15.462 -0.5185 -0.1106 -0.0659
35955POPC   C4A77447  12.538  19.618  15.292 -0.0621 -0.0478 -0.1278
35955POPC   C1B77448  11.476  20.142  15.366 -0.0862  0.1265  0.2223
35955POPC   C2B77449  11.840  20.051  15.066  0.2544  0.3130  0.3860
35955POPC   C3B77450  12.112  19.765  14.800  0.0566  0.5711 -0.1365
35955POPC   C4B77451  12.298  19.751  14.371  0.1724 -0.3611 -0.1856
35956POPC   NC377452   2.920   0.034  20.474  0.0749  0.1699 -0.1422
35956POPC   PO477453   2.559  -0.053  20.600  0.0269  0.1113  0.0287
35956POPC   GL177454   2.597  -0.179  20.242  0.1202  0.0523 -0.1507
35956POPC   GL277455   2.852  -0.216  20.069  0.2000  0.1729  0.2068
35956POPC   C1A77456   2.445  -0.028  19.858 -0.0002 -0.3697 -0.0716
35956POPC   D2A77457   2.579   0.014  19.409 -0.1508  0.0764  0.1335
35956POPC   C3A77458   2.573   0.203  18.959  0.0336  0.0156 -0.0994
35956POPC   C4A77459   2.642   0.070  18.514 -0.1180  0.3790  0.1318
35956POPC   C1B77460   2.727  -0.400  19.707  0.1061  0.0598 -0.0108
35956POPC   C2B77461   2.788  -0.472  19.275  0.1620  0.0726  0.1440
35956POPC   C3B77462   3.092  -0.677  19.043  0.0459  0.0706 -0.1112
35956POPC   C4B77463   3.099  -1.108  18.939 -0.3236 -0.0778 -0.2796
35957POPC   NC377464  10.174  24.837  18.915 -0.0130 -0.0924  0.1271
35957POPC   PO477465  10.202  25.171  18.717 -0.1653 -0.0442  0.0921
35957POPC   GL177466  10.384  25.162  18.261  0.2084  0.3218  0.2761
35957POPC   GL277467  10.559  25.336  18.415  0.1159  0.2131 -0.1764
35957POPC   C1A77468  10.274  25.093  17.759 -0.1068  0.1024 -0.2228
35957POPC   D2A77469  10.503  25.019  17.311 -0.1312  0.3034  0.0402
35957POPC   C3A77470  10.590  25.385  17.088 -0.2341  0.0048  0.0126
35957POPC   C4A77471  10.523  25.868  16.978 -0.1187  0.0906  0.2638
35957POPC   C1B77472  10.422  25.602  18.107  0.2013  0.2990  0.4591
35957POPC   C2B77473  10.227  25.555  17.716  0.1384 -0.1118 -0.3071
35957POPC   C3B77474  10.092  25.598  17.266 -0.1318 -0.1935  0.3334
35957POPC   C4B77475   9.701  25.772  17.138  0.2987 -0.1998  0.1737
35958POPC   NC377476   0.416  29.490  20.802 -0.0332 -0.0758 -0.3404
35958POPC   PO477477   0.407  29.108  20.860  0.0799 -0.1975 -0.2591
35958POPC   GL177478   0.309  29.052  20.455  0.4252 -0.1951  0.0491
35958POPC   GL277479   0.147  29.214  20.333 -0.1275 -0.1812  0.2811
35958POPC   C1A77480   0.331  28.798  20.108 -0.0838 -0.1211 -0.1451
35958POPC   D2A77481   0.371  28.602  19.700  0.0112 -0.0775 -0.0329
35958POPC   C3A77482   0.010  28.600  19.400 -0.0634  0.0338 -0.1405
35958POPC   C4A77483  -0.451  28.531  19.521 -0.2582 -0.1387 -0.2617
35958POPC   C1B77484   0.281  29.638  20.207 -0.1222  0.1130  0.1323
35958POPC   C2B77485   0.615  29.830  19.966  0.1156  0.2029  0.0917
35958POPC   C3B77486   0.582  30.107  19.559 -0.1609 -0.0115 -0.1466
35958POPC   C4B77487   0.386  30.410  19.283 -0.0916  0.1769  0.1604
35959POPC   NC377488   5.739  25.467  19.347  0.2736  0.1140 -0.1312
35959POPC   PO477489   5.851  25.846  19.456 -0.0458  0.1260  0.0797
35959POPC   GL177490   5.877  26.024  19.053 -0.1251  0.0018  0.0913
35959POPC   GL277491   5.902  25.774  18.900  0.3221  0.0049  0.0509
35959POPC   C1A77492   6.112  26.308  18.782 -0.1451  0.1361 -0.0035
35959POPC   D2A77493   6.219  26.640  18.489 -0.1120 -0.2831 -0.1073
35959POPC   C3A77494   6.228  26.511  18.068  0.2185 -0.0663 -0.1285
35959POPC   C4A77495   6.072  26.457  17.616 -0.4706  0.0639 -0.0232
35959POPC   C1B77496   5.858  25.936  18.489  0.2427  0.0759  0.4028
35959POPC   C2B77497   5.534  25.696  18.211 -0.2539  0.1017 -0.1363
35959POPC   C3B77498   5.109  25.813  18.190 -0.1315  0.0397  0.3145
35959POPC   C4B77499   4.807  26.099  18.485  0.2345 -0.0452 -0.2089
35960POPC   NC377500  15.624  20.678  19.140  0.0253  0.1257  0.0452
35960POPC   PO477501  15.216  20.783  19.063 -0.2164  0.0104  0.1919
35960POPC   GL177502  15.384  20.693  18.683  0.0852 -0.1060 -0.1533
35960POPC   GL277503  15.080  20.770  18.600 -0.0166  0.3299  0.0674
35960POPC   C1A77504  15.728  20.441  18.526  0.0912  0.0062 -0.0861
35960POPC   D2A77505  16.052  20.316  18.238  0.0516  0.0736  0.1944
35960POPC   C3A77506  16.188  20.138  17.894  0.0007  0.0381 -0.1622
35960POPC   C4A77507  16.468  19.745  17.759  0.2492 -0.0798 -0.1413
35960POPC   C1B77508  15.286  20.556  18.223  0.1337  0.0270 -0.0881
35960POPC   C2B77509  15.660  20.506  17.921  0.2407 -0.0081 -0.0935
35960POPC   C3B77510  16.028  20.522  17.598  0.1818  0.2937 -0.0756
35960POPC   C4B77511  16.168  20.697  17.195 -0.2666  0.1665 -0.1467
35961POPC   NC377512  10.197  23.175  12.626  0.0901  0.1837  0.0004
35961POPC   PO477513  10.394  22.963  12.918  0.0882 -0.2377 -0.0383
35961POPC   GL177514  10.608  23.279  12.848  0.2787  0.2227  0.0309
35961POPC   GL277515  10.786  23.354  13.083  0.0499 -0.0674 -0.2424
35961POPC   C1A77516  10.907  23.562  12.689 -0.2710  0.0272 -0.2866
35961POPC   D2A77517  11.120  24.021  12.789  0.0378 -0.0864  0.1526
35961POPC   C3A77518  10.898  24.411  12.905 -0.3728  0.1947  0.0085
35961POPC   C4A77519  10.772  24.756  12.673 -0.0729 -0.3705  0.1453
35961POPC   C1B77520  10.831  23.754  13.351 -0.0466 -0.1777  0.2630
35961POPC   C2B77521  11.012  24.197  13.334  0.1118 -0.0809  0.2249
35961POPC   C3B77522  10.833  24.597  13.316  0.0201  0.0361  0.1743
35961POPC   C4B77523  10.604  25.000  13.387 -0.3822  0.1426  0.0456
35962POPC   NC377524   7.856  31.331  20.175 -0.3455 -0.3939 -0.0905
35962POPC   PO477525   7.565  31.183  20.377 -0.1346  0.0626 -0.1500
35962POPC   GL177526   7.325  31.067  20.068  0.0805  0.0968  0.0408
35962POPC   GL277527   7.149  30.837  20.042 -0.2032  0.0665  0.1475
35962POPC   C1A77528   7.178  31.079  19.603 -0.2567  0.0908  0.1823
35962POPC   D2A77529   7.521  31.101  19.193  0.2603  0.1210 -0.1128
35962POPC   C3A77530   7.229  30.911  18.882 -0.0743 -0.3812 -0.0103
35962POPC   C4A77531   7.142  30.983  18.481 -0.0803  0.1629  0.3042
35962POPC   C1B77532   6.753  30.608  19.828 -0.2051 -0.0393  0.0711
35962POPC   C2B77533   6.438  30.510  19.534  0.2525 -0.0288  0.1491
35962POPC   C3B77534   6.330  30.666  19.070  0.0304 -0.0127 -0.2450
35962POPC   C4B77535   6.291  30.431  18.737  0.2806 -0.0791  0.0694
35963POPC   NC377536   5.433  23.030  18.215  0.0123 -0.0280 -0.1001
35963POPC   PO477537   5.690  22.948  18.489 -0.1052 -0.0881 -0.0617
35963POPC   GL177538   5.881  22.892  18.216  0.2196 -0.1203  0.1264
35963POPC   GL277539   6.080  23.048  18.085 -0.1872  0.0397 -0.0156
35963POPC   C1A77540   5.700  22.909  17.771 -0.4934  0.2303  0.1866
35963POPC   D2A77541   5.571  22.575  17.498 -0.0237  0.2891 -0.3824
35963POPC   C3A77542   5.590  22.561  17.077 -0.0961  0.1494  0.0199
35963POPC   C4A77543   5.511  22.844  16.753  0.1549 -0.0853 -0.0438
35963POPC   C1B77544   6.171  23.133  17.659  0.1146 -0.0169 -0.1433
35963POPC   C2B77545   6.251  23.486  17.343 -0.1366 -0.1167 -0.0728
35963POPC   C3B77546   6.294  23.703  16.979 -0.0862 -0.0438 -0.0177
35963POPC   C4B77547   6.630  23.991  16.815 -0.1491 -0.1889 -0.0309
35964POPC   NC377548   7.833  22.276  17.097  0.1221 -0.0429  0.0042
35964POPC   PO477549   8.100  22.541  16.945  0.0775  0.5115  0.1816
35964POPC   GL177550   7.777  22.716  16.746  0.0501 -0.0382  0.0831
35964POPC   GL277551   7.645  22.834  17.008 -0.1471 -0.0866 -0.0885
35964POPC   C1A77552   7.669  22.575  16.316  0.0476  0.0677  0.2613
35964POPC   D2A77553   7.556  22.595  15.846  0.2554 -0.1090 -0.0325
35964POPC   C3A77554   7.204  22.808  15.657  0.1220  0.0311 -0.1359
35964POPC   C4A77555   7.135  23.205  15.450 -0.1032  0.2618  0.1936
35964POPC   C1B77556   7.348  22.921  16.660 -0.2825 -0.1822  0.0137
35964POPC   C2B77557   7.130  22.779  16.302 -0.3514  0.0743 -0.1737
35964POPC   C3B77558   6.796  22.877  15.992  0.4540  0.0516  0.1452
35964POPC   C4B77559   6.644  23.093  15.618  0.0182 -0.1031  0.0538
35965POPC   NC377560  12.203  21.413  17.512 -0.1183  0.2883 -0.1519
35965POPC   PO477561  12.103  21.008  17.495 -0.0890 -0.2053  0.2602
35965POPC   GL177562  12.370  21.004  17.241  0.1944  0.1458 -0.0379
35965POPC   GL277563  12.242  21.198  16.999  0.1068 -0.0138 -0.1813
35965POPC   C1A77564  12.793  20.978  17.179 -0.3760  0.0297 -0.0721
35965POPC   D2A77565  13.169  21.068  17.358  0.0940 -0.0772 -0.2165
35965POPC   C3A77566  13.519  21.099  17.068 -0.0067  0.1301 -0.0565
35965POPC   C4A77567  13.875  21.159  16.717  0.2229  0.3535  0.0700
35965POPC   C1B77568  12.661  21.240  16.840 -0.0675  0.2587  0.0474
35965POPC   C2B77569  12.907  21.205  16.424  0.1265 -0.1126  0.1120
35965POPC   C3B77570  13.318  21.085  16.227  0.0620 -0.3826  0.1575
35965POPC   C4B77571  13.756  21.173  16.183  0.0065  0.1778 -0.3655
35966POPC   NC377572   1.195  30.006  20.598 -0.0124 -0.1337 -0.0097
35966POPC   PO477573   0.914  30.261  20.658 -0.0074 -0.0402 -0.1010
35966POPC   GL177574   0.994  30.400  20.376 -0.2298  0.0997  0.0018
35966POPC   GL277575   1.282  30.339  20.268  0.0323  0.0426 -0.0066
35966POPC   C1A77576   0.732  30.300  19.985  0.1107 -0.0049  0.1616
35966POPC   D2A77577   0.298  30.414  19.801 -0.1681  0.0970 -0.1888
35966POPC   C3A77578   0.054  30.806  19.798  0.2773 -0.3285 -0.1294
35966POPC   C4A77579  -0.392  30.845  19.686 -0.1947  0.0089  0.0277
35966POPC   C1B77580   1.548  30.049  19.967 -0.0411 -0.0758  0.0367
35966POPC   C2B77581   1.853  29.744  19.769 -0.0891  0.1332 -0.3009
35966POPC   C3B77582   1.933  29.478  19.417  0.1020  0.0667 -0.3921
35966POPC   C4B77583   1.666  29.160  19.112 -0.0037  0.0725  0.1019
35967POPC   NC377584  10.430  22.561  13.186  0.0433 -0.1567 -0.2173
35967POPC   PO477585  10.803  22.597  13.362  0.0138 -0.1134 -0.0324
35967POPC   GL177586  10.965  22.996  13.363  0.2402  0.0901  0.1519
35967POPC   GL277587  11.234  23.007  13.084 -0.0723  0.0935  0.0285
35967POPC   C1A77588  11.160  23.288  13.606 -0.0590  0.1899  0.1440
35967POPC   D2A77589  11.466  23.627  13.593  0.4235 -0.0246  0.1412
35967POPC   C3A77590  11.593  24.123  13.595 -0.2526 -0.0321 -0.2497
35967POPC   C4A77591  11.421  24.448  13.859  0.3412 -0.0895 -0.3048
35967POPC   C1B77592  11.297  23.454  13.125 -0.2755  0.0150  0.1881
35967POPC   C2B77593  11.406  23.895  13.144 -0.1252  0.2136 -0.0642
35967POPC   C3B77594  11.477  24.317  12.914 -0.0582 -0.0700  0.0208
35967POPC   C4B77595  11.581  24.631  12.599  0.1987  0.0637  0.0014
35968POPC   NC377596   2.648  21.640  19.991 -0.4416  0.0858 -0.1177
35968POPC   PO477597   3.029  21.724  20.008  0.1936  0.0164  0.4031
35968POPC   GL177598   2.984  21.747  19.613 -0.1763  0.1531 -0.0907
35968POPC   GL277599   3.038  21.500  19.509 -0.0936  0.4109  0.2007
35968POPC   C1A77600   2.758  21.909  19.236 -0.1481 -0.3504  0.3213
35968POPC   D2A77601   2.859  22.140  18.800  0.1153 -0.1042 -0.1449
35968POPC   C3A77602   2.561  22.072  18.474  0.0042 -0.1730 -0.3668
35968POPC   C4A77603   2.244  21.813  18.283 -0.1378 -0.0630  0.1788
35968POPC   C1B77604   3.045  21.445  19.078 -0.0437 -0.2412 -0.1999
35968POPC   C2B77605   3.081  21.722  18.751  0.0307  0.3009 -0.1641
35968POPC   C3B77606   3.069  21.986  18.351 -0.0363 -0.0736 -0.0556
35968POPC   C4B77607   3.219  22.031  17.902 -0.1529  0.0100 -0.2623
35969POPC   NC377608   3.717  27.185  20.901  0.1222  0.0858 -0.1680
35969POPC   PO477609   3.400  27.214  20.626 -0.0764  0.2561  0.1291
35969POPC   GL177610   3.422  27.089  20.193 -0.3651  0.0026 -0.0193
35969POPC   GL277611   3.163  26.947  20.026 -0.0352 -0.1332 -0.5050
35969POPC   C1A77612   3.521  27.204  19.746 -0.0975 -0.0544 -0.0709
35969POPC   D2A77613   3.865  27.326  19.436  0.1112  0.1409 -0.1525
35969POPC   C3A77614   3.942  27.242  18.936 -0.1552 -0.3500 -0.1225
35969POPC   C4A77615   3.798  26.928  18.636 -0.4322  0.1521  0.1274
35969POPC   C1B77616   3.274  26.785  19.613 -0.2070 -0.1347  0.0886
35969POPC   C2B77617   3.030  26.703  19.186  0.0780 -0.4542  0.1657
35969POPC   C3B77618   2.741  27.023  19.078  0.0590  0.2260  0.0540
35969POPC   C4B77619   2.679  27.511  19.174 -0.0068  0.0832  0.2821
35970POPC   NC377620   9.205  22.294  14.872  0.2178  0.1336 -0.0693
35970POPC   PO477621   9.294  22.594  14.621  0.0634 -0.0316 -0.2383
35970POPC   GL177622   8.936  22.674  14.293 -0.4199  0.0687 -0.3290
35970POPC   GL277623   8.841  22.928  14.267 -0.1979  0.2266 -0.0780
35970POPC   C1A77624   8.708  22.417  14.053 -0.0984 -0.1730 -0.1966
35970POPC   D2A77625   8.437  21.994  14.091  0.3566  0.0655  0.4974
35970POPC   C3A77626   8.058  21.980  14.371  0.1951  0.1949 -0.0293
35970POPC   C4A77627   7.823  21.712  14.644  0.1059  0.1354  0.3864
35970POPC   C1B77628   8.499  22.909  13.982 -0.0028  0.1468  0.1488
35970POPC   C2B77629   8.222  23.076  13.664 -0.1339  0.2000  0.0911
35970POPC   C3B77630   7.881  23.332  13.561 -0.0032 -0.1942 -0.0991
35970POPC   C4B77631   7.540  23.629  13.467 -0.0253  0.0540  0.0250
35971POPC   NC377632   6.327  29.382  20.215 -0.3192 -0.0158 -0.0466
35971POPC   PO477633   6.348  29.770  20.271 -0.1720 -0.3089 -0.0848
35971POPC   GL177634   6.610  29.951  19.959  0.0090 -0.2863  0.0308
35971POPC   GL277635   6.759  30.067  20.093 -0.0173 -0.0202  0.0118
35971POPC   C1A77636   6.596  29.839  19.493  0.2536  0.1866 -0.0073
35971POPC   D2A77637   6.415  29.472  19.241 -0.3691 -0.0435  0.3698
35971POPC   C3A77638   6.125  29.564  18.854 -0.2273 -0.0714  0.0063
35971POPC   C4A77639   5.712  29.670  18.550 -0.1376 -0.0898 -0.2112
35971POPC   C1B77640   6.926  30.209  19.656 -0.1651 -0.0784  0.3213
35971POPC   C2B77641   6.723  30.293  19.219  0.1271 -0.2682  0.0396
35971POPC   C3B77642   6.859  30.506  18.826 -0.0611  0.1340 -0.0800
35971POPC   C4B77643   6.642  30.726  18.488  0.2232 -0.3172  0.1493
35972POPC   NC377644   8.079  27.162  19.810  0.2894 -0.1814 -0.0836
35972POPC   PO477645   7.836  26.901  19.598 -0.2755 -0.2215  0.1069
35972POPC   GL177646   7.959  27.257  19.353  0.0506  0.1336 -0.1668
35972POPC   GL277647   7.671  27.333  19.224  0.0975  0.0929 -0.2693
35972POPC   C1A77648   8.116  27.447  18.999  0.0625 -0.1719 -0.0738
35972POPC   D2A77649   8.317  27.722  18.682 -0.0779  0.0754  0.1373
35972POPC   C3A77650   8.488  28.027  18.447  0.0729  0.1410 -0.0042
35972POPC   C4A77651   8.797  28.339  18.294  0.3024  0.0262 -0.2377
35972POPC   C1B77652   7.660  27.375  18.772  0.0130 -0.0503 -0.0054
35972POPC   C2B77653   7.958  27.550  18.430  0.3077  0.1806  0.0298
35972POPC   C3B77654   8.055  27.830  18.023  0.0580 -0.0675 -0.2538
35972POPC   C4B77655   8.090  28.005  17.639  0.1814  0.1529 -0.1131
35973POPC   NC377656  10.991  28.176  20.358 -0.4603  0.0221  0.0299
35973POPC   PO477657  10.975  27.762  20.457  0.2592  0.1594  0.1191
35973POPC   GL177658  11.079  27.702  20.089  0.2694 -0.2802  0.0221
35973POPC   GL277659  11.302  27.943  20.036  0.3318  0.0557  0.1700
35973POPC   C1A77660  10.886  27.532  19.689  0.2859  0.2464 -0.0751
35973POPC   D2A77661  11.034  27.608  19.249  0.0371  0.3164 -0.0067
35973POPC   C3A77662  10.940  27.874  18.916 -0.2723  0.2724 -0.0287
35973POPC   C4A77663  10.680  27.839  18.551  0.7203  0.2007  0.0989
35973POPC   C1B77664  11.378  27.868  19.564  0.1961  0.1689 -0.1935
35973POPC   C2B77665  11.506  27.939  19.151 -0.2190 -0.1373 -0.2418
35973POPC   C3B77666  11.327  28.262  18.996 -0.2038 -0.0009 -0.2770
35973POPC   C4B77667  11.245  28.672  18.768  0.1193 -0.2174 -0.0556
35974POPC   NC377668   0.445  24.921  20.265 -0.0685  0.1031  0.0179
35974POPC   PO477669   0.817  24.782  20.269  0.0199 -0.0624  0.0926
35974POPC   GL177670   0.695  24.684  19.982  0.2098 -0.4430  0.0964
35974POPC   GL277671   0.796  24.855  19.765 -0.1781 -0.1515 -0.0795
35974POPC   C1A77672   0.288  24.738  19.794  0.2553  0.0728  0.0166
35974POPC   D2A77673   0.007  24.805  19.426  0.1669  0.1023 -0.0933
35974POPC   C3A77674   0.215  24.914  19.048 -0.3290  0.0937  0.4703
35974POPC   C4A77675  -0.068  24.977  18.657  0.2137 -0.0034  0.0767
35974POPC   C1B77676   0.603  24.733  19.315 -0.1312  0.1557 -0.0409
35974POPC   C2B77677   0.758  24.702  18.878 -0.0143 -0.1016  0.1652
35974POPC   C3B77678   0.799  24.334  18.609 -0.1694 -0.0035  0.2114
35974POPC   C4B77679   0.765  23.972  18.349 -0.2098  0.0671 -0.0698
35975POPC   NC377680   3.030  20.046  19.623 -0.2423 -0.1146 -0.2456
35975POPC   PO477681   2.931  20.444  19.622 -0.0905 -0.0334 -0.1246
35975POPC   GL177682   2.840  20.724  19.296  0.1101 -0.2505 -0.4770
35975POPC   GL277683   2.848  21.009  19.307  0.2937  0.3752  0.0781
35975POPC   C1A77684   2.495  20.738  18.999  0.0520  0.0232 -0.1032
35975POPC   D2A77685   2.212  20.830  18.678 -0.0049 -0.0614  0.2717
35975POPC   C3A77686   2.174  20.943  18.279  0.2745 -0.1016 -0.0378
35975POPC   C4A77687   1.817  21.040  18.031  0.2125 -0.1200  0.0110
35975POPC   C1B77688   2.694  21.196  18.896 -0.2579 -0.4037  0.3097
35975POPC   C2B77689   2.416  21.236  18.561  0.4914  0.1287 -0.2376
35975POPC   C3B77690   2.016  21.347  18.431 -0.2229  0.2046  0.2535
35975POPC   C4B77691   1.693  21.676  18.395 -0.3313  0.3427 -0.1212
35976POPC   NC377692   5.676  32.523  20.186  0.0518  0.1158 -0.2958
35976POPC   PO477693   5.316  32.692  20.101 -0.1274 -0.1963  0.1481
35976POPC   GL177694   5.180  32.303  20.082 -0.5091 -0.1443  0.1249
35976POPC   GL277695   5.436  32.100  20.135  0.0086  0.2940 -0.2572
35976POPC   C1A77696   5.042  31.929  19.894 -0.3180 -0.1141  0.0995
35976POPC   D2A77697   5.063  31.818  19.472 -0.0914  0.0111 -0.2434
35976POPC   C3A77698   5.083  31.648  19.054 -0.4356 -0.0481 -0.2392
35976POPC   C4A77699   4.719  31.763  18.759 -0.2208 -0.5247  0.3069
35976POPC   C1B77700   5.555  31.917  19.752 -0.1729  0.2414  0.0416
35976POPC   C2B77701   5.595  31.681  19.345  0.1096  0.3621  0.1595
35976POPC   C3B77702   5.600  31.402  18.963  0.1191 -0.1036  0.0353
35976POPC   C4B77703   5.646  31.238  18.500  0.2658  0.2267 -0.0263
35977POPC   NC377704   0.236  31.640  20.588  0.2428  0.1579 -0.2352
35977POPC   PO477705   0.141  31.309  20.795  0.1825 -0.1047 -0.0511
35977POPC   GL177706  -0.061  31.281  20.394 -0.1898  0.0822  0.3125
35977POPC   GL277707   0.075  30.952  20.433  0.0849 -0.1718 -0.0000
35977POPC   C1A77708  -0.142  31.239  19.918 -0.1931 -0.1498 -0.0522
35977POPC   D2A77709  -0.061  31.203  19.471 -0.2276 -0.0616  0.2252
35977POPC   C3A77710  -0.274  31.037  19.109 -0.0166 -0.1718  0.3939
35977POPC   C4A77711  -0.177  30.874  18.751 -0.0066 -0.2481  0.4412
35977POPC   C1B77712   0.353  31.224  20.186 -0.1271 -0.1931  0.5517
35977POPC   C2B77713   0.461  31.262  19.731  0.1595  0.3920  0.3417
35977POPC   C3B77714   0.584  31.264  19.304 -0.0480 -0.0156 -0.0297
35977POPC   C4B77715   0.591  31.357  18.856 -0.1863 -0.1008 -0.2389
35978POPC   NC377716   1.814  26.011  20.405  0.0963  0.2744  0.2308
35978POPC   PO477717   1.463  25.861  20.275 -0.1062 -0.2124 -0.1630
35978POPC   GL177718   1.466  26.041  19.924 -0.2042  0.2313  0.1971
35978POPC   GL277719   1.521  26.310  20.021 -0.1082 -0.2013 -0.0030
35978POPC   C1A77720   1.472  25.863  19.478  0.0501 -0.2689 -0.0394
35978POPC   D2A77721   1.235  25.894  19.079  0.1550  0.1644  0.1125
35978POPC   C3A77722   1.060  26.016  18.649 -0.0532 -0.1427  0.2436
35978POPC   C4A77723   1.037  25.797  18.219 -0.1744  0.1259 -0.0812
35978POPC   C1B77724   1.475  26.491  19.615  0.0604  0.2413  0.1008
35978POPC   C2B77725   1.416  26.349  19.201 -0.0818  0.2204 -0.1650
35978POPC   C3B77726   1.527  26.306  18.777 -0.1155 -0.1673  0.0294
35978POPC   C4B77727   1.468  26.278  18.345 -0.1385  0.0325  0.0608
35979POPC   NC377728   7.001  21.731  18.405  0.2003 -0.0606 -0.0854
35979POPC   PO477729   7.044  21.482  18.073 -0.2496  0.2321  0.2472
35979POPC   GL177730   6.876  21.359  17.749 -0.2426  0.3832  0.2142
35979POPC   GL277731   7.092  21.108  17.675  0.1451  0.0935 -0.0198
35979POPC   C1A77732   6.491  21.151  17.491 -0.0551 -0.3980  0.0049
35979POPC   D2A77733   6.002  21.305  17.527 -0.2756 -0.0264 -0.0220
35979POPC   C3A77734   5.681  20.976  17.577  0.0826 -0.4096  0.1644
35979POPC   C4A77735   5.379  20.703  17.431 -0.0035  0.0343  0.0035
35979POPC   C1B77736   7.114  20.943  17.269 -0.1196 -0.2932 -0.2983
35979POPC   C2B77737   7.044  20.653  16.907  0.2419 -0.1259 -0.0958
35979POPC   C3B77738   6.630  20.695  16.646 -0.0476 -0.2190  0.1786
35979POPC   C4B77739   6.207  20.659  16.782  0.0570 -0.0815 -0.0969
35980POPC   NC377740   3.490  18.014  19.946  0.1653 -0.0573 -0.1614
35980POPC   PO477741   3.792  18.201  19.819  0.0674  0.0845  0.2285
35980POPC   GL177742   3.529  18.110  19.450  0.2210 -0.1241 -0.1049
35980POPC   GL277743   3.619  18.291  19.228 -0.1878 -0.0109  0.2796
35980POPC   C1A77744   3.371  17.872  19.077 -0.0205  0.0719 -0.4309
35980POPC   D2A77745   3.410  17.812  18.603  0.0155  0.0807  0.0510
35980POPC   C3A77746   3.677  17.614  18.306 -0.0198 -0.0385  0.2215
35980POPC   C4A77747   4.017  17.241  18.343 -0.0356 -0.0261 -0.0537
35980POPC   C1B77748   3.759  18.149  18.804 -0.2078  0.0453  0.2157
35980POPC   C2B77749   3.861  18.034  18.365 -0.2315 -0.0584 -0.0113
35980POPC   C3B77750   4.087  17.755  18.075  0.0113 -0.1367 -0.1571
35980POPC   C4B77751   4.247  17.363  17.910 -0.0405  0.0474 -0.3639
35981POPC   NC377752   1.939  21.999  20.516 -0.3322 -0.2599 -0.0810
35981POPC   PO477753   1.964  21.998  20.130  0.3686  0.1003  0.0428
35981POPC   GL177754   1.792  22.153  19.780 -0.1402  0.2238  0.1747
35981POPC   GL277755   1.527  21.916  19.817 -0.1002  0.1928 -0.0796
35981POPC   C1A77756   2.041  22.307  19.441 -0.1341  0.1735 -0.1348
35981POPC   D2A77757   2.082  22.783  19.327  0.1590 -0.0327  0.1227
35981POPC   C3A77758   2.448  23.090  19.337  0.0100  0.3432  0.0458
35981POPC   C4A77759   2.411  23.485  19.542 -0.0226  0.0411  0.0062
35981POPC   C1B77760   1.686  21.960  19.360  0.0310 -0.0195  0.0627
35981POPC   C2B77761   1.786  22.169  18.967  0.3071 -0.0238 -0.0530
35981POPC   C3B77762   1.947  22.233  18.556 -0.1796  0.1935 -0.0544
35981POPC   C4B77763   1.854  22.104  18.107  0.2908  0.2134 -0.3567
35982POPC   NC377764   7.503  20.163  18.246  0.0197  0.1589 -0.2628
35982POPC   PO477765   7.798  19.963  18.079 -0.3358  0.0387 -0.0061
35982POPC   GL177766   7.928  20.010  17.731 -0.0333  0.0683 -0.1421
35982POPC   GL277767   8.035  19.758  17.559 -0.0473  0.3135 -0.3809
35982POPC   C1A77768   7.764  20.194  17.385  0.1201  0.0460  0.2383
35982POPC   D2A77769   7.746  20.351  16.960 -0.0674 -0.0306  0.2969
35982POPC   C3A77770   7.372  20.347  16.634  0.2667  0.2631 -0.2586
35982POPC   C4A77771   7.073  20.581  16.357 -0.0121 -0.1266  0.0083
35982POPC   C1B77772   7.662  19.721  17.281  0.0263 -0.0908 -0.0118
35982POPC   C2B77773   7.384  19.833  16.902  0.2391  0.1933 -0.1946
35982POPC   C3B77774   7.185  19.950  16.487  0.0117  0.0758 -0.1447
35982POPC   C4B77775   7.035  19.819  16.028 -0.0901 -0.4879  0.0672
35983POPC   NC377776   0.840  19.365  19.648  0.0566  0.0371  0.1064
35983POPC   PO477777   0.494  19.285  19.799 -0.0878 -0.1395  0.0232
35983POPC   GL177778   0.237  19.408  19.535  0.0265 -0.2412  0.0093
35983POPC   GL277779   0.389  19.450  19.307  0.1611  0.0064 -0.0932
35983POPC   C1A77780  -0.040  19.447  19.114 -0.2080  0.1364 -0.0603
35983POPC   D2A77781  -0.193  19.304  18.659 -0.1358 -0.1457  0.1786
35983POPC   C3A77782  -0.618  19.059  18.633 -0.0662  0.0504  0.0529
35983POPC   C4A77783  -1.000  18.817  18.675  0.0911 -0.0627 -0.1168
35983POPC   C1B77784   0.405  19.498  18.856 -0.0880 -0.1833  0.1311
35983POPC   C2B77785   0.311  19.736  18.510  0.2847  0.2415 -0.0198
35983POPC   C3B77786   0.155  20.100  18.217  0.1743 -0.0589 -0.1404
35983POPC   C4B77787   0.322  20.507  18.011 -0.0068  0.1314 -0.2689
35984POPC   NC377788   7.976  21.088  16.992 -0.1463 -0.0393  0.1227
35984POPC   PO477789   7.846  21.419  16.993 -0.2053  0.0746  0.0802
35984POPC   GL177790   7.887  21.420  16.599 -0.1677 -0.1925  0.0057
35984POPC   GL277791   7.701  21.194  16.565  0.1212 -0.0050 -0.0528
35984POPC   C1A77792   7.671  21.483  16.182  0.0125  0.0064 -0.0504
35984POPC   D2A77793   7.576  21.144  15.828  0.2002 -0.0114  0.2105
35984POPC   C3A77794   7.157  21.150  15.578 -0.2005 -0.0793 -0.1889
35984POPC   C4A77795   6.802  21.299  15.225 -0.2928  0.0752  0.2433
35984POPC   C1B77796   7.422  20.970  16.323  0.1403  0.1762  0.3244
35984POPC   C2B77797   7.258  20.751  15.953  0.0431 -0.2512  0.0232
35984POPC   C3B77798   6.908  20.469  15.796 -0.2255  0.0996 -0.0536
35984POPC   C4B77799   6.629  20.164  16.026 -0.1492  0.1333 -0.6156
35985POPC   NC377800   0.087  23.419  19.639  0.0913 -0.1379  0.1236
35985POPC   PO477801   0.280  23.577  19.975  0.1855 -0.0033 -0.2307
35985POPC   GL177802   0.512  23.847  19.732  0.2600 -0.1207 -0.1114
35985POPC   GL277803   0.382  24.138  19.822 -0.1161  0.3079 -0.0003
35985POPC   C1A77804   0.468  23.961  19.291 -0.2181 -0.0594  0.0311
35985POPC   D2A77805   0.485  23.884  18.850 -0.0275  0.2627 -0.0831
35985POPC   C3A77806   0.273  24.108  18.531 -0.1646 -0.1309  0.0673
35985POPC   C4A77807  -0.059  24.404  18.547  0.1312 -0.0460  0.1060
35985POPC   C1B77808   0.779  24.316  19.600  0.0665  0.0971 -0.1583
35985POPC   C2B77809   1.226  24.507  19.519  0.0541  0.3999  0.0069
35985POPC   C3B77810   1.313  24.771  19.155 -0.0352  0.0176  0.0390
35985POPC   C4B77811   1.061  25.041  18.838  0.2511  0.2314 -0.2265
35986POPC   NC377812   9.783  23.214  16.779  0.0414  0.0812 -0.2150
35986POPC   PO477813   9.448  23.444  16.833 -0.0562  0.1983 -0.3354
35986POPC   GL177814   9.389  23.723  16.569 -0.1501 -0.2464 -0.0632
35986POPC   GL277815   9.094  23.740  16.539 -0.1909 -0.0119  0.0624
35986POPC   C1A77816   9.403  23.812  16.122  0.0396  0.0364 -0.2216
35986POPC   D2A77817   9.100  24.064  15.852 -0.0709  0.4038 -0.0602
35986POPC   C3A77818   8.728  24.346  15.924 -0.0323 -0.0297 -0.1953
35986POPC   C4A77819   8.382  24.487  15.579 -0.4320 -0.2412 -0.1818
35986POPC   C1B77820   9.116  24.164  16.314 -0.2235  0.0104  0.1250
35986POPC   C2B77821   9.177  24.508  16.016  0.1046  0.0710 -0.0290
35986POPC   C3B77822   9.343  24.857  15.753 -0.1448  0.1480  0.3823
35986POPC   C4B77823   9.746  25.064  15.639  0.0429  0.0184 -0.0951
35987POPC   NC377824   6.965  15.880  20.472  0.0342  0.0763  0.0613
35987POPC   PO477825   7.252  16.042  20.317  0.0905 -0.2468  0.0307
35987POPC   GL177826   7.325  15.990  19.943 -0.0001 -0.0909 -0.1897
35987POPC   GL277827   7.398  16.259  19.842 -0.1360  0.0397 -0.1340
35987POPC   C1A77828   7.186  15.736  19.560  0.4299 -0.1813  0.0109
35987POPC   D2A77829   7.131  15.643  19.120 -0.0987 -0.2642 -0.0525
35987POPC   C3A77830   7.179  15.572  18.710 -0.1292 -0.0773 -0.3800
35987POPC   C4A77831   7.186  15.684  18.231 -0.1340 -0.2055 -0.0539
35987POPC   C1B77832   7.574  16.495  19.453 -0.0757 -0.2176  0.2007
35987POPC   C2B77833   7.941  16.679  19.176 -0.0787  0.2804 -0.0144
35987POPC   C3B77834   8.106  16.927  18.824 -0.0384  0.2087 -0.1586
35987POPC   C4B77835   8.296  16.966  18.397  0.0156 -0.1950  0.0901
35988POPC   NC377836   7.841  23.394  16.899 -0.0328  0.1051  0.0372
35988POPC   PO477837   8.055  23.091  16.785  0.2297 -0.2083  0.4549
35988POPC   GL177838   7.803  23.261  16.448 -0.0405  0.1936 -0.0004
35988POPC   GL277839   7.788  23.045  16.336  0.0618  0.1489  0.2164
35988POPC   C1A77840   7.470  23.511  16.429  0.2046  0.0921  0.2388
35988POPC   D2A77841   7.060  23.690  16.264  0.1949  0.0516  0.4740
35988POPC   C3A77842   6.898  24.104  16.386 -0.0162 -0.3007 -0.4267
35988POPC   C4A77843   7.135  24.331  16.667  0.1276 -0.0412 -0.2205
35988POPC   C1B77844   7.410  23.098  16.040  0.1993 -0.3713 -0.1888
35988POPC   C2B77845   7.075  23.399  15.906  0.3098  0.1311 -0.0036
35988POPC   C3B77846   6.751  23.726  15.747 -0.2063  0.2813  0.2133
35988POPC   C4B77847   6.736  24.187  15.762  0.0198 -0.3371  0.1366
35989POPC   NC377848  11.466  30.492  20.582 -0.0251 -0.0268  0.1854
35989POPC   PO477849  11.824  30.444  20.501  0.0290 -0.0241  0.1160
35989POPC   GL177850  11.672  30.442  20.118 -0.0052  0.0661 -0.3577
35989POPC   GL277851  11.413  30.510  20.025 -0.2132 -0.0347 -0.0191
35989POPC   C1A77852  11.861  30.328  19.712  0.2466 -0.1255  0.0713
35989POPC   D2A77853  11.734  30.286  19.245  0.0424 -0.2143 -0.2589
35989POPC   C3A77854  11.915  30.024  18.890  0.1288 -0.3633 -0.0115
35989POPC   C4A77855  12.225  29.909  18.632 -0.0449 -0.0153 -0.2639
35989POPC   C1B77856  11.283  30.104  19.778  0.1174 -0.0706 -0.1500
35989POPC   C2B77857  11.281  29.903  19.358  0.0523 -0.1224  0.2121
35989POPC   C3B77858  11.543  29.555  19.179 -0.1686 -0.1305  0.0052
35989POPC   C4B77859  11.822  29.240  19.309  0.3015  0.2267 -0.0475
35990POPC   NC377860  15.350  28.599  20.280 -0.0979 -0.1081 -0.0385
35990POPC   PO477861  15.215  28.286  20.492 -0.4285 -0.1269 -0.0770
35990POPC   GL177862  15.223  28.195  20.099  0.0148 -0.0160 -0.0002
35990POPC   GL277863  15.527  28.075  20.197  0.4425 -0.1674 -0.2184
35990POPC   C1A77864  15.152  28.534  19.777 -0.2165  0.0918 -0.2889
35990POPC   D2A77865  15.490  28.697  19.483  0.1733  0.0422 -0.2899
35990POPC   C3A77866  15.587  28.378  19.182 -0.0685 -0.0074  0.2223
35990POPC   C4A77867  15.413  28.129  18.879  0.4078 -0.1752  0.0624
35990POPC   C1B77868  15.550  28.254  19.807 -0.2071 -0.1903  0.3260
35990POPC   C2B77869  15.585  27.965  19.448 -0.3498  0.0440 -0.1101
35990POPC   C3B77870  15.868  27.851  19.135  0.2751 -0.1609 -0.0815
35990POPC   C4B77871  16.222  27.706  18.879  0.0569  0.1346  0.1165
35991POPC   NC377872   9.298  20.546  16.545 -0.2234 -0.1152 -0.2996
35991POPC   PO477873   8.951  20.647  16.475 -0.0537  0.0547  0.0104
35991POPC   GL177874   8.601  20.650  16.321  0.1537 -0.1537  0.3432
35991POPC   GL277875   8.309  20.535  16.415  0.2299  0.0076  0.0424
35991POPC   C1A77876   8.542  20.276  16.050  0.0712  0.1026  0.1539
35991POPC   D2A77877   8.275  19.919  15.883 -0.0718 -0.0362 -0.1298
35991POPC   C3A77878   8.377  19.584  15.608  0.2709  0.0555  0.0785
35991POPC   C4A77879   8.710  19.309  15.434  0.4641 -0.2066 -0.0513
35991POPC   C1B77880   8.052  20.324  16.051  0.2983  0.0130 -0.0604
35991POPC   C2B77881   7.847  20.215  15.662  0.0003  0.0516  0.2300
35991POPC   C3B77882   7.725  19.814  15.511  0.2912  0.1959 -0.0888
35991POPC   C4B77883   7.349  19.597  15.638  0.0378 -0.1577  0.1677
35992POPC   NC377884   1.331  29.260  20.731 -0.2595  0.0877  0.0288
35992POPC   PO477885   0.968  29.435  20.817  0.3787 -0.3913 -0.2357
35992POPC   GL177886   0.803  29.257  20.531  0.2413 -0.0540 -0.0908
35992POPC   GL277887   1.018  29.160  20.362 -0.0898 -0.0206  0.0703
35992POPC   C1A77888   0.589  29.269  20.121  0.1545  0.1619  0.0106
35992POPC   D2A77889   0.218  29.246  19.822 -0.0539  0.0134 -0.0494
35992POPC   C3A77890   0.285  29.142  19.355  0.0804  0.4181 -0.1557
35992POPC   C4A77891   0.566  28.860  19.084  0.0643 -0.0290 -0.4868
35992POPC   C1B77892   1.285  29.020  20.023  0.1518  0.0452  0.0606
35992POPC   C2B77893   1.206  28.924  19.521 -0.0196 -0.0908 -0.3497
35992POPC   C3B77894   1.079  28.879  19.104  0.0175 -0.0354  0.2407
35992POPC   C4B77895   0.809  29.017  18.684  0.1427  0.1796 -0.2590
35993POPC   NC377896  10.541  22.651  15.403 -0.0453  0.1832  0.1159
35993POPC   PO477897  10.663  22.265  15.475 -0.1057  0.0227  0.0036
35993POPC   GL177898  11.037  22.365  15.401  0.0700 -0.3304 -0.2892
35993POPC   GL277899  11.018  22.628  15.237  0.2720 -0.0477 -0.0808
35993POPC   C1A77900  11.378  22.218  15.118 -0.1822 -0.0859 -0.0878
35993POPC   D2A77901  11.747  22.434  14.973 -0.3147  0.0641  0.0362
35993POPC   C3A77902  12.171  22.376  14.786  0.1041  0.0314 -0.1068
35993POPC   C4A77903  12.528  22.329  15.042 -0.0612 -0.2073  0.1748
35993POPC   C1B77904  11.224  22.963  15.462 -0.0113 -0.1268 -0.0663
35993POPC   C2B77905  11.635  23.224  15.473 -0.1559  0.1156  0.0741
35993POPC   C3B77906  11.950  23.516  15.335 -0.1204  0.4642  0.0337
35993POPC   C4B77907  12.013  23.823  15.001 -0.1910 -0.0182 -0.0151
35994POPC   NC377908   0.183  20.505  19.742 -0.1413  0.2588  0.0515
35994POPC   PO477909   0.020  20.222  19.555 -0.3245 -0.0077 -0.1316
35994POPC   GL177910  -0.067  19.912  19.299  0.0920 -0.0308  0.1385
35994POPC   GL277911   0.204  19.949  19.166 -0.0584  0.2150  0.3993
35994POPC   C1A77912  -0.098  19.810  18.833 -0.0625 -0.0142  0.1284
35994POPC   D2A77913  -0.203  19.736  18.346  0.1072 -0.0401 -0.0325
35994POPC   C3A77914  -0.448  19.333  18.242  0.1305  0.0858  0.2644
35994POPC   C4A77915  -0.828  19.071  18.192 -0.1891 -0.0745 -0.1389
35994POPC   C1B77916   0.132  20.307  18.871 -0.1480  0.4854 -0.0964
35994POPC   C2B77917   0.010  20.584  18.602  0.1449 -0.1543  0.1956
35994POPC   C3B77918  -0.309  20.874  18.407  0.1144 -0.2579  0.2338
35994POPC   C4B77919  -0.684  20.956  18.170 -0.0236 -0.0231  0.1314
35995POPC   NC377920   5.880  27.107  19.965  0.2237  0.1504  0.1173
35995POPC   PO477921   5.517  26.932  20.041 -0.1867 -0.1587 -0.0185
35995POPC   GL177922   5.601  26.868  19.641 -0.5277 -0.3465  0.1541
35995POPC   GL277923   5.284  26.838  19.577  0.1366  0.0498 -0.0889
35995POPC   C1A77924   5.609  27.164  19.318  0.1211  0.0336  0.1129
35995POPC   D2A77925   5.285  27.498  19.364 -0.1825  0.1458 -0.1573
35995POPC   C3A77926   4.936  27.482  19.052  0.1188  0.1894  0.1824
35995POPC   C4A77927   4.564  27.622  18.855  0.3995 -0.1160 -0.1188
35995POPC   C1B77928   5.068  27.007  19.223  0.0303 -0.2005 -0.0802
35995POPC   C2B77929   4.929  27.003  18.828 -0.1418  0.2591 -0.0532
35995POPC   C3B77930   5.143  27.035  18.432 -0.1769 -0.2703 -0.0624
35995POPC   C4B77931   5.146  27.401  18.121 -0.0766  0.0772  0.0257
35996POPC   NC377932   8.065  29.897  20.126 -0.0839  0.0012 -0.0235
35996POPC   PO477933   7.801  29.775  20.328  0.1508  0.1231  0.0505
35996POPC   GL177934   7.693  29.678  19.985 -0.2223  0.1435 -0.4259
35996POPC   GL277935   7.622  29.913  19.835  0.0885 -0.0848  0.3638
35996POPC   C1A77936   7.801  29.549  19.524 -0.2377 -0.0012  0.1805
35996POPC   D2A77937   8.136  29.534  19.231  0.0996  0.2664 -0.0092
35996POPC   C3A77938   8.190  29.694  18.798 -0.0077 -0.0503  0.0740
35996POPC   C4A77939   8.024  29.911  18.502 -0.1726 -0.0766 -0.1476
35996POPC   C1B77940   7.428  29.896  19.464 -0.2032 -0.2954 -0.0886
35996POPC   C2B77941   7.034  29.791  19.254  0.5672 -0.2110 -0.1663
35996POPC   C3B77942   6.637  29.833  18.975 -0.5000 -0.1389  0.1572
35996POPC   C4B77943   6.259  30.014  19.114 -0.2884 -0.1013 -0.0851
35997POPC   NC377944   4.182  23.987  19.477 -0.0383  0.3398  0.0122
35997POPC   PO477945   4.543  23.884  19.438 -0.1224  0.1162  0.0050
35997POPC   GL177946   4.719  23.849  19.017  0.2343 -0.2877 -0.1698
35997POPC   GL277947   4.427  23.665  18.969  0.1416  0.0513 -0.2057
35997POPC   C1A77948   4.692  24.112  18.602  0.1798  0.3992 -0.0311
35997POPC   D2A77949   4.612  24.285  18.152  0.0294  0.1010 -0.0092
35997POPC   C3A77950   4.226  24.471  17.960 -0.2069  0.1511 -0.1436
35997POPC   C4A77951   3.915  24.235  17.696 -0.1078 -0.0674  0.0080
35997POPC   C1B77952   4.426  23.742  18.466  0.2461  0.0257 -0.0176
35997POPC   C2B77953   4.391  23.411  18.128 -0.0520 -0.1171  0.2562
35997POPC   C3B77954   4.235  23.331  17.701 -0.2520  0.0008  0.1890
35997POPC   C4B77955   4.347  23.343  17.228  0.1215  0.2386  0.0222
35998POPC   NC377956   9.240  25.226  18.032  0.1449  0.0202  0.1236
35998POPC   PO477957   9.490  25.324  18.321  0.1462  0.0967  0.5080
35998POPC   GL177958   9.517  25.618  18.123  0.0433 -0.2350 -0.2116
35998POPC   GL277959   9.631  25.494  17.868 -0.1966  0.1783  0.0254
35998POPC   C1A77960   9.360  25.932  17.829  0.1918 -0.2579  0.1479
35998POPC   D2A77961   9.333  26.454  17.710  0.0606  0.2414 -0.2951
35998POPC   C3A77962   8.991  26.660  17.474  0.1837 -0.1774  0.2714
35998POPC   C4A77963   8.644  26.826  17.204  0.0753 -0.0254  0.2611
35998POPC   C1B77964   9.753  25.876  17.607 -0.1548  0.1647 -0.2268
35998POPC   C2B77965   9.719  26.289  17.495  0.1142 -0.0718  0.0958
35998POPC   C3B77966   9.665  26.735  17.492 -0.0625 -0.0870 -0.0647
35998POPC   C4B77967   9.377  26.993  17.358  0.1149  0.2781 -0.3830
35999POPC   NC377968  11.403  25.509  19.206 -0.1377  0.2128  0.1308
35999POPC   PO477969  11.769  25.320  19.304  0.0358 -0.1421  0.1650
35999POPC   GL177970  11.772  25.719  19.089  0.1337  0.0063  0.0962
35999POPC   GL277971  11.985  25.605  18.916  0.0816 -0.2875  0.1142
35999POPC   C1A77972  11.835  26.114  18.799  0.1885 -0.0679  0.0281
35999POPC   D2A77973  12.075  26.303  18.469 -0.3578 -0.0540  0.2152
35999POPC   C3A77974  12.071  26.246  18.010 -0.2583 -0.2798  0.1369
35999POPC   C4A77975  11.959  26.500  17.604  0.1901 -0.3275 -0.1481
35999POPC   C1B77976  11.795  25.692  18.544  0.0566  0.0764  0.0369
35999POPC   C2B77977  11.703  25.995  18.272  0.0227  0.3119 -0.0608
35999POPC   C3B77978  11.614  26.433  18.202 -0.0367 -0.0170 -0.1516
35999POPC   C4B77979  11.596  26.763  17.834 -0.0430  0.3182  0.0297
36000POPC   NC377980  11.277  22.646  16.797 -0.3872  0.2099 -0.0441
36000POPC   PO477981  11.346  22.604  16.414 -0.0843  0.0101 -0.0885
36000POPC   GL177982  11.682  22.838  16.474 -0.2055  0.0026  0.0513
36000POPC   GL277983  11.753  22.843  16.198  0.1726 -0.0980  0.2968
36000POPC   C1A77984  12.088  23.043  16.463  0.1191  0.0040  0.0982
36000POPC   D2A77985  12.443  23.251  16.311  0.0024  0.1369  0.2898
36000POPC   C3A77986  12.701  23.605  16.134  0.0399  0.4247 -0.2470
36000POPC   C4A77987  13.076  23.890  16.058 -0.1245 -0.1466  0.3018
36000POPC   C1B77988  12.047  23.027  15.920 -0.0951 -0.0504  0.3243
36000POPC   C2B77989  12.191  23.062  15.446  0.0606  0.1808 -0.1932
36000POPC   C3B77990  12.288  23.255  15.027  0.1131 -0.0158 -0.1213
36000POPC   C4B77991  12.420  23.576  14.683  0.2063  0.0638 -0.1702
36001POPC   NC377992  10.826  22.846  12.907  0.0950  0.0829 -0.0474
36001POPC   PO477993  11.030  22.806  12.592 -0.0623  0.0452 -0.2065
36001POPC   GL177994  11.415  22.871  12.713  0.0565  0.0113 -0.2756
36001POPC   GL277995  11.507  22.636  12.651 -0.0682  0.3832  0.0239
36001POPC   C1A77996  11.521  23.326  12.649 -0.2450  0.2674 -0.0084
36001POPC   D2A77997  11.649  23.724  12.411  0.2943  0.0945 -0.1941
36001POPC   C3A77998  11.417  24.169  12.387 -0.0250  0.0211  0.1612
36001POPC   C4A77999  11.116  24.498  12.471 -0.1887  0.0323  0.2270
36001POPC   C1B78000  11.933  22.435  12.578 -0.3791  0.0333 -0.2698
36001POPC   C2B78001  12.319  22.381  12.368 -0.1890 -0.0363  0.0177
36001POPC   C3B78002  12.790  22.532  12.294  0.1669 -0.2894 -0.0968
36001POPC   C4B78003  13.245  22.453  12.463  0.0236 -0.0985  0.0677
36002POPC   NC378004   8.435  23.581  17.755 -0.0091  0.1193  0.2389
36002POPC   PO478005   8.522  23.713  17.364  0.0692 -0.5548  0.2051
36002POPC   GL178006   8.534  23.873  17.016  0.2938 -0.0649 -0.4240
36002POPC   GL278007   8.259  23.732  16.943  0.1344  0.0342 -0.0919
36002POPC   C1A78008   8.464  23.914  16.541 -0.0695  0.0764  0.1231
36002POPC   D2A78009   8.289  24.225  16.190  0.3621 -0.0877 -0.1123
36002POPC   C3A78010   7.877  24.400  16.287  0.0822  0.0197  0.3697
36002POPC   C4A78011   7.516  24.634  16.463 -0.0833  0.0547 -0.2055
36002POPC   C1B78012   7.856  23.900  17.141 -0.6420  0.1076 -0.0290
36002POPC   C2B78013   7.529  24.151  17.274  0.2115 -0.2937 -0.0758
36002POPC   C3B78014   7.039  24.161  17.226  0.2783 -0.1601 -0.0173
36002POPC   C4B78015   6.605  24.025  17.307  0.1347  0.0492 -0.3296
36003POPC   NC378016   7.136  31.433  20.304 -0.0116  0.2357 -0.1818
36003POPC   PO478017   6.811  31.649  20.289 -0.1834 -0.1425 -0.3886
36003POPC   GL178018   6.814  31.518  19.915 -0.2209  0.2201  0.1145
36003POPC   GL278019   7.044  31.528  19.621 -0.1663 -0.1412  0.1710
36003POPC   C1A78020   6.680  31.180  19.679  0.1099  0.1231  0.2085
36003POPC   D2A78021   6.700  30.912  19.319 -0.0069 -0.0225  0.0537
36003POPC   C3A78022   7.115  30.636  19.223  0.3236 -0.0375  0.0863
36003POPC   C4A78023   7.243  30.207  19.067  0.0475 -0.2126  0.0517
36003POPC   C1B78024   7.000  31.346  19.177  0.0369  0.2425 -0.1123
36003POPC   C2B78025   7.003  31.384  18.707  0.0260 -0.0420  0.0148
36003POPC   C3B78026   6.980  31.467  18.248 -0.4013  0.1094  0.4170
36003POPC   C4B78027   6.622  31.472  17.971 -0.1649  0.1452 -0.3231
36004POPC   NC378028  14.568  22.718  19.533 -0.0321  0.2202 -0.1178
36004POPC   PO478029  14.231  22.823  19.292 -0.1003  0.2683  0.1238
36004POPC   GL178030  14.196  22.823  18.960  0.1712  0.2835 -0.1012
36004POPC   GL278031  14.055  22.765  18.682 -0.2638 -0.1822  0.2696
36004POPC   C1A78032  14.388  23.121  18.630  0.2714 -0.0325 -0.1024
36004POPC   D2A78033  14.606  23.058  18.216  0.1428 -0.2474 -0.1431
36004POPC   C3A78034  14.745  23.217  17.794 -0.2888 -0.0796 -0.0727
36004POPC   C4A78035  15.087  23.142  17.470 -0.0060  0.1024 -0.3376
36004POPC   C1B78036  14.037  22.880  18.187 -0.0178 -0.1286 -0.0514
36004POPC   C2B78037  14.050  22.609  17.798 -0.2639  0.2338  0.0006
36004POPC   C3B78038  14.375  22.397  17.496  0.0734  0.3907 -0.0563
36004POPC   C4B78039  14.713  22.271  17.203  0.0640 -0.2192  0.1534
36005POPC   NC378040  11.397  20.780  14.617  0.0339  0.0992  0.2779
36005POPC   PO478041  11.182  20.725  14.298  0.1576 -0.4188  0.1014
36005POPC   GL178042  11.423  20.686  14.116  0.4213  0.2137  0.4014
36005POPC   GL278043  11.577  20.893  13.909 -0.0107  0.1854  0.2434
36005POPC   C1A78044  11.573  20.323  13.865 -0.1215  0.2559  0.0473
36005POPC   D2A78045  11.827  20.147  13.426 -0.0532  0.0407 -0.4580
36005POPC   C3A78046  12.237  19.909  13.438  0.0565 -0.2279 -0.1552
36005POPC   C4A78047  12.471  19.476  13.465 -0.0576  0.0745 -0.2056
36005POPC   C1B78048  11.966  21.117  13.905  0.0263  0.0694 -0.2993
36005POPC   C2B78049  12.223  21.494  13.745  0.0919  0.1855  0.1436
36005POPC   C3B78050  12.304  21.917  13.890 -0.0606 -0.0076 -0.2723
36005POPC   C4B78051  12.632  22.290  13.974  0.3398 -0.3378  0.0099
36006POPC   NC378052   5.488  28.206  20.590  0.2995  0.1296 -0.1692
36006POPC   PO478053   5.252  28.568  20.529  0.1755 -0.0026 -0.2719
36006POPC   GL178054   5.490  28.530  20.277 -0.1042 -0.1906 -0.3126
36006POPC   GL278055   5.612  28.266  20.046  0.1706 -0.0431 -0.2586
36006POPC   C1A78056   5.610  28.682  19.829  0.1867  0.2755 -0.2333
36006POPC   D2A78057   5.796  28.777  19.384  0.2245  0.4412  0.1443
36006POPC   C3A78058   6.053  29.208  19.481 -0.1349 -0.2276 -0.2997
36006POPC   C4A78059   6.229  29.565  19.691  0.0118  0.4229  0.1721
36006POPC   C1B78060   5.438  28.238  19.590 -0.2545 -0.3012 -0.1188
36006POPC   C2B78061   5.465  28.032  19.178  0.1322 -0.3276 -0.1869
36006POPC   C3B78062   5.246  27.833  18.831  0.0923 -0.0233  0.0635
36006POPC   C4B78063   4.991  27.514  18.566  0.2246 -0.1146 -0.1319
36007POPC   NC378064   3.425  30.042  20.834  0.1752 -0.1088  0.0679
36007POPC   PO478065   3.686  29.777  20.716  0.2271  0.1812  0.1445
36007POPC   GL178066   3.427  29.788  20.471 -0.0814 -0.1552 -0.0248
36007POPC   GL278067   3.457  29.979  20.266 -0.0080  0.0214 -0.1278
36007POPC   C1A78068   3.466  29.527  20.073 -0.0140 -0.0812 -0.0444
36007POPC   D2A78069   3.709  29.159  19.917 -0.2947 -0.1274  0.2910
36007POPC   C3A78070   3.739  29.010  19.463  0.1079  0.0030 -0.0396
36007POPC   C4A78071   3.679  28.983  18.998  0.0566  0.0902  0.1352
36007POPC   C1B78072   3.670  30.030  19.816  0.2526 -0.0293  0.2026
36007POPC   C2B78073   3.954  30.257  19.485 -0.1101  0.3013 -0.0283
36007POPC   C3B78074   4.011  30.194  19.040  0.0722  0.2248  0.1099
36007POPC   C4B78075   3.889  30.108  18.624 -0.0952 -0.1469  0.1640
36008POPC   NC378076  10.316  28.632  20.091 -0.0067 -0.6362  0.1151
36008POPC   PO478077  10.522  28.343  20.280 -0.1334  0.0268  0.1710
36008POPC   GL178078  10.626  28.258  19.947  0.1656 -0.3371  0.4537
36008POPC   GL278079  10.772  27.964  19.974  0.1325 -0.1189 -0.1515
36008POPC   C1A78080  10.578  28.524  19.562 -0.1700 -0.0808 -0.1499
36008POPC   D2A78081  10.965  28.576  19.314 -0.0262 -0.2599 -0.1567
36008POPC   C3A78082  10.675  28.744  18.968  0.0929  0.4425 -0.1418
36008POPC   C4A78083  10.431  28.842  18.581 -0.3694 -0.2791  0.1061
36008POPC   C1B78084  10.908  28.077  19.545 -0.4876 -0.2434 -0.2002
36008POPC   C2B78085  10.678  28.224  19.103  0.3419 -0.0313 -0.1810
36008POPC   C3B78086  10.879  28.360  18.699  0.0897  0.0603  0.0063
36008POPC   C4B78087  10.869  28.723  18.440  0.0008 -0.3522 -0.1239
36009POPC   NC378088  12.682  17.246  19.352 -0.1779  0.2259 -0.0992
36009POPC   PO478089  12.425  17.469  19.216  0.1669  0.3013 -0.0451
36009POPC   GL178090  12.384  17.241  18.925  0.2901 -0.1304 -0.0168
36009POPC   GL278091  12.280  16.980  19.129  0.1800  0.0773 -0.0979
36009POPC   C1A78092  12.526  17.115  18.523 -0.1070 -0.0494  0.0077
36009POPC   D2A78093  12.708  16.994  18.087  0.0651 -0.1000 -0.3135
36009POPC   C3A78094  13.017  16.631  17.956  0.1615  0.1022  0.0664
36009POPC   C4A78095  13.227  16.261  17.864  0.2047  0.0460 -0.1222
36009POPC   C1B78096  12.395  16.692  18.817 -0.0557 -0.1215  0.1150
36009POPC   C2B78097  12.429  16.519  18.404 -0.0800 -0.1213  0.0292
36009POPC   C3B78098  12.469  16.552  17.934 -0.2886  0.0471  0.2270
36009POPC   C4B78099  12.246  16.530  17.520 -0.0443 -0.0086  0.2732
36010POPC   NC378100   7.605  23.498  17.889 -0.1872  0.3492 -0.4113
36010POPC   PO478101   7.565  23.121  17.929  0.0527 -0.0750  0.0396
36010POPC   GL178102   7.441  22.971  17.513  0.0765 -0.1234 -0.0064
36010POPC   GL278103   7.117  22.952  17.572 -0.1297  0.3047  0.0055
36010POPC   C1A78104   7.192  23.142  17.122 -0.1690  0.1982  0.0127
36010POPC   D2A78105   6.814  23.034  16.885 -0.2084  0.3808 -0.0522
36010POPC   C3A78106   6.490  23.338  16.735 -0.0261  0.1562 -0.4817
36010POPC   C4A78107   6.124  23.452  16.546  0.1026  0.0152  0.1841
36010POPC   C1B78108   6.728  23.112  17.380  0.1695  0.1147 -0.0276
36010POPC   C2B78109   6.382  22.957  17.153 -0.0016  0.0450 -0.0518
36010POPC   C3B78110   6.112  22.978  16.786 -0.2281 -0.0361 -0.1516
36010POPC   C4B78111   5.990  22.795  16.353 -0.0202 -0.1721  0.0657
36011POPC   NC378112  13.148  29.467  20.540 -0.0254 -0.2456  0.1349
36011POPC   PO478113  12.831  29.749  20.629  0.0454 -0.1367  0.1475
36011POPC   GL178114  12.552  29.768  20.234  0.1643 -0.0833 -0.1249
36011POPC   GL278115  12.645  29.640  20.052 -0.0475  0.0800 -0.0483
36011POPC   C1A78116  12.319  29.946  19.849  0.0065  0.3063  0.1281
36011POPC   D2A78117  12.230  30.104  19.460 -0.0596  0.1795 -0.0372
36011POPC   C3A78118  12.331  30.252  19.030 -0.0734 -0.0894 -0.0814
36011POPC   C4A78119  12.607  30.274  18.614 -0.0318  0.0190  0.0162
36011POPC   C1B78120  12.935  29.777  19.778 -0.4338  0.1930 -0.0039
36011POPC   C2B78121  13.185  30.031  19.552  0.3206  0.3036 -0.1564
36011POPC   C3B78122  13.532  30.038  19.278  0.2777  0.1776 -0.0615
36011POPC   C4B78123  13.609  29.979  18.806  0.2391 -0.0571 -0.1468
36012POPC   NC378124   9.642  24.115  17.763  0.0958  0.0129 -0.1633
36012POPC   PO478125   9.816  23.986  17.419  0.1564 -0.0067  0.0805
36012POPC   GL178126  10.011  24.084  17.223 -0.0611 -0.0485  0.0237
36012POPC   GL278127   9.897  24.211  16.971  0.0056  0.0746  0.1284
36012POPC   C1A78128  10.391  24.312  17.086  0.0788 -0.4320  0.0133
36012POPC   D2A78129  10.795  24.587  17.013 -0.0871 -0.0479 -0.1226
36012POPC   C3A78130  10.871  24.915  16.766 -0.0004 -0.2006 -0.0630
36012POPC   C4A78131  10.930  25.125  16.296 -0.0441 -0.0035  0.0284
36012POPC   C1B78132  10.100  24.645  16.873  0.0305  0.1876 -0.1825
36012POPC   C2B78133  10.331  25.054  16.770  0.0022 -0.2240  0.2346
36012POPC   C3B78134  10.495  25.358  16.463  0.2285  0.0908 -0.0792
36012POPC   C4B78135  10.388  25.664  16.155 -0.1988  0.0216 -0.0603
36013POPC   NC378136   8.679  22.527  15.769  0.1838  0.0421  0.2947
36013POPC   PO478137   8.574  22.574  16.156 -0.2244  0.0630 -0.2457
36013POPC   GL178138   8.506  22.946  16.051 -0.2197 -0.0434 -0.2105
36013POPC   GL278139   8.709  23.010  15.817  0.0896  0.1375 -0.2607
36013POPC   C1A78140   8.208  23.308  16.128  0.1117  0.0973  0.1698
36013POPC   D2A78141   8.033  23.741  16.208  0.4128  0.3809 -0.1923
36013POPC   C3A78142   7.829  23.919  16.599  0.2672 -0.1753 -0.4141
36013POPC   C4A78143   7.735  24.345  16.784  0.1817 -0.1458 -0.0343
36013POPC   C1B78144   8.383  23.237  15.663 -0.0186  0.1018  0.3283
36013POPC   C2B78145   8.103  23.595  15.628  0.2069  0.2928 -0.1812
36013POPC   C3B78146   7.943  23.868  15.273 -0.1523  0.3048 -0.1106
36013POPC   C4B78147   7.779  23.909  14.794  0.0440 -0.0127 -0.1740
36014POPC   NC378148  12.879  19.924  18.454  0.1715  0.0358 -0.1325
36014POPC   PO478149  13.063  19.557  18.507 -0.1078 -0.2511 -0.1998
36014POPC   GL178150  13.265  19.784  18.207 -0.0664  0.1644 -0.1263
36014POPC   GL278151  13.127  19.759  17.983 -0.1673 -0.1803  0.3287
36014POPC   C1A78152  13.637  19.842  17.938  0.2197  0.1508  0.3956
36014POPC   D2A78153  13.803  19.665  17.591  0.3165 -0.2144 -0.2070
36014POPC   C3A78154  13.625  19.520  17.220  0.0576  0.1450  0.2955
36014POPC   C4A78155  13.564  19.311  16.760 -0.2038  0.0272 -0.0899
36014POPC   C1B78156  13.167  19.539  17.568  0.0927 -0.0694  0.2783
36014POPC   C2B78157  13.199  19.295  17.139 -0.2434 -0.0633  0.2330
36014POPC   C3B78158  12.885  18.922  17.040  0.1835  0.0138 -0.0780
36014POPC   C4B78159  12.847  18.738  16.609 -0.2097 -0.2441 -0.0926
36015POPC   NC378160  10.917  31.986  20.713 -0.2122 -0.4687 -0.0373
36015POPC   PO478161  10.592  31.815  20.508  0.0350  0.1317  0.0266
36015POPC   GL178162  10.604  31.873  20.058 -0.0249 -0.2025 -0.0448
36015POPC   GL278163  10.396  32.021  19.858 -0.1631 -0.4295  0.0014
36015POPC   C1A78164  10.727  31.547  19.769 -0.2657  0.1694 -0.2229
36015POPC   D2A78165  10.459  31.177  19.626 -0.1813 -0.1150 -0.0905
36015POPC   C3A78166  10.554  31.072  19.179 -0.1063  0.1027 -0.0143
36015POPC   C4A78167  10.592  31.268  18.766  0.5943 -0.1928  0.2824
36015POPC   C1B78168  10.503  31.872  19.417  0.2451 -0.0798  0.0649
36015POPC   C2B78169  10.498  31.928  18.963  0.2014 -0.0515 -0.1052
36015POPC   C3B78170  10.582  31.761  18.583  0.2865 -0.6565  0.2628
36015POPC   C4B78171  10.659  31.560  18.174  0.1777  0.0620 -0.2889
36016POPC   NC378172   7.548  28.943  20.211 -0.0818  0.0263  0.1760
36016POPC   PO478173   7.788  29.238  20.230 -0.1473 -0.2449 -0.0868
36016POPC   GL178174   7.908  29.126  19.836 -0.1049  0.1743  0.2446
36016POPC   GL278175   7.653  29.058  19.657  0.1715 -0.0526 -0.2158
36016POPC   C1A78176   8.110  29.075  19.390 -0.4447  0.0021 -0.0471
36016POPC   D2A78177   8.262  28.691  19.190 -0.2922  0.3529  0.1757
36016POPC   C3A78178   8.006  28.759  18.781  0.0971  0.1681 -0.1522
36016POPC   C4A78179   7.884  29.020  18.419  0.2408 -0.1539 -0.2830
36016POPC   C1B78180   7.362  29.322  19.418  0.1800  0.1950 -0.0044
36016POPC   C2B78181   7.540  29.289  19.032  0.2847  0.1221 -0.0929
36016POPC   C3B78182   7.958  29.248  18.851  0.1383 -0.0970 -0.2281
36016POPC   C4B78183   8.384  29.154  18.876  0.3951  0.2931  0.0823
36017POPC   NC378184   2.370  32.329  20.501  0.0135  0.0183  0.0789
36017POPC   PO478185   2.012  32.176  20.546 -0.0515 -0.1061 -0.3481
36017POPC   GL178186   1.965  32.041  20.179 -0.0571  0.4215  0.0293
36017POPC   GL278187   1.781  31.827  20.072 -0.2758  0.3939 -0.0451
36017POPC   C1A78188   1.748  32.275  19.832  0.1151 -0.1088  0.0138
36017POPC   D2A78189   1.664  32.713  19.647 -0.0414 -0.0726 -0.0242
36017POPC   C3A78190   1.626  32.704  19.232  0.2499 -0.1800  0.0092
36017POPC   C4A78191   1.552  32.869  18.835  0.3279  0.2635 -0.0628
36017POPC   C1B78192   1.687  31.863  19.611  0.0492 -0.2002 -0.1860
36017POPC   C2B78193   1.942  31.688  19.273  0.1138  0.1573  0.0598
36017POPC   C3B78194   2.245  31.628  18.931  0.1667 -0.1587 -0.2586
36017POPC   C4B78195   2.220  31.323  18.652  0.2371 -0.0021 -0.1036
36018POPC   NC378196   2.236  18.622  19.750  0.1435 -0.3063 -0.4937
36018POPC   PO478197   2.600  18.576  19.864  0.0519  0.1490  0.0150
36018POPC   GL178198   2.580  18.605  19.444  0.0914  0.0448  0.1235
36018POPC   GL278199   2.665  18.330  19.450 -0.0085 -0.2077  0.0178
36018POPC   C1A78200   2.679  19.024  19.262 -0.1351 -0.3348  0.0099
36018POPC   D2A78201   3.006  19.282  19.014  0.1439 -0.1947  0.2179
36018POPC   C3A78202   2.901  19.184  18.588  0.2318 -0.0971 -0.2296
36018POPC   C4A78203   2.783  18.807  18.338  0.0937  0.1933 -0.1545
36018POPC   C1B78204   2.822  18.070  19.086 -0.1302 -0.1235 -0.1133
36018POPC   C2B78205   2.731  18.264  18.712  0.0901 -0.1849 -0.0491
36018POPC   C3B78206   2.612  18.328  18.303  0.2047 -0.2167  0.0494
36018POPC   C4B78207   2.206  18.527  18.138  0.2317  0.0359  0.1465
36019POPC   NC378208  13.993  31.183  19.993  0.0359 -0.2434  0.0160
36019POPC   PO478209  14.018  30.874  20.259 -0.2830 -0.1009  0.1499
36019POPC   GL178210  13.828  30.597  20.268  0.2148 -0.2529  0.0576
36019POPC   GL278211  13.902  30.432  20.037  0.3111  0.3578 -0.0044
36019POPC   C1A78212  13.459  30.321  20.119  0.0932 -0.2089  0.1872
36019POPC   D2A78213  13.081  30.145  20.277 -0.2453  0.0803 -0.1269
36019POPC   C3A78214  12.645  30.211  20.133  0.4123 -0.3164 -0.1864
36019POPC   C4A78215  12.332  30.486  19.902  0.0726  0.0670 -0.1078
36019POPC   C1B78216  13.907  30.224  19.562  0.3482  0.2040 -0.3340
36019POPC   C2B78217  14.107  30.085  19.182 -0.3648 -0.0978 -0.1602
36019POPC   C3B78218  14.138  29.785  18.823 -0.1492 -0.1389  0.0018
36019POPC   C4B78219  14.571  29.708  18.571  0.0282  0.2562 -0.1423
36020POPC   NC378220  10.616  19.826  17.958 -0.1288  0.1565 -0.5242
36020POPC   PO478221  10.619  19.512  17.724  0.1798 -0.0333 -0.1263
36020POPC   GL178222  10.664  19.231  17.423 -0.1706  0.1350  0.2242
36020POPC   GL278223  10.469  19.075  17.491 -0.0794  0.3923 -0.0349
36020POPC   C1A78224  11.072  19.121  17.143 -0.1529 -0.2096  0.0488
36020POPC   D2A78225  11.267  18.835  16.830  0.1492  0.0053  0.1254
36020POPC   C3A78226  11.165  18.431  16.617 -0.1822  0.0095 -0.4001
36020POPC   C4A78227  11.254  18.301  16.170 -0.1590 -0.1194  0.1809
36020POPC   C1B78228  10.701  18.810  17.165 -0.0064  0.1781  0.0810
36020POPC   C2B78229  10.699  18.498  16.787  0.0532  0.1131  0.5680
36020POPC   C3B78230  10.716  18.296  16.354 -0.0422  0.0947 -0.2164
36020POPC   C4B78231  10.788  18.385  15.933 -0.0070 -0.2895  0.4919
36021POPC   NC378232   6.853  32.094  19.772  0.3496  0.1624 -0.1598
36021POPC   PO478233   6.651  32.396  19.799 -0.1836 -0.1249 -0.0624
36021POPC   GL178234   6.485  32.227  19.483 -0.1274  0.1236  0.2842
36021POPC   GL278235   6.704  32.190  19.315  0.2884  0.0636 -0.0208
36021POPC   C1A78236   6.338  32.450  19.096 -0.0784  0.0138  0.4347
36021POPC   D2A78237   6.335  32.673  18.662  0.2409  0.3022 -0.2196
36021POPC   C3A78238   6.160  32.335  18.414 -0.0717 -0.2195  0.1657
36021POPC   C4A78239   6.272  32.132  18.025  0.0299  0.3265  0.0231
36021POPC   C1B78240   7.008  32.418  19.062 -0.0996  0.1820 -0.3950
36021POPC   C2B78241   7.298  32.625  18.816  0.0724  0.0236  0.1114
36021POPC   C3B78242   7.477  32.584  18.316  0.3994 -0.0829 -0.0475
36021POPC   C4B78243   7.724  32.542  17.947 -0.1281  0.1406 -0.1259
36022POPC   NC378244   1.303  21.008  19.549  0.1081 -0.2334 -0.2694
36022POPC   PO478245   0.926  21.169  19.598  0.1706 -0.0223 -0.1168
36022POPC   GL178246   0.662  21.200  19.350 -0.0261 -0.2722 -0.2060
36022POPC   GL278247   0.700  21.472  19.248 -0.0943  0.2179  0.1377
36022POPC   C1A78248   0.679  21.091  18.896 -0.1502  0.0873 -0.4381
36022POPC   D2A78249   0.986  21.271  18.541 -0.1888  0.1007 -0.0633
36022POPC   C3A78250   1.203  21.666  18.584  0.3313  0.0549 -0.0431
36022POPC   C4A78251   1.375  21.941  18.906 -0.0812  0.3413 -0.0618
36022POPC   C1B78252   0.832  21.774  18.912 -0.0010 -0.2182  0.1699
36022POPC   C2B78253   0.963  22.097  18.629  0.0463  0.1752  0.1600
36022POPC   C3B78254   1.311  22.147  18.379 -0.1574  0.2392  0.6099
36022POPC   C4B78255   1.389  21.881  18.048 -0.3587 -0.2339  0.0683
36023POPC   NC378256   2.591  17.031  20.624  0.3391  0.1795 -0.0189
36023POPC   PO478257   2.341  16.730  20.575  0.1322  0.0173  0.0492
36023POPC   GL178258   2.321  16.663  20.197 -0.0523 -0.0374 -0.2080
36023POPC   GL278259   2.532  16.572  20.109 -0.0585 -0.1328 -0.1441
36023POPC   C1A78260   2.120  16.343  19.879 -0.3076  0.0304  0.0840
36023POPC   D2A78261   1.943  15.896  19.825 -0.2728 -0.0235 -0.2951
36023POPC   C3A78262   2.063  15.751  19.378 -0.0092 -0.1859  0.3841
36023POPC   C4A78263   1.910  15.589  18.970  0.0032 -0.0718  0.0441
36023POPC   C1B78264   2.515  16.598  19.659  0.0726 -0.1724 -0.2020
36023POPC   C2B78265   2.702  16.610  19.232  0.2714 -0.0973 -0.0832
36023POPC   C3B78266   2.600  16.537  18.789  0.3321  0.3126  0.0764
36023POPC   C4B78267   2.393  16.825  18.493  0.0473  0.0608 -0.0018
36024POPC   NC378268   1.213  25.027  20.256 -0.2991 -0.1268 -0.3898
36024POPC   PO478269   1.208  25.413  20.300  0.3057 -0.0555  0.0625
36024POPC   GL178270   1.180  25.423  19.894 -0.1038  0.1094  0.1133
36024POPC   GL278271   1.456  25.582  19.862 -0.0503 -0.0221  0.0963
36024POPC   C1A78272   0.931  25.649  19.610 -0.1213  0.1169 -0.0282
36024POPC   D2A78273   0.557  25.830  19.320  0.1751 -0.1894  0.0494
36024POPC   C3A78274   0.501  25.907  18.849  0.2890  0.2893  0.1557
36024POPC   C4A78275   0.550  26.261  18.541  0.1357  0.0348 -0.1617
36024POPC   C1B78276   1.417  25.410  19.378  0.2641  0.0353 -0.3278
36024POPC   C2B78277   1.451  25.378  18.928 -0.3137  0.1871  0.0492
36024POPC   C3B78278   1.316  25.341  18.457 -0.0249  0.0456  0.2562
36024POPC   C4B78279   1.311  25.348  17.962 -0.0437 -0.1246 -0.1568
36025POPC   NC378280  10.874  26.215  19.429 -0.2270  0.1790  0.0813
36025POPC   PO478281  11.018  25.821  19.462  0.1202 -0.1613  0.1269
36025POPC   GL178282  10.903  25.900  19.100  0.1795  0.4371  0.0507
36025POPC   GL278283  11.021  25.724  18.896 -0.2965  0.1309  0.7140
36025POPC   C1A78284  10.816  26.324  18.964 -0.1425  0.0366 -0.0307
36025POPC   D2A78285  10.845  26.744  18.824  0.2749  0.1581 -0.1694
36025POPC   C3A78286  10.378  26.951  18.624 -0.0376 -0.4301 -0.1182
36025POPC   C4A78287   9.975  26.877  18.434  0.4799 -0.1060 -0.0135
36025POPC   C1B78288  10.758  25.981  18.615  0.0929  0.2512  0.0200
36025POPC   C2B78289  10.382  26.069  18.269 -0.4120  0.0503 -0.0646
36025POPC   C3B78290  10.307  26.027  17.776  0.0714 -0.3024  0.1405
36025POPC   C4B78291  10.107  26.093  17.332  0.4298  0.0539 -0.0927
36026POPC   NC378292   7.019  25.916  19.072 -0.3310 -0.1284  0.0445
36026POPC   PO478293   6.639  25.792  19.087 -0.1396  0.0678 -0.1527
36026POPC   GL178294   6.381  25.880  18.832 -0.5135 -0.3078  0.0150
36026POPC   GL278295   6.302  25.637  18.699 -0.1977 -0.0144 -0.0522
36026POPC   C1A78296   6.305  26.110  18.371 -0.0992  0.1182 -0.2644
36026POPC   D2A78297   6.528  26.120  17.938 -0.2256 -0.0743  0.1091
36026POPC   C3A78298   6.531  25.768  17.601 -0.5079  0.0262 -0.3403
36026POPC   C4A78299   6.776  25.644  17.206 -0.0703  0.1311 -0.0285
36026POPC   C1B78300   6.460  25.426  18.351 -0.1539 -0.0409 -0.1589
36026POPC   C2B78301   6.374  25.342  17.918 -0.1523  0.0940  0.2915
36026POPC   C3B78302   6.208  25.395  17.545  0.0798 -0.0864 -0.2464
36026POPC   C4B78303   5.860  25.661  17.359  0.0009  0.2190 -0.2265
36027POPC   NC378304   1.690  25.342  20.214 -0.0724  0.2217 -0.1253
36027POPC   PO478305   1.671  24.946  20.198  0.0789  0.0098  0.0506
36027POPC   GL178306   1.606  25.038  19.883  0.0882  0.2163  0.3801
36027POPC   GL278307   1.797  25.204  19.713  0.2134 -0.2942  0.2491
36027POPC   C1A78308   1.294  24.961  19.617 -0.0061 -0.0275 -0.2505
36027POPC   D2A78309   0.894  25.145  19.381 -0.3133 -0.0332  0.1285
36027POPC   C3A78310   0.966  25.513  19.144  0.1390  0.1409 -0.0922
36027POPC   C4A78311   0.875  25.501  18.716 -0.2924 -0.0860 -0.1225
36027POPC   C1B78312   1.808  25.019  19.299 -0.1372 -0.0737  0.1539
36027POPC   C2B78313   1.680  24.922  18.899  0.2646 -0.0152  0.0316
36027POPC   C3B78314   1.583  24.938  18.441 -0.1805  0.1105 -0.0694
36027POPC   C4B78315   1.473  24.675  18.016  0.0107 -0.1075 -0.0269
36028POPC   NC378316  11.085  19.979  16.345  0.0072  0.0996  0.0210
36028POPC   PO478317  11.269  20.143  16.631  0.1623 -0.0078  0.1510
36028POPC   GL178318  11.697  20.063  16.634 -0.4084 -0.4846 -0.1717
36028POPC   GL278319  11.696  19.833  16.704  0.1107  0.2101  0.0736
36028POPC   C1A78320  12.033  19.835  16.381 -0.0502 -0.1229  0.0821
36028POPC   D2A78321  12.109  19.453  16.155 -0.2014 -0.0730  0.1027
36028POPC   C3A78322  12.098  19.073  15.955  0.1996  0.1446  0.0192
36028POPC   C4A78323  12.115  18.894  15.499 -0.0418 -0.3598  0.0704
36028POPC   C1B78324  11.548  19.639  16.293 -0.1094 -0.0447 -0.1716
36028POPC   C2B78325  11.660  19.316  16.006  0.2337  0.1336  0.2105
36028POPC   C3B78326  11.669  18.928  15.766 -0.1943  0.0007  0.2153
36028POPC   C4B78327  11.559  18.495  15.650  0.0375 -0.0371 -0.4788
36029POPC   NC378328   2.122  29.497  20.932  0.0596  0.0955  0.1660
36029POPC   PO478329   1.804  29.343  20.876 -0.1969  0.0231  0.0802
36029POPC   GL178330   1.791  29.497  20.414  0.0834  0.0526  0.1568
36029POPC   GL278331   1.538  29.558  20.354 -0.1285 -0.0728  0.1952
36029POPC   C1A78332   1.778  29.257  20.029 -0.0060 -0.1933 -0.3210
36029POPC   D2A78333   1.635  29.118  19.658  0.2025  0.2995 -0.1570
36029POPC   C3A78334   1.359  29.407  19.384  0.1126 -0.1584  0.1681
36029POPC   C4A78335   1.025  29.629  19.293 -0.0233 -0.1028 -0.1349
36029POPC   C1B78336   1.418  29.586  19.869  0.0853  0.1489  0.0495
36029POPC   C2B78337   0.985  29.401  19.828 -0.0896 -0.0864 -0.2160
36029POPC   C3B78338   0.597  29.508  19.567  0.1167  0.3166  0.1741
36029POPC   C4B78339   0.432  29.800  19.246 -0.0196  0.0723  0.3064
36030POPC   NC378340  15.531   1.034  19.974  0.0981 -0.0181  0.0522
36030POPC   PO478341  15.588   0.757  20.286 -0.0969  0.1030  0.3712
36030POPC   GL178342  15.583   0.450  20.149 -0.4725 -0.1542  0.3063
36030POPC   GL278343  15.398   0.505  19.898  0.0073 -0.3097  0.0037
36030POPC   C1A78344  15.536   0.052  19.908 -0.1388  0.5363  0.0884
36030POPC   D2A78345  15.477  -0.154  19.516  0.1410 -0.2326 -0.2708
36030POPC   C3A78346  15.794  -0.333  19.190 -0.0405 -0.1985 -0.1931
36030POPC   C4A78347  15.750  -0.550  18.806 -0.0390  0.3564  0.1227
36030POPC   C1B78348  15.420   0.394  19.474  0.2694  0.2396 -0.0058
36030POPC   C2B78349  15.214   0.384  19.085 -0.0205  0.0183  0.0018
36030POPC   C3B78350  14.901   0.263  18.751 -0.0799  0.2388  0.0596
36030POPC   C4B78351  14.862   0.159  18.352 -0.1045 -0.2490 -0.1697
36031POPC   NC378352  12.939  20.999  17.817  0.2822 -0.0421  0.0823
36031POPC   PO478353  12.584  21.215  17.834 -0.0991 -0.0060 -0.0108
36031POPC   GL178354  12.727  21.327  17.437 -0.3084 -0.2200  0.1884
36031POPC   GL278355  12.570  21.529  17.252 -0.0226 -0.1541  0.0081
36031POPC   C1A78356  13.018  21.440  17.068  0.1295 -0.0051 -0.4428
36031POPC   D2A78357  13.106  21.784  16.795 -0.1271 -0.0732 -0.0364
36031POPC   C3A78358  12.951  22.120  16.476  0.0439  0.0277 -0.1202
36031POPC   C4A78359  13.232  22.297  16.128 -0.4592  0.0278 -0.1941
36031POPC   C1B78360  12.724  21.957  17.174 -0.0821  0.1480 -0.0861
36031POPC   C2B78361  12.635  22.360  17.036  0.0002  0.1177  0.2847
36031POPC   C3B78362  12.533  22.620  16.687  0.2547 -0.0214 -0.2195
36031POPC   C4B78363  12.811  22.907  16.406  0.2222  0.0655 -0.0914
36032POPC   NC378364   6.135  21.739  18.903  0.0663  0.1320  0.1188
36032POPC   PO478365   6.057  21.866  18.554  0.3498  0.1146 -0.1821
36032POPC   GL178366   6.080  21.808  18.237 -0.3377 -0.2090 -0.1088
36032POPC   GL278367   5.928  22.081  18.102  0.0478 -0.1815  0.2834
36032POPC   C1A78368   5.907  21.607  17.861  0.2251  0.0105 -0.1362
36032POPC   D2A78369   5.585  21.597  17.481 -0.2657 -0.1234 -0.3904
36032POPC   C3A78370   5.516  21.202  17.180  0.1358 -0.0612  0.0312
36032POPC   C4A78371   5.301  20.844  16.925 -0.1207 -0.2627 -0.2315
36032POPC   C1B78372   5.524  22.076  17.888  0.1065 -0.1083  0.0804
36032POPC   C2B78373   5.183  21.914  17.592  0.1611  0.0571  0.0612
36032POPC   C3B78374   5.029  21.498  17.333 -0.1051 -0.0085  0.1970
36032POPC   C4B78375   4.954  21.198  17.017 -0.0492 -0.1991  0.2619
36033POPC   NC378376   6.854  23.050  18.332  0.0585 -0.0113 -0.2237
36033POPC   PO478377   7.036  23.234  18.012 -0.0641 -0.2522 -0.0452
36033POPC   GL178378   7.099  23.459  17.847  0.2812  0.2566  0.0383
36033POPC   GL278379   7.218  23.432  17.561  0.1635  0.0190 -0.2186
36033POPC   C1A78380   7.126  23.893  17.642 -0.1750  0.2856 -0.3989
36033POPC   D2A78381   7.185  24.390  17.601 -0.0964 -0.0932 -0.1122
36033POPC   C3A78382   6.830  24.578  17.349 -0.0636 -0.1734 -0.2036
36033POPC   C4A78383   6.711  24.636  16.877  0.3598  0.2875 -0.1441
36033POPC   C1B78384   7.372  23.662  17.166  0.1806  0.2899  0.0058
36033POPC   C2B78385   7.316  23.839  16.755  0.0154  0.0759 -0.5236
36033POPC   C3B78386   7.408  24.106  16.360  0.1799 -0.2555 -0.0391
36033POPC   C4B78387   7.167  24.435  16.149 -0.3259 -0.0429 -0.3433
36034POPC   NC378388  15.880  15.943  19.930 -0.0779  0.0043 -0.1575
36034POPC   PO478389  15.512  15.982  20.063 -0.2367 -0.1748  0.0346
36034POPC   GL178390  15.177  15.718  19.750 -0.3288  0.2741  0.5116
36034POPC   GL278391  14.855  15.626  19.834 -0.0966  0.2808 -0.1269
36034POPC   C1A78392  15.217  15.351  19.399  0.0821  0.2199 -0.1944
36034POPC   D2A78393  15.492  15.355  19.039  0.0537  0.3480 -0.0117
36034POPC   C3A78394  15.400  15.133  18.650  0.2457 -0.1188 -0.0745
36034POPC   C4A78395  15.407  14.872  18.277 -0.0375 -0.4572 -0.1269
36034POPC   C1B78396  14.480  15.653  19.561  0.0474  0.1121 -0.1869
36034POPC   C2B78397  14.289  15.525  19.159  0.0729 -0.1493 -0.0787
36034POPC   C3B78398  14.376  15.510  18.709 -0.0600 -0.1656  0.0997
36034POPC   C4B78399  14.585  15.495  18.326  0.1349 -0.1780  0.0315
36035POPC   NC378400   9.937  29.347  20.325 -0.1296  0.1264  0.1233
36035POPC   PO478401  10.103  29.409  20.679  0.0897 -0.2463 -0.0198
36035POPC   GL178402  10.440  29.416  20.359 -0.0216  0.3489 -0.2325
36035POPC   GL278403  10.423  29.191  20.306  0.0113 -0.0476 -0.0340
36035POPC   C1A78404  10.263  29.725  20.111  0.0670  0.1358 -0.0624
36035POPC   D2A78405   9.957  29.766  19.793 -0.1375  0.0617 -0.0586
36035POPC   C3A78406   9.561  29.931  19.753  0.2485 -0.1532 -0.2584
36035POPC   C4A78407   9.453  30.241  19.439 -0.1617  0.1271  0.1513
36035POPC   C1B78408  10.725  29.356  19.907 -0.0426  0.2118  0.2219
36035POPC   C2B78409  10.866  29.451  19.460 -0.0418 -0.0542  0.0392
36035POPC   C3B78410  11.037  29.570  19.044  0.0521  0.0305 -0.2070
36035POPC   C4B78411  11.228  29.440  18.624  0.1283  0.0690 -0.0025
36036POPC   NC378412  10.970  23.051  14.677  0.0813 -0.1386  0.0020
36036POPC   PO478413  10.559  23.060  14.703 -0.0473 -0.1186  0.5135
36036POPC   GL178414  10.433  23.425  14.602  0.0965 -0.0023 -0.1245
36036POPC   GL278415  10.635  23.598  14.773  0.2784 -0.0653  0.1526
36036POPC   C1A78416  10.444  23.874  14.436  0.0619 -0.2816 -0.0616
36036POPC   D2A78417  10.567  24.289  14.325 -0.1354 -0.0462 -0.1891
36036POPC   C3A78418  10.941  24.285  13.981  0.4904 -0.1180 -0.3043
36036POPC   C4A78419  11.065  23.937  13.752 -0.2178  0.3133  0.0641
36036POPC   C1B78420  10.765  24.034  14.871 -0.1000  0.0643  0.3070
36036POPC   C2B78421  10.905  24.394  14.989 -0.2161  0.0213  0.3861
36036POPC   C3B78422  10.877  24.726  15.288  0.0309  0.2186  0.0432
36036POPC   C4B78423  11.118  25.026  15.536  0.1880 -0.0233  0.1800
36037POPC   NC378424   8.693  23.419  16.997  0.2523 -0.0893 -0.0044
36037POPC   PO478425   8.886  23.238  16.698 -0.1565  0.3420 -0.1051
36037POPC   GL178426   8.712  23.433  16.260  0.1433  0.1449  0.0508
36037POPC   GL278427   8.904  23.450  16.063  0.0052  0.0376 -0.4320
36037POPC   C1A78428   8.565  23.806  16.073  0.0672 -0.0564 -0.1768
36037POPC   D2A78429   8.473  23.950  15.674 -0.0801 -0.1482 -0.0978
36037POPC   C3A78430   8.040  24.115  15.688 -0.1216  0.0693 -0.0798
36037POPC   C4A78431   7.624  24.292  15.826 -0.4259 -0.2052 -0.0134
36037POPC   C1B78432   8.809  23.533  15.596  0.3248 -0.0767  0.1283
36037POPC   C2B78433   8.516  23.487  15.250 -0.2523 -0.5212  0.0554
36037POPC   C3B78434   8.254  23.626  14.881  0.3020  0.2633  0.3141
36037POPC   C4B78435   8.156  23.783  14.423 -0.4414  0.2125 -0.0177
36038POPC   NC378436  11.584  17.253  19.806  0.3553 -0.0951  0.1692
36038POPC   PO478437  11.672  16.882  19.718 -0.1252 -0.0386  0.3230
36038POPC   GL178438  11.702  16.733  19.378  0.1535  0.1823  0.2436
36038POPC   GL278439  11.552  16.495  19.349 -0.1242 -0.2936 -0.1592
36038POPC   C1A78440  11.838  16.937  19.033  0.0384  0.0110 -0.1368
36038POPC   D2A78441  12.012  16.994  18.628 -0.1517 -0.2254  0.0000
36038POPC   C3A78442  12.037  16.861  18.191 -0.3213 -0.0734  0.2353
36038POPC   C4A78443  11.824  16.659  17.807 -0.0360  0.3375  0.2599
36038POPC   C1B78444  11.469  16.336  18.928  0.1754  0.0590 -0.1531
36038POPC   C2B78445  11.606  16.116  18.547 -0.1161  0.0318  0.1861
36038POPC   C3B78446  11.721  15.672  18.332 -0.0246 -0.1820 -0.1824
36038POPC   C4B78447  11.581  15.227  18.391  0.1002 -0.1176 -0.1764
36039POPC   NC378448  12.648  21.537  18.305 -0.1720  0.2339 -0.0609
36039POPC   PO478449  12.967  21.339  18.199 -0.1745  0.0338  0.0227
36039POPC   GL178450  13.055  21.478  17.870  0.1845 -0.0161  0.0038
36039POPC   GL278451  13.366  21.286  17.837  0.2036 -0.3274 -0.1541
36039POPC   C1A78452  12.982  21.741  17.515 -0.2092 -0.1007 -0.1445
36039POPC   D2A78453  13.245  21.946  17.264  0.0080 -0.1386  0.1174
36039POPC   C3A78454  13.190  22.329  17.059  0.0146 -0.1434  0.1576
36039POPC   C4A78455  13.093  22.628  16.730  0.0929 -0.0772  0.0993
36039POPC   C1B78456  13.414  21.461  17.415 -0.0003 -0.1746 -0.2753
36039POPC   C2B78457  13.548  21.599  17.020 -0.2057  0.1779  0.0107
36039POPC   C3B78458  13.694  22.013  16.889 -0.0297  0.2901  0.0973
36039POPC   C4B78459  13.828  22.507  16.799 -0.1203 -0.0080 -0.2124
36040POPC   NC378460   6.093  18.602  19.329  0.2347 -0.2048 -0.3431
36040POPC   PO478461   5.815  18.826  19.463  0.1977 -0.0323  0.1364
36040POPC   GL178462   5.696  18.717  19.069  0.3278  0.3175  0.0925
36040POPC   GL278463   5.425  18.640  19.171 -0.0687  0.2970  0.1600
36040POPC   C1A78464   5.691  18.583  18.633  0.1405 -0.1263  0.2699
36040POPC   D2A78465   5.516  18.490  18.160  0.4026 -0.0934 -0.0392
36040POPC   C3A78466   5.594  18.091  18.090 -0.2596  0.0914 -0.1681
36040POPC   C4A78467   5.389  17.680  17.953 -0.2005 -0.3133 -0.0429
36040POPC   C1B78468   5.220  18.604  18.771 -0.0546 -0.0055 -0.2757
36040POPC   C2B78469   4.890  18.484  18.481 -0.0053 -0.2333 -0.2082
36040POPC   C3B78470   4.719  18.455  18.059 -0.0997 -0.2382  0.1135
36040POPC   C4B78471   4.742  18.077  17.727 -0.3747 -0.0863 -0.1784
36041POPC   NC378472   8.619  28.249  19.955 -0.0085 -0.1333 -0.0451
36041POPC   PO478473   8.648  28.485  20.229 -0.0137 -0.1073  0.0517
36041POPC   GL178474   8.619  28.753  19.867 -0.1376  0.3050  0.1803
36041POPC   GL278475   8.368  28.689  19.723 -0.1347 -0.0120 -0.1763
36041POPC   C1A78476   8.880  29.157  19.797  0.4791 -0.3865 -0.0251
36041POPC   D2A78477   9.029  29.346  19.425 -0.0798  0.1013  0.0589
36041POPC   C3A78478   8.889  29.162  18.980 -0.0427 -0.1639 -0.0959
36041POPC   C4A78479   8.783  29.029  18.529 -0.0692  0.0087 -0.0552
36041POPC   C1B78480   8.668  28.910  19.396  0.0039  0.0748  0.2199
36041POPC   C2B78481   8.729  28.707  18.958 -0.0344  0.0222 -0.2976
36041POPC   C3B78482   9.070  28.469  18.686 -0.2388 -0.2270 -0.6294
36041POPC   C4B78483   9.545  28.367  18.711 -0.0386  0.0440 -0.0593
36042POPC   NC378484   2.122  19.842  19.409  0.0293  0.0258 -0.0785
36042POPC   PO478485   2.049  20.222  19.526  0.2026  0.3992  0.6528
36042POPC   GL178486   2.062  20.192  19.113  0.1824  0.1922  0.1974
36042POPC   GL278487   1.778  20.166  19.085 -0.2951 -0.1082  0.1612
36042POPC   C1A78488   2.118  19.763  18.868 -0.0329  0.1437  0.1237
36042POPC   D2A78489   1.980  19.327  18.731  0.0138 -0.1962 -0.0074
36042POPC   C3A78490   2.272  19.418  18.410  0.3425  0.3311 -0.1161
36042POPC   C4A78491   2.669  19.475  18.193  0.4213 -0.2602  0.0221
36042POPC   C1B78492   1.867  20.121  18.628 -0.4805  0.1181 -0.1838
36042POPC   C2B78493   1.831  20.173  18.171  0.1282 -0.0708 -0.0946
36042POPC   C3B78494   1.831  20.179  17.677  0.4134  0.2589  0.0336
36042POPC   C4B78495   1.572  20.227  17.279  0.2468  0.1693 -0.1456
36043POPC   NC378496  14.421  24.510  19.629  0.1897 -0.2719  0.0765
36043POPC   PO478497  14.036  24.614  19.731 -0.0755 -0.0167  0.3214
36043POPC   GL178498  13.919  24.849  19.443 -0.0049 -0.1310 -0.2177
36043POPC   GL278499  14.141  24.802  19.264 -0.0060 -0.0011 -0.1316
36043POPC   C1A78500  13.932  25.281  19.240 -0.1835 -0.1972  0.0631
36043POPC   D2A78501  13.602  25.598  19.117 -0.0598 -0.0883  0.2510
36043POPC   C3A78502  13.542  25.433  18.682  0.0299  0.0457  0.3121
36043POPC   C4A78503  13.285  25.402  18.273  0.0271 -0.1607 -0.0763
36043POPC   C1B78504  14.249  24.859  18.834  0.1309 -0.1348  0.0746
36043POPC   C2B78505  14.071  24.849  18.395  0.3579  0.2939 -0.1065
36043POPC   C3B78506  13.997  24.946  17.939  0.0205 -0.2077  0.2491
36043POPC   C4B78507  13.861  24.724  17.552 -0.0104  0.0140 -0.1150
36044POPC   NC378508  15.246  27.691  20.356 -0.3118 -0.2550 -0.2146
36044POPC   PO478509  14.896  27.890  20.390  0.0040 -0.1743  0.2071
36044POPC   GL178510  14.919  27.787  20.011  0.1326  0.0701 -0.4720
36044POPC   GL278511  14.684  27.664  19.899  0.0918  0.2221  0.1785
36044POPC   C1A78512  15.356  27.752  19.833  0.1084  0.2063  0.0313
36044POPC   D2A78513  15.833  27.860  19.866  0.0617  0.4223 -0.0057
36044POPC   C3A78514  16.094  28.028  19.522 -0.5978  0.0132  0.1455
36044POPC   C4A78515  16.569  28.158  19.567 -0.0891 -0.0661 -0.1741
36044POPC   C1B78516  14.439  27.917  19.597  0.2314  0.3614  0.1854
36044POPC   C2B78517  14.636  27.921  19.164 -0.0297  0.2164 -0.3207
36044POPC   C3B78518  14.929  27.762  18.841 -0.1785 -0.2710  0.1560
36044POPC   C4B78519  15.148  27.869  18.425  0.0404 -0.0137 -0.1086
36045POPC   NC378520   6.218  22.950  18.589 -0.1669  0.0765  0.2157
36045POPC   PO478521   6.322  23.313  18.570 -0.1058 -0.1283 -0.0483
36045POPC   GL178522   6.332  23.446  18.253 -0.1919  0.1210  0.0762
36045POPC   GL278523   6.557  23.374  18.079  0.1551 -0.2017  0.0394
36045POPC   C1A78524   6.016  23.561  17.923 -0.2866 -0.0152 -0.1815
36045POPC   D2A78525   5.625  23.367  17.931 -0.2118 -0.5755 -0.1782
36045POPC   C3A78526   5.443  23.231  17.525 -0.1005 -0.3392 -0.1730
36045POPC   C4A78527   5.283  22.941  17.257  0.0737 -0.1387  0.0394
36045POPC   C1B78528   6.660  23.516  17.635  0.2638 -0.0638  0.3872
36045POPC   C2B78529   6.895  23.607  17.253  0.3288 -0.2542  0.0003
36045POPC   C3B78530   7.008  23.506  16.821  0.0057 -0.1883 -0.0226
36045POPC   C4B78531   6.978  23.232  16.431 -0.2636 -0.2418 -0.0626
36046POPC   NC378532   1.092  22.295  20.208 -0.1801 -0.0025  0.1730
36046POPC   PO478533   0.770  22.155  20.088  0.2081 -0.1164  0.1213
36046POPC   GL178534   0.929  22.042  19.722  0.0289 -0.2007  0.1092
36046POPC   GL278535   0.751  22.173  19.590  0.0244  0.1797  0.1448
36046POPC   C1A78536   1.128  21.854  19.369 -0.0745 -0.3086  0.1704
36046POPC   D2A78537   1.457  21.519  19.298 -0.0012  0.2691 -0.0814
36046POPC   C3A78538   1.808  21.601  19.045  0.1017 -0.0525 -0.2166
36046POPC   C4A78539   2.082  21.778  18.777  0.0106 -0.2484  0.6614
36046POPC   C1B78540   0.881  22.246  19.138  0.1316 -0.3942  0.0387
36046POPC   C2B78541   0.708  22.522  18.810  0.1333  0.0833  0.4447
36046POPC   C3B78542   0.740  22.485  18.346 -0.1290  0.3345  0.0969
36046POPC   C4B78543   0.935  22.124  18.078  0.1266  0.2902 -0.0303
36047POPC   NC378544  12.309  26.898  20.073 -0.3524 -0.0126  0.2705
36047POPC   PO478545  12.657  26.893  20.279  0.3111  0.2417  0.0160
36047POPC   GL178546  12.778  27.024  19.911  0.1415  0.0210 -0.0669
36047POPC   GL278547  12.629  27.189  19.692 -0.0084  0.4412  0.1782
36047POPC   C1A78548  12.887  26.834  19.481  0.2144  0.0118  0.3596
36047POPC   D2A78549  13.259  26.762  19.191  0.0035 -0.0504 -0.1100
36047POPC   C3A78550  13.367  26.564  18.808 -0.3109 -0.0880 -0.0645
36047POPC   C4A78551  13.680  26.484  18.544 -0.2393  0.3401 -0.0261
36047POPC   C1B78552  12.211  27.180  19.651  0.0928  0.1781  0.0141
36047POPC   C2B78553  11.834  27.021  19.378  0.1511 -0.0230  0.2913
36047POPC   C3B78554  11.505  26.949  19.053  0.1967 -0.0675 -0.1840
36047POPC   C4B78555  11.208  26.603  19.267 -0.0544 -0.3055 -0.2587
36048POPC   NC378556  11.829  18.101  19.189 -0.4314  0.1449 -0.0424
36048POPC   PO478557  11.611  17.800  19.107  0.0688 -0.0596  0.3688
36048POPC   GL178558  11.666  17.589  18.740 -0.2967  0.0256 -0.1283
36048POPC   GL278559  11.631  17.356  18.675  0.0160  0.2196  0.4738
36048POPC   C1A78560  11.313  17.685  18.483  0.0011  0.1445  0.1300
36048POPC   D2A78561  10.911  17.811  18.484  0.1810  0.1124 -0.1667
36048POPC   C3A78562  11.003  17.835  18.037  0.0562 -0.0648 -0.0484
36048POPC   C4A78563  10.871  17.580  17.659  0.0203  0.2304  0.3266
36048POPC   C1B78564  11.588  17.074  18.276 -0.1001  0.0693 -0.1589
36048POPC   C2B78565  11.645  17.074  17.772 -0.2346  0.0642 -0.0525
36048POPC   C3B78566  11.756  16.924  17.300  0.3153 -0.3803 -0.2257
36048POPC   C4B78567  11.861  17.135  16.882 -0.2152 -0.2898 -0.3652
36049POPC   NC378568   5.619  20.133  18.429  0.2224  0.0754  0.1615
36049POPC   PO478569   5.415  20.313  18.713 -0.1821 -0.0669  0.0106
36049POPC   GL178570   5.325  20.469  18.367 -0.3896 -0.0645  0.3862
36049POPC   GL278571   5.067  20.375  18.357  0.2129 -0.2201  0.1387
36049POPC   C1A78572   5.381  20.301  17.919 -0.3508 -0.1634  0.3944
36049POPC   D2A78573   5.419  20.129  17.488 -0.0975  0.1374 -0.1619
36049POPC   C3A78574   5.377  20.259  17.056  0.0247 -0.2544 -0.2539
36049POPC   C4A78575   5.213  20.412  16.643 -0.0666  0.1915  0.0247
36049POPC   C1B78576   5.205  19.955  18.226 -0.2341 -0.0042 -0.0268
36049POPC   C2B78577   5.167  19.829  17.817 -0.1021  0.2099  0.1041
36049POPC   C3B78578   5.328  19.651  17.423 -0.1566 -0.0305  0.2390
36049POPC   C4B78579   5.413  19.255  17.176 -0.1079  0.0580  0.0152
36050POPC   NC378580   0.566  25.669  20.355 -0.3391  0.1428  0.0388
36050POPC   PO478581   0.325  25.369  20.311  0.0116 -0.3103 -0.0085
36050POPC   GL178582   0.308  25.295  19.907  0.1725 -0.2290 -0.0833
36050POPC   GL278583   0.346  25.573  19.824  0.0259 -0.1097  0.0883
36050POPC   C1A78584   0.431  25.205  19.452  0.1052 -0.0856 -0.2304
36050POPC   D2A78585   0.578  25.274  19.002 -0.0202 -0.2031  0.0472
36050POPC   C3A78586   0.294  25.415  18.657  0.1393 -0.1032  0.2663
36050POPC   C4A78587  -0.009  25.352  18.263  0.0377  0.0736 -0.1268
36050POPC   C1B78588   0.082  25.869  19.556  0.2376 -0.1572  0.2927
36050POPC   C2B78589   0.083  25.785  19.066 -0.3021 -0.1854 -0.1416
36050POPC   C3B78590   0.015  25.918  18.614  0.0634  0.0642 -0.0491
36050POPC   C4B78591  -0.028  25.885  18.140 -0.0520 -0.1756 -0.2370
36051POPC   NC378592   9.258  22.527  13.012  0.0611 -0.0442  0.1344
36051POPC   PO478593   9.525  22.508  12.738 -0.0350  0.1235  0.0115
36051POPC   GL178594   9.141  22.315  12.599  0.4545 -0.1137  0.1944
36051POPC   GL278595   9.180  22.075  12.468  0.1525 -0.0552  0.0173
36051POPC   C1A78596   8.804  22.449  12.302 -0.0049  0.0573 -0.3164
36051POPC   D2A78597   8.561  22.582  11.916 -0.0936 -0.0031 -0.1267
36051POPC   C3A78598   8.274  22.915  11.831  0.1986 -0.2433 -0.1648
36051POPC   C4A78599   7.830  22.941  11.794 -0.2023 -0.0803  0.0282
36051POPC   C1B78600   8.822  21.836  12.601  0.1520 -0.0068  0.0585
36051POPC   C2B78601   8.396  21.993  12.591  0.2902 -0.0761  0.1085
36051POPC   C3B78602   8.011  22.211  12.808 -0.0009 -0.0153 -0.1790
36051POPC   C4B78603   7.634  22.473  12.676 -0.1277  0.0395  0.1996
36052POPS   CNO78604  15.982  22.114   9.645  0.1026 -0.0820 -0.1518
36052POPS   PO478605  15.993  22.365   9.373  0.1514 -0.3573 -0.1923
36052POPS   GL178606  15.744  22.362   9.063  0.0060 -0.0288  0.4023
36052POPS   GL278607  15.442  22.310   9.062  0.2299  0.2317  0.0373
36052POPS   C1A78608  15.674  22.539   8.663 -0.1097 -0.3697 -0.0835
36052POPS   D2A78609  15.486  22.742   8.309  0.0199  0.0570 -0.1464
36052POPS   C3A78610  15.242  23.077   8.044  0.0460 -0.1505  0.0069
36052POPS   C4A78611  15.187  23.258   7.601 -0.1122 -0.2229 -0.2690
36052POPS   C1B78612  15.084  22.438   8.658 -0.1367 -0.1674 -0.1886
36052POPS   C2B78613  14.903  22.448   8.221  0.0192  0.0406 -0.2139
36052POPS   C3B78614  14.923  22.130   7.887  0.1870  0.0775  0.1991
36052POPS   C4B78615  14.829  21.807   7.582 -0.2082 -0.0589  0.2491
36053POPS   CNO78616  13.068  29.868   8.832 -0.1695 -0.1624 -0.3087
36053POPS   PO478617  13.016  30.217   8.663 -0.1580  0.2118  0.2898
36053POPS   GL178618  13.151  30.209   8.223  0.0118  0.3657  0.0346
36053POPS   GL278619  12.966  30.399   8.070 -0.1710  0.0310 -0.0725
36053POPS   C1A78620  13.330  29.979   7.839 -0.1232 -0.1795 -0.0100
36053POPS   D2A78621  13.535  29.754   7.456 -0.0153 -0.4900 -0.2102
36053POPS   C3A78622  13.367  29.927   7.013 -0.2345 -0.2334 -0.0674
36053POPS   C4A78623  13.131  30.217   6.759  0.0884 -0.0557  0.3083
36053POPS   C1B78624  13.013  30.278   7.609 -0.0510  0.0644  0.1130
36053POPS   C2B78625  12.963  30.058   7.277  0.1868 -0.0192  0.0599
36053POPS   C3B78626  12.787  29.878   6.868 -0.1561  0.1803 -0.0505
36053POPS   C4B78627  12.398  29.859   6.600  0.1674  0.3009  0.0658
36054POPS   CNO78628   5.454  19.637  10.440  0.1431  0.0479 -0.0899
36054POPS   PO478629   5.822  19.616  10.472 -0.2277 -0.1582 -0.2392
36054POPS   GL178630   6.142  19.601  10.274  0.2305  0.1328 -0.1449
36054POPS   GL278631   6.225  19.403  10.132 -0.1846 -0.1183 -0.3029
36054POPS   C1A78632   6.533  19.756  10.426 -0.2614  0.2078 -0.2258
36054POPS   D2A78633   6.890  20.107  10.551 -0.0781 -0.0539  0.1055
36054POPS   C3A78634   7.222  20.358  10.730 -0.1666  0.1390 -0.2382
36054POPS   C4A78635   7.490  20.645  11.030 -0.1720  0.1044 -0.0441
36054POPS   C1B78636   6.198  19.806   9.895 -0.1736 -0.0733  0.0044
36054POPS   C2B78637   6.557  19.841   9.615  0.2106 -0.2594  0.2669
36054POPS   C3B78638   7.005  19.649   9.500 -0.2331  0.1624 -0.1344
36054POPS   C4B78639   7.393  19.749   9.236 -0.3640  0.0649  0.2346
36055POPS   CNO78640   0.830  25.689   9.266  0.0133 -0.3930  0.1574
36055POPS   PO478641   0.885  25.538   8.928  0.0186 -0.0732 -0.2816
36055POPS   GL178642   0.668  25.525   8.574 -0.2070  0.2729 -0.0122
36055POPS   GL278643   0.542  25.803   8.515 -0.1577  0.1609 -0.0404
36055POPS   C1A78644   0.816  25.468   8.152 -0.0143  0.2419 -0.0864
36055POPS   D2A78645   0.650  25.524   7.715  0.2131  0.0341  0.0543
36055POPS   C3A78646   0.278  25.522   7.484 -0.1595  0.3320  0.0465
36055POPS   C4A78647  -0.128  25.482   7.298  0.3002  0.0295 -0.1188
36055POPS   C1B78648   0.356  25.530   8.172 -0.0070  0.1196 -0.3040
36055POPS   C2B78649   0.260  25.153   7.933  0.0391 -0.0577 -0.2183
36055POPS   C3B78650  -0.009  25.061   7.611  0.0933  0.0325 -0.0161
36055POPS   C4B78651  -0.252  24.815   7.238  0.1977 -0.0712 -0.1064
36056POPS   CNO78652  15.945  29.358   8.518  0.1387  0.0634  0.2361
36056POPS   PO478653  15.731  29.352   8.221  0.0015 -0.0803  0.1914
36056POPS   GL178654  15.738  29.393   7.869 -0.5343 -0.0902 -0.0468
36056POPS   GL278655  15.727  29.641   7.756 -0.2168 -0.4284 -0.1671
36056POPS   C1A78656  15.324  29.426   7.645 -0.1102 -0.1732 -0.2326
36056POPS   D2A78657  15.168  29.491   7.228  0.0398 -0.4152 -0.0852
36056POPS   C3A78658  15.113  29.684   6.843  0.0218 -0.3452  0.0551
36056POPS   C4A78659  14.871  29.956   6.573  0.3453 -0.0320  0.0823
36056POPS   C1B78660  16.096  29.472   7.425 -0.2354 -0.2867 -0.0511
36056POPS   C2B78661  16.146  29.606   6.970 -0.1097 -0.0182  0.2210
36056POPS   C3B78662  16.391  29.496   6.636  0.2194 -0.1429 -0.3123
36056POPS   C4B78663  16.190  29.318   6.247 -0.0807  0.1669  0.0813
36057POPS   CNO78664   0.210  29.438   8.105  0.0297  0.2410 -0.1003
36057POPS   PO478665  -0.058  29.228   8.249  0.2329  0.0968  0.2830
36057POPS   GL178666  -0.291  28.929   8.125  0.3998 -0.1383 -0.0431
36057POPS   GL278667  -0.403  29.051   7.916  0.2108 -0.2665 -0.1295
36057POPS   C1A78668  -0.583  28.599   7.910  0.0225 -0.1133  0.3317
36057POPS   D2A78669  -0.622  28.216   7.651 -0.1415 -0.1648  0.0201
36057POPS   C3A78670  -0.800  28.220   7.273 -0.0016  0.4114  0.0585
36057POPS   C4A78671  -0.977  28.154   6.791 -0.1418  0.0084  0.0724
36057POPS   C1B78672  -0.213  28.996   7.470 -0.2669  0.2017 -0.0384
36057POPS   C2B78673  -0.273  29.016   7.040  0.3794  0.1012  0.1908
36057POPS   C3B78674  -0.485  29.081   6.655 -0.0956  0.1188 -0.0368
36057POPS   C4B78675  -0.885  29.231   6.463  0.1659  0.0027 -0.1092
36058POPS   CNO78676   5.606  31.951   9.151 -0.2618 -0.0002 -0.0349
36058POPS   PO478677   5.468  32.077   8.807 -0.0656  0.1389  0.2461
36058POPS   GL178678   5.765  32.034   8.485  0.1021 -0.0011  0.4106
36058POPS   GL278679   5.727  32.350   8.416 -0.0089  0.1607 -0.2438
36058POPS   C1A78680   5.675  31.984   8.033  0.0575  0.2636  0.2028
36058POPS   D2A78681   5.552  32.180   7.636 -0.0547 -0.0353 -0.1430
36058POPS   C3A78682   5.750  32.011   7.316  0.3737  0.2402 -0.0496
36058POPS   C4A78683   5.688  31.682   7.027 -0.3444 -0.0594  0.3296
36058POPS   C1B78684   5.521  32.467   8.101 -0.0720 -0.0405 -0.0062
36058POPS   C2B78685   5.654  32.700   7.777 -0.2311  0.0277 -0.0948
36058POPS   C3B78686   5.820  32.478   7.399 -0.0422 -0.0446 -0.1019
36058POPS   C4B78687   6.120  32.294   7.090  0.2929 -0.0525  0.0717
36059POPS   CNO78688  15.097  18.968  14.742 -0.4132  0.0530  0.3669
36059POPS   PO478689  15.024  18.681  14.968 -0.3063  0.2543  0.2097
36059POPS   GL178690  14.915  18.773  15.374 -0.3841  0.2367  0.0953
36059POPS   GL278691  14.620  18.692  15.433  0.0548  0.0985  0.2045
36059POPS   C1A78692  14.890  18.568  15.821 -0.1138  0.1670  0.0004
36059POPS   D2A78693  14.611  18.684  16.164  0.1465 -0.4300  0.0399
36059POPS   C3A78694  14.258  18.896  16.334  0.0807  0.0931 -0.0772
36059POPS   C4A78695  13.956  19.016  16.701 -0.0829 -0.1002  0.1123
36059POPS   C1B78696  14.410  18.996  15.768 -0.3533  0.3521 -0.2004
36059POPS   C2B78697  14.340  19.294  16.076 -0.2489 -0.0744  0.0451
36059POPS   C3B78698  14.461  19.529  16.448 -0.1011  0.0442 -0.3734
36059POPS   C4B78699  14.356  19.839  16.745 -0.0186 -0.2025 -0.1034
36060POPS   CNO78700   5.024  24.449  11.245  0.0649  0.0456 -0.2268
36060POPS   PO478701   5.095  24.467  10.894  0.1139  0.3232  0.3331
36060POPS   GL178702   5.340  24.445  10.603 -0.1394  0.0187 -0.1610
36060POPS   GL278703   5.513  24.643  10.558 -0.2370 -0.0321 -0.2400
36060POPS   C1A78704   5.685  24.192  10.554 -0.0656  0.0757 -0.0928
36060POPS   D2A78705   5.870  24.021  10.126  0.3459  0.3438 -0.0826
36060POPS   C3A78706   5.693  23.678   9.913 -0.3981 -0.1133 -0.2381
36060POPS   C4A78707   5.748  23.216   9.785 -0.0129 -0.0042 -0.0851
36060POPS   C1B78708   5.735  24.594  10.144  0.0787 -0.1184 -0.0491
36060POPS   C2B78709   5.995  24.530   9.749 -0.1370 -0.1490  0.2911
36060POPS   C3B78710   6.344  24.207   9.596  0.1196  0.2601  0.2435
36060POPS   C4B78711   6.673  24.333   9.303  0.1287  0.0739  0.2271
36061POPS   CNO78712   4.758  27.510   8.937 -0.3541  0.0840  0.0455
36061POPS   PO478713   5.109  27.454   9.106 -0.0085  0.0550 -0.2004
36061POPS   GL178714   5.243  27.211   8.829 -0.0631  0.2296  0.0495
36061POPS   GL278715   5.393  26.936   8.989  0.1804  0.2028  0.2082
36061POPS   C1A78716   5.695  27.158   8.642  0.1350 -0.3629 -0.1723
36061POPS   D2A78717   5.954  26.950   8.320 -0.0071  0.0983 -0.1185
36061POPS   C3A78718   5.817  26.653   8.008 -0.0714 -0.2033 -0.0544
36061POPS   C4A78719   5.450  26.600   7.744 -0.3760  0.3552  0.0400
36061POPS   C1B78720   5.309  26.465   8.916  0.1437 -0.0715 -0.0574
36061POPS   C2B78721   5.429  26.058   8.673  0.0302  0.0587 -0.0125
36061POPS   C3B78722   5.731  25.798   8.376 -0.2718  0.4799  0.0019
36061POPS   C4B78723   5.696  25.368   8.229 -0.0514 -0.1978  0.3749
36062POPS   CNO78724   8.428  17.987  11.222 -0.1817 -0.1004  0.0981
36062POPS   PO478725   8.203  18.087  11.473 -0.0874 -0.0591  0.1243
36062POPS   GL178726   8.339  18.220  11.768  0.0209 -0.0140 -0.1771
36062POPS   GL278727   8.128  18.221  11.989 -0.1588 -0.3930  0.0402
36062POPS   C1A78728   8.740  18.321  12.029  0.0305  0.1739 -0.1306
36062POPS   D2A78729   9.017  18.741  12.132  0.2883  0.0577  0.0804
36062POPS   C3A78730   9.010  19.157  12.390 -0.3192 -0.0012 -0.0679
36062POPS   C4A78731   9.200  19.594  12.487  0.2117 -0.0845  0.1204
36062POPS   C1B78732   8.340  18.644  11.950 -0.0257  0.0217  0.0706
36062POPS   C2B78733   8.558  19.023  12.049 -0.2721 -0.2717  0.0420
36062POPS   C3B78734   8.544  19.273  12.451  0.0365  0.1095 -0.0151
36062POPS   C4B78735   8.758  19.523  12.757 -0.0986 -0.1304 -0.1722
36063POPS   CNO78736   0.166  28.368   8.661 -0.3154  0.2035 -0.1443
36063POPS   PO478737   0.080  28.024   8.502  0.2145  0.1364 -0.2503
36063POPS   GL178738   0.198  27.819   8.198 -0.3750  0.0465 -0.0492
36063POPS   GL278739   0.422  27.886   7.994 -0.1002  0.2837 -0.2575
36063POPS   C1A78740   0.022  27.472   7.927  0.0167 -0.1412 -0.0219
36063POPS   D2A78741  -0.155  27.299   7.561  0.2285 -0.1482 -0.2010
36063POPS   C3A78742  -0.279  27.342   7.115  0.1826 -0.2512  0.2106
36063POPS   C4A78743  -0.526  27.180   6.685  0.1748 -0.0881 -0.2149
36063POPS   C1B78744   0.292  27.943   7.540 -0.1672 -0.1666 -0.0461
36063POPS   C2B78745   0.135  27.832   7.090 -0.1451  0.1572  0.0704
36063POPS   C3B78746   0.089  27.949   6.651 -0.0963  0.0683 -0.2337
36063POPS   C4B78747  -0.155  28.070   6.321 -0.3081  0.2120  0.0464
36064POPS   CNO78748   1.062  30.617   7.797  0.0266  0.1219 -0.0985
36064POPS   PO478749   1.425  30.727   7.943  0.0702 -0.0604  0.0227
36064POPS   GL178750   1.427  30.842   7.559 -0.1354  0.4075 -0.2361
36064POPS   GL278751   1.470  30.656   7.364  0.0719 -0.1548  0.0117
36064POPS   C1A78752   1.068  30.891   7.258 -0.1340  0.2256 -0.0178
36064POPS   D2A78753   0.743  30.992   6.917  0.0754  0.1125  0.1772
36064POPS   C3A78754   0.690  30.681   6.562 -0.0484 -0.1893  0.0497
36064POPS   C4A78755   0.896  30.356   6.311 -0.0791  0.0585 -0.0853
36064POPS   C1B78756   1.659  30.736   6.916 -0.1697 -0.1211 -0.3301
36064POPS   C2B78757   1.800  30.866   6.494 -0.0563 -0.1371 -0.2069
36064POPS   C3B78758   1.555  31.126   6.198 -0.1864  0.0319 -0.3168
36064POPS   C4B78759   1.301  31.474   5.915  0.1405  0.3114  0.2732
36065POPS   CNO78760  14.805  19.255  11.911  0.0852  0.2620  0.2230
36065POPS   PO478761  14.462  19.416  11.984  0.2145 -0.1860 -0.1051
36065POPS   GL178762  14.502  19.781  12.217  0.1229  0.1239 -0.1856
36065POPS   GL278763  14.245  19.809  12.397  0.1313 -0.0965  0.0553
36065POPS   C1A78764  14.322  20.183  12.079 -0.0291  0.0863  0.0871
36065POPS   D2A78765  13.969  20.402  11.842 -0.2714 -0.3204 -0.4339
36065POPS   C3A78766  13.552  20.460  12.022  0.2887 -0.3773  0.4182
36065POPS   C4A78767  13.237  20.738  12.043  0.1204 -0.0724 -0.0554
36065POPS   C1B78768  13.859  20.080  12.326  0.0409  0.1108 -0.0381
36065POPS   C2B78769  13.369  20.237  12.416 -0.2330  0.0903  0.1487
36065POPS   C3B78770  12.982  20.544  12.484 -0.0654  0.2021  0.0070
36065POPS   C4B78771  12.572  20.379  12.514 -0.1014 -0.3968 -0.1004
36066POPS   CNO78772   2.178  21.021   9.974  0.0378  0.1571  0.0075
36066POPS   PO478773   2.451  20.801   9.808 -0.3538 -0.0203 -0.2602
36066POPS   GL178774   2.576  20.912   9.332 -0.0500 -0.2021 -0.1901
36066POPS   GL278775   2.377  20.777   9.198 -0.4261  0.0289 -0.1350
36066POPS   C1A78776   2.885  20.850   9.043 -0.1627  0.2095 -0.2198
36066POPS   D2A78777   2.906  20.697   8.628  0.0855 -0.1126 -0.1865
36066POPS   C3A78778   3.244  20.443   8.469  0.4178  0.3164 -0.1740
36066POPS   C4A78779   3.284  19.929   8.435  0.1013  0.1681 -0.0527
36066POPS   C1B78780   2.497  21.005   8.792  0.0145  0.3630 -0.1109
36066POPS   C2B78781   2.806  21.189   8.486  0.1236  0.0248 -0.0265
36066POPS   C3B78782   2.899  21.102   8.034 -0.0012 -0.0598  0.0322
36066POPS   C4B78783   3.034  20.881   7.668 -0.2615  0.1234  0.1726
36067POPS   CNO78784  15.301  21.861  11.058 -0.1107  0.0741  0.0191
36067POPS   PO478785  15.008  21.641  11.079 -0.1572 -0.0714  0.3226
36067POPS   GL178786  14.644  21.762  11.016  0.3057  0.3174  0.2889
36067POPS   GL278787  14.549  21.891  11.237 -0.0407  0.1093 -0.1035
36067POPS   C1A78788  14.299  21.959  10.757 -0.1449  0.1733 -0.1575
36067POPS   D2A78789  13.997  22.076  10.478  0.0994  0.1909 -0.3497
36067POPS   C3A78790  13.528  21.985  10.562 -0.1137 -0.1047 -0.0745
36067POPS   C4A78791  13.079  21.977  10.633  0.0582 -0.2982  0.3246
36067POPS   C1B78792  14.070  21.966  11.215 -0.1873 -0.1260  0.2015
36067POPS   C2B78793  13.760  22.138  11.029  0.0963  0.1036  0.3085
36067POPS   C3B78794  13.347  22.214  10.961  0.1413  0.0232 -0.3444
36067POPS   C4B78795  12.930  22.437  11.095 -0.0324  0.0414  0.1397
36068POPS   CNO78796  11.081  28.673   9.487 -0.2126 -0.1711  0.0098
36068POPS   PO478797  11.043  28.820   9.194 -0.0750  0.2434 -0.2109
36068POPS   GL178798  10.853  28.567   8.930 -0.2662 -0.1211  0.0157
36068POPS   GL278799  10.590  28.618   9.069  0.2937  0.0869 -0.2660
36068POPS   C1A78800  10.962  28.203   8.687 -0.2887  0.2899  0.0917
36068POPS   D2A78801  10.796  27.993   8.309 -0.1358  0.0286  0.0892
36068POPS   C3A78802  10.371  27.878   8.198  0.0312 -0.0125  0.2579
36068POPS   C4A78803  10.057  27.888   7.873 -0.2257 -0.1165 -0.1314
36068POPS   C1B78804  10.327  28.253   8.900 -0.0866 -0.0236  0.0378
36068POPS   C2B78805  10.268  27.838   8.682  0.1223  0.0235 -0.1384
36068POPS   C3B78806  10.274  27.344   8.572  0.1944 -0.3145 -0.2088
36068POPS   C4B78807  10.055  26.914   8.578  0.3413  0.0164  0.1433
36069POPS   CNO78808   4.155  24.006  10.545  0.0068 -0.2539 -0.0346
36069POPS   PO478809   4.518  23.845  10.587 -0.0284  0.3246  0.2027
36069POPS   GL178810   4.559  23.765  10.214 -0.3014 -0.0846 -0.0962
36069POPS   GL278811   4.792  23.545  10.300 -0.0381 -0.0469  0.0406
36069POPS   C1A78812   4.818  24.001   9.923  0.0063 -0.0066  0.0596
36069POPS   D2A78813   5.002  23.959   9.504 -0.4055 -0.2012  0.2974
36069POPS   C3A78814   5.428  23.792   9.482 -0.0083 -0.0301  0.0635
36069POPS   C4A78815   5.850  23.593   9.431 -0.1612 -0.0070  0.1844
36069POPS   C1B78816   5.054  23.425   9.954 -0.0984  0.0132  0.3903
36069POPS   C2B78817   5.307  23.309   9.630  0.1164  0.2505  0.0369
36069POPS   C3B78818   5.457  23.379   9.173 -0.0065 -0.1644  0.0746
36069POPS   C4B78819   5.866  23.278   8.965 -0.0205 -0.3714 -0.0783
36070POPS   CNO78820   8.814  16.266   9.891 -0.2126  0.0507  0.1204
36070POPS   PO478821   8.694  16.590   9.807  0.2114 -0.0725  0.0517
36070POPS   GL178822   8.968  16.817   9.536 -0.0519  0.2683  0.1178
36070POPS   GL278823   9.053  16.636   9.275 -0.0521 -0.2166  0.0580
36070POPS   C1A78824   8.924  17.172   9.263  0.0345 -0.0492  0.0240
36070POPS   D2A78825   8.972  17.624   9.296 -0.0162  0.2300  0.1619
36070POPS   C3A78826   9.183  17.996   9.238 -0.2190  0.2062 -0.0654
36070POPS   C4A78827   9.565  18.230   9.278  0.0402 -0.0919 -0.0763
36070POPS   C1B78828   9.015  16.891   8.880  0.0258 -0.1963  0.1907
36070POPS   C2B78829   9.010  17.128   8.498 -0.1016  0.2273 -0.1284
36070POPS   C3B78830   9.148  17.417   8.146  0.0241  0.2719  0.0309
36070POPS   C4B78831   9.417  17.737   7.925 -0.0756  0.1605  0.2553
36071POPS   CNO78832  12.899  17.830  10.134 -0.1454 -0.3350 -0.1707
36071POPS   PO478833  12.768  18.076   9.845 -0.1077  0.1796 -0.0652
36071POPS   GL178834  12.614  18.461   9.825 -0.1188 -0.0281  0.2824
36071POPS   GL278835  12.457  18.523   9.997  0.3468  0.0739  0.1686
36071POPS   C1A78836  12.390  18.705   9.539  0.1876 -0.0790  0.1464
36071POPS   D2A78837  12.225  19.129   9.417  0.0032 -0.0397  0.0102
36071POPS   C3A78838  12.113  19.010   8.956  0.1609 -0.1721  0.1391
36071POPS   C4A78839  12.015  18.926   8.535 -0.2978 -0.2651 -0.4948
36071POPS   C1B78840  12.543  18.971   9.950  0.2172 -0.2993  0.0551
36071POPS   C2B78841  12.321  19.339   9.840  0.1136  0.1283 -0.0652
36071POPS   C3B78842  12.038  19.610   9.992 -0.2614  0.1595 -0.0306
36071POPS   C4B78843  11.809  19.871  10.267 -0.3229  0.0609 -0.1972
36072POPS   CNO78844  11.430  29.921   8.569  0.1320  0.0286  0.5833
36072POPS   PO478845  11.078  30.068   8.435 -0.0668 -0.0091  0.1332
36072POPS   GL178846  11.095  29.812   8.097 -0.5578 -0.2323 -0.3919
36072POPS   GL278847  11.313  29.652   8.087  0.0110 -0.1039 -0.2692
36072POPS   C1A78848  11.171  30.006   7.709  0.1834 -0.0415 -0.1538
36072POPS   D2A78849  11.064  30.280   7.341  0.0191 -0.0379 -0.0931
36072POPS   C3A78850  11.095  30.553   6.980 -0.0755  0.1461  0.0165
36072POPS   C4A78851  11.289  30.967   6.919  0.4562  0.1251  0.2507
36072POPS   C1B78852  11.308  29.521   7.619  0.2589 -0.3044  0.1615
36072POPS   C2B78853  11.096  29.542   7.164 -0.1687  0.1454 -0.1065
36072POPS   C3B78854  10.855  29.397   6.872  0.0417  0.0279 -0.0092
36072POPS   C4B78855  10.603  29.245   6.544 -0.0261 -0.1873 -0.2562
36073POPS   CNO78856  16.411  19.379   9.212  0.0578  0.0434 -0.2391
36073POPS   PO478857  16.576  19.313   8.888  0.1237  0.0453  0.0918
36073POPS   GL178858  16.591  19.549   8.440  0.0791 -0.1959  0.1637
36073POPS   GL278859  16.344  19.706   8.395  0.1619 -0.0744 -0.0944
36073POPS   C1A78860  16.718  19.669   8.041 -0.2434  0.1406 -0.1887
36073POPS   D2A78861  16.497  19.623   7.621  0.0903  0.1445 -0.2146
36073POPS   C3A78862  16.476  19.320   7.310 -0.3908  0.4067  0.1192
36073POPS   C4A78863  16.677  19.019   7.004 -0.2669 -0.0538  0.2494
36073POPS   C1B78864  16.263  19.972   8.059 -0.1101 -0.0325  0.1233
36073POPS   C2B78865  16.186  19.972   7.613  0.0168  0.0740 -0.0486
36073POPS   C3B78866  15.797  19.965   7.401  0.2468  0.1783 -0.1042
36073POPS   C4B78867  15.681  20.133   7.004 -0.0176  0.0063 -0.0426
36074POPS   CNO78868   5.906  20.676  12.407 -0.0211  0.0173 -0.1168
36074POPS   PO478869   5.734  20.489  12.709 -0.0158  0.0381 -0.1343
36074POPS   GL178870   6.074  20.291  12.646  0.0317  0.0109 -0.0470
36074POPS   GL278871   5.951  20.000  12.778  0.0653  0.3849 -0.2276
36074POPS   C1A78872   6.492  20.462  12.698 -0.4017  0.2915 -0.0560
36074POPS   D2A78873   6.736  20.889  12.747 -0.0003 -0.2321  0.1976
36074POPS   C3A78874   6.411  21.179  13.019 -0.0165  0.0498 -0.0033
36074POPS   C4A78875   6.422  21.652  12.883 -0.1857  0.0925  0.1224
36074POPS   C1B78876   6.193  20.132  13.091 -0.0227  0.0449  0.2581
36074POPS   C2B78877   6.628  20.235  13.170  0.2841  0.2525  0.2705
36074POPS   C3B78878   6.893  20.001  13.509 -0.1054  0.0954  0.1975
36074POPS   C4B78879   7.120  20.118  13.860  0.2030  0.0327 -0.2793
36075POPS   CNO78880  10.023  29.346   9.289 -0.1189 -0.0938 -0.2515
36075POPS   PO478881   9.996  29.403   8.940  0.0875  0.1974  0.1413
36075POPS   GL178882  10.068  29.122   8.635  0.1212 -0.0045  0.2934
36075POPS   GL278883  10.136  28.882   8.796  0.0675 -0.0307 -0.6177
36075POPS   C1A78884   9.928  29.074   8.181 -0.0715  0.2854  0.0593
36075POPS   D2A78885   9.891  28.907   7.770 -0.1138 -0.1155  0.1672
36075POPS   C3A78886   9.886  28.437   7.862  0.1476  0.2067  0.0368
36075POPS   C4A78887   9.960  28.155   8.295 -0.3762 -0.1052  0.0881
36075POPS   C1B78888  10.529  28.821   8.596  0.4729  0.0194 -0.0982
36075POPS   C2B78889  10.656  28.467   8.326 -0.2447 -0.1450  0.2144
36075POPS   C3B78890  10.536  28.249   7.915  0.0128 -0.4706 -0.5760
36075POPS   C4B78891  10.308  28.208   7.567 -0.4594 -0.1501  0.0203
36076POPS   CNO78892   0.001  31.173   8.101  0.0784 -0.2230  0.1017
36076POPS   PO478893   0.359  31.124   8.023 -0.0428  0.2697  0.2698
36076POPS   GL178894   0.667  31.170   7.830  0.0451  0.1170  0.1543
36076POPS   GL278895   0.665  31.026   7.640  0.4204  0.2653  0.1977
36076POPS   C1A78896   0.870  31.367   7.419 -0.0937  0.2490  0.1207
36076POPS   D2A78897   0.669  31.455   7.028  0.0493 -0.1459  0.2251
36076POPS   C3A78898   0.795  31.761   6.708 -0.1880 -0.1408 -0.4044
36076POPS   C4A78899   0.707  32.051   6.379  0.1554 -0.1733  0.1836
36076POPS   C1B78900   0.372  31.001   7.292 -0.2426  0.0224  0.0593
36076POPS   C2B78901   0.255  31.042   6.806  0.0233  0.1014  0.1847
36076POPS   C3B78902   0.287  30.875   6.384  0.0506  0.2854 -0.0296
36076POPS   C4B78903   0.565  30.795   6.099  0.0079  0.0738  0.1507
36077POPS   CNO78904   6.239  28.352   9.157  0.1231  0.2596 -0.0894
36077POPS   PO478905   6.193  27.967   9.179  0.3584  0.2166 -0.0903
36077POPS   GL178906   6.440  27.763   8.951 -0.0469  0.3472  0.1034
36077POPS   GL278907   6.643  27.747   9.094 -0.2202  0.1786  0.1804
36077POPS   C1A78908   6.228  27.571   8.558  0.2123 -0.0839  0.0453
36077POPS   D2A78909   6.343  27.277   8.210 -0.0913  0.0617 -0.0547
36077POPS   C3A78910   6.329  27.037   7.817  0.0613  0.0019  0.0252
36077POPS   C4A78911   6.317  26.785   7.401 -0.0091 -0.2030 -0.0552
36077POPS   C1B78912   6.654  27.308   8.846  0.1020  0.0267  0.0696
36077POPS   C2B78913   6.720  26.867   8.827  0.1139 -0.0794  0.1089
36077POPS   C3B78914   6.713  26.404   8.813  0.1130 -0.0287 -0.0325
36077POPS   C4B78915   6.573  25.983   8.779  0.1449 -0.1072  0.1486
36078POPS   CNO78916  15.903  15.602  15.650  0.1548 -0.0749 -0.0010
36078POPS   PO478917  15.900  15.860  15.925  0.2576  0.0989  0.1082
36078POPS   GL178918  15.828  15.813  16.296  0.0507  0.1927 -0.6124
36078POPS   GL278919  16.114  15.735  16.377  0.0450  0.3465 -0.0915
36078POPS   C1A78920  15.891  16.099  16.701 -0.0095 -0.1070 -0.0948
36078POPS   D2A78921  16.287  16.331  16.825 -0.3894  0.2310 -0.1443
36078POPS   C3A78922  16.362  16.544  17.295  0.3080 -0.0051 -0.2384
36078POPS   C4A78923  16.361  16.372  17.693  0.0741 -0.1296  0.1704
36078POPS   C1B78924  16.317  15.819  16.822  0.2645  0.0046 -0.0893
36078POPS   C2B78925  16.155  15.622  17.199 -0.0639  0.2237  0.0246
36078POPS   C3B78926  15.872  15.746  17.536 -0.0277  0.1356 -0.1717
36078POPS   C4B78927  15.762  15.900  17.988 -0.1099  0.0531  0.0665
36079POPS   CNO78928  14.737  29.072   8.878 -0.1499  0.0247 -0.0602
36079POPS   PO478929  14.611  28.910   8.580 -0.1589  0.0056 -0.3340
36079POPS   GL178930  14.695  28.897   8.197 -0.0898 -0.1674 -0.0117
36079POPS   GL278931  14.829  28.633   8.224  0.0052  0.1081  0.0140
36079POPS   C1A78932  14.434  28.998   7.821 -0.1765 -0.2128  0.3228
36079POPS   D2A78933  14.389  29.413   7.579  0.1411 -0.1212 -0.1447
36079POPS   C3A78934  14.191  29.385   7.134 -0.0776 -0.1277 -0.1106
36079POPS   C4A78935  13.951  29.197   6.785  0.1430  0.2290 -0.1356
36079POPS   C1B78936  14.863  28.585   7.751 -0.2990  0.1691 -0.1155
36079POPS   C2B78937  14.694  28.407   7.301 -0.0853  0.0107 -0.1887
36079POPS   C3B78938  14.578  28.531   6.864  0.0221 -0.1236 -0.0899
36079POPS   C4B78939  14.536  28.957   6.743  0.1952  0.2114  0.3258
36080POPS   CNO78940  15.905  21.615   9.588  0.5105 -0.0725  0.0990
36080POPS   PO478941  15.855  21.289   9.422  0.0039  0.4375 -0.0640
36080POPS   GL178942  15.605  21.569   9.244 -0.1581  0.0700 -0.2581
36080POPS   GL278943  15.397  21.462   9.438 -0.0905 -0.1969 -0.4421
36080POPS   C1A78944  15.298  21.781   8.968  0.0599 -0.1787 -0.2004
36080POPS   D2A78945  15.033  21.966   8.552 -0.1863  0.1502  0.0751
36080POPS   C3A78946  14.722  21.856   8.233  0.2275 -0.0133  0.3123
36080POPS   C4A78947  14.380  21.902   7.902 -0.1742 -0.4232  0.2597
36080POPS   C1B78948  15.197  21.249   9.050 -0.0419  0.0512  0.2472
36080POPS   C2B78949  15.280  21.160   8.604 -0.0776 -0.1991 -0.0038
36080POPS   C3B78950  15.269  21.247   8.118  0.0744  0.1155 -0.0475
36080POPS   C4B78951  15.005  21.345   7.766 -0.1038  0.0609  0.1085
36081POPS   CNO78952  10.226  31.619   8.988 -0.2343  0.0738 -0.1534
36081POPS   PO478953  10.236  31.933   8.809 -0.1569  0.1324  0.0380
36081POPS   GL178954   9.909  32.232   8.753  0.2858  0.3553  0.1342
36081POPS   GL278955  10.028  32.354   8.548  0.1100  0.1488  0.1337
36081POPS   C1A78956   9.600  32.192   8.424  0.1187 -0.2479 -0.3207
36081POPS   D2A78957   9.368  32.297   8.039  0.0557 -0.0963 -0.1301
36081POPS   C3A78958   9.224  32.469   7.637 -0.0016 -0.2243  0.1419
36081POPS   C4A78959   9.160  32.590   7.182 -0.2063 -0.0815 -0.2268
36081POPS   C1B78960   9.880  32.471   8.148  0.1112 -0.4442 -0.1355
36081POPS   C2B78961   9.688  32.632   7.748  0.0120 -0.1950  0.1581
36081POPS   C3B78962   9.551  32.869   7.390 -0.0222  0.1656  0.1482
36081POPS   C4B78963   9.450  33.251   7.203 -0.0369  0.1702  0.0578
36082POPS   CNO78964   1.495  26.989   8.689  0.2522 -0.0828 -0.1731
36082POPS   PO478965   1.123  27.000   8.749 -0.0109 -0.0983 -0.0884
36082POPS   GL178966   1.168  27.156   8.318 -0.2510 -0.3088  0.1223
36082POPS   GL278967   0.840  27.142   8.258  0.1397  0.0339 -0.1586
36082POPS   C1A78968   1.107  26.986   7.884 -0.0285  0.0675 -0.4127
36082POPS   D2A78969   0.851  26.771   7.542 -0.3075 -0.2034 -0.3451
36082POPS   C3A78970   0.788  26.681   7.127 -0.4288  0.0140  0.1499
36082POPS   C4A78971   0.562  26.724   6.732 -0.0580  0.2619 -0.1567
36082POPS   C1B78972   0.645  26.764   8.085 -0.1893 -0.1245 -0.0580
36082POPS   C2B78973   0.592  26.441   7.800  0.2349 -0.1967 -0.0945
36082POPS   C3B78974   0.590  26.316   7.377 -0.5019  0.0873 -0.2727
36082POPS   C4B78975   0.519  26.245   6.987 -0.3232  0.0256  0.0784
36083POPS   CNO78976   4.161  17.610  15.192 -0.0449  0.1444  0.1185
36083POPS   PO478977   4.043  17.921  15.377 -0.1404 -0.0601  0.0860
36083POPS   GL178978   4.154  18.115  15.719  0.1159  0.0588 -0.0419
36083POPS   GL278979   3.972  18.371  15.657 -0.1593  0.1053 -0.2286
36083POPS   C1A78980   4.526  18.075  15.981 -0.0414 -0.3874 -0.0537
36083POPS   D2A78981   4.911  18.148  16.213  0.3338 -0.5494  0.0872
36083POPS   C3A78982   5.125  18.521  16.414 -0.1738 -0.0533 -0.0000
36083POPS   C4A78983   5.154  18.993  16.345 -0.3243 -0.3450  0.1145
36083POPS   C1B78984   4.160  18.426  16.052  0.2017 -0.1625  0.0184
36083POPS   C2B78985   4.533  18.566  16.296 -0.0121 -0.1706  0.0682
36083POPS   C3B78986   4.757  18.766  16.625 -0.0027  0.0091  0.3369
36083POPS   C4B78987   5.123  18.927  16.847 -0.3974  0.1538 -0.1956
36084POPS   CNO78988  15.262  21.678  11.616 -0.2140 -0.0230  0.3726
36084POPS   PO478989  15.084  21.779  11.902 -0.1253  0.0089  0.1651
36084POPS   GL178990  14.700  21.902  11.858 -0.2419 -0.0334  0.0134
36084POPS   GL278991  14.625  22.149  11.688  0.0644 -0.0350  0.0743
36084POPS   C1A78992  14.223  21.868  11.743  0.1019 -0.4706 -0.1205
36084POPS   D2A78993  13.812  21.659  11.846 -0.0235 -0.2546  0.1063
36084POPS   C3A78994  13.410  21.839  11.943  0.1387 -0.2049  0.0399
36084POPS   C4A78995  13.046  22.057  12.046  0.2880 -0.2614  0.1511
36084POPS   C1B78996  14.284  22.376  11.484  0.0960  0.3051  0.2589
36084POPS   C2B78997  13.871  22.537  11.302  0.0371  0.2214 -0.1154
36084POPS   C3B78998  13.418  22.668  11.313 -0.0149  0.0107  0.1196
36084POPS   C4B78999  13.057  22.824  11.461 -0.0119 -0.0790 -0.1226
36085POPS   CNO79000   6.891  18.375  13.570  0.1965  0.1448 -0.3456
36085POPS   PO479001   6.940  18.086  13.802 -0.0365  0.0980  0.0491
36085POPS   GL179002   7.216  18.434  13.930  0.0527  0.2097 -0.0007
36085POPS   GL279003   7.072  18.716  13.919 -0.2121  0.2668  0.0538
36085POPS   C1A79004   7.450  18.589  14.316 -0.3423  0.0880  0.0536
36085POPS   D2A79005   7.472  18.930  14.645  0.1825  0.1981 -0.3441
36085POPS   C3A79006   7.845  19.209  14.718  0.1629  0.1931  0.0390
36085POPS   C4A79007   8.100  19.425  15.052 -0.1884  0.1557  0.0270
36085POPS   C1B79008   7.042  18.919  14.275  0.0140  0.0144  0.1885
36085POPS   C2B79009   7.000  19.328  14.435  0.0890 -0.0400  0.1645
36085POPS   C3B79010   7.269  19.618  14.771  0.1501  0.5441  0.1122
36085POPS   C4B79011   7.642  19.650  15.053 -0.0654  0.1179 -0.3131
36086POPS   CNO79012  13.506  27.123   9.986 -0.1630  0.2799 -0.5203
36086POPS   PO479013  13.584  27.193   9.665  0.4153  0.1043  0.5008
36086POPS   GL179014  13.610  27.017   9.253 -0.1093 -0.0143  0.4552
36086POPS   GL279015  13.466  27.175   9.053 -0.1629  0.1841 -0.2525
36086POPS   C1A79016  13.591  26.552   9.090  0.1286 -0.0371  0.2218
36086POPS   D2A79017  13.294  26.271   8.880 -0.1123  0.1204 -0.0085
36086POPS   C3A79018  13.016  26.471   8.620  0.1517 -0.1310  0.1591
36086POPS   C4A79019  12.980  26.256   8.249  0.2100  0.2594  0.2922
36086POPS   C1B79020  13.351  26.843   8.734 -0.2151 -0.1143 -0.0673
36086POPS   C2B79021  13.437  26.543   8.326 -0.1574  0.2346  0.0489
36086POPS   C3B79022  13.880  26.479   8.183  0.1429  0.1351 -0.0481
36086POPS   C4B79023  14.239  26.187   8.266  0.0077 -0.1429 -0.1745
36087POPS   CNO79024  15.699  21.314   9.954 -0.0527  0.0798  0.0533
36087POPS   PO479025  15.369  21.454   9.957 -0.0849 -0.1041 -0.0017
36087POPS   GL179026  15.008  21.431   9.896  0.2374 -0.0953 -0.2010
36087POPS   GL279027  14.830  21.616  10.039 -0.0306  0.0883  0.4624
36087POPS   C1A79028  14.883  21.312   9.423 -0.2217 -0.0082  0.1647
36087POPS   D2A79029  14.767  21.585   9.123  0.1299 -0.2633 -0.0111
36087POPS   C3A79030  14.923  21.512   8.718  0.1335  0.1457  0.1288
36087POPS   C4A79031  14.812  21.381   8.300  0.1519  0.4111 -0.1511
36087POPS   C1B79032  14.649  21.769   9.643 -0.1728 -0.0493 -0.3611
36087POPS   C2B79033  14.435  22.009   9.313  0.1954  0.0225 -0.0977
36087POPS   C3B79034  14.419  22.408   9.016  0.1741  0.0213  0.2610
36087POPS   C4B79035  14.213  22.627   8.623  0.1441  0.0164  0.1021
36088POPS   CNO79036  16.013  15.367   8.523 -0.0859 -0.3868  0.0094
36088POPS   PO479037  16.085  15.517   8.176  0.1335 -0.0705  0.1667
36088POPS   GL179038  15.913  15.749   7.899  0.0459 -0.6709  0.1435
36088POPS   GL279039  15.777  15.577   7.699 -0.0060  0.1784 -0.1760
36088POPS   C1A79040  15.838  16.194   7.872  0.0760 -0.1218  0.0701
36088POPS   D2A79041  15.684  16.660   7.914  0.1524  0.0048  0.3423
36088POPS   C3A79042  15.876  16.815   7.541 -0.0807 -0.1845 -0.0418
36088POPS   C4A79043  15.934  17.140   7.224  0.0778  0.1367 -0.0220
36088POPS   C1B79044  15.734  15.275   7.308  0.2310  0.0778  0.0940
36088POPS   C2B79045  15.787  15.230   6.839 -0.0511  0.0548 -0.1948
36088POPS   C3B79046  16.017  14.956   6.482  0.3872 -0.2034  0.0010
36088POPS   C4B79047  15.961  14.747   6.051 -0.0114 -0.3846  0.2024
36089POPS   CNO79048   0.125  26.092   9.198  0.0912 -0.3540  0.1979
36089POPS   PO479049   0.231  26.097   8.849 -0.0542 -0.0287  0.1498
36089POPS   GL179050   0.246  26.395   8.451 -0.0844  0.0309 -0.0013
36089POPS   GL279051   0.484  26.270   8.351 -0.1181 -0.0222  0.0596
36089POPS   C1A79052   0.178  26.593   8.033  0.0570  0.2759  0.1378
36089POPS   D2A79053   0.009  26.531   7.617 -0.4824  0.0616  0.0201
36089POPS   C3A79054  -0.282  26.292   7.362 -0.1924  0.0224  0.0944
36089POPS   C4A79055  -0.378  26.369   6.905  0.0436 -0.0145 -0.0377
36089POPS   C1B79056   0.487  25.955   8.032 -0.2685 -0.1549  0.3908
36089POPS   C2B79057   0.325  25.986   7.636  0.2302  0.1161  0.1330
36089POPS   C3B79058   0.085  25.933   7.229 -0.0864  0.0315  0.2073
36089POPS   C4B79059   0.071  25.953   6.754 -0.0766  0.1620  0.3849
36090POPS   CNO79060  15.178  21.783  10.321  0.2641  0.2556  0.0744
36090POPS   PO479061  15.007  21.906  10.618 -0.2288  0.0393 -0.3274
36090POPS   GL179062  14.701  21.750  10.586  0.3648 -0.0477 -0.1771
36090POPS   GL279063  14.800  21.455  10.689  0.2765 -0.0806 -0.0325
36090POPS   C1A79064  14.355  21.697  10.314 -0.0733  0.0271 -0.1089
36090POPS   D2A79065  13.995  21.643  10.057  0.0958  0.1810  0.0890
36090POPS   C3A79066  13.915  21.805   9.620 -0.2860 -0.0324  0.0366
36090POPS   C4A79067  13.935  22.012   9.185  0.1317  0.1025  0.0179
36090POPS   C1B79068  14.291  21.451  10.774 -0.0847 -0.3339 -0.0560
36090POPS   C2B79069  13.872  21.659  10.843 -0.1137 -0.0445 -0.0907
36090POPS   C3B79070  13.451  21.692  10.987 -0.4207 -0.2220 -0.2086
36090POPS   C4B79071  13.095  21.498  11.132  0.4352 -0.0752 -0.2379
36091POPS   CNO79072   2.873  28.035   8.440  0.0213  0.0409  0.0365
36091POPS   PO479073   2.965  28.324   8.247  0.1810 -0.0923 -0.0313
36091POPS   GL179074   2.920  28.306   7.870 -0.1581  0.2050  0.2438
36091POPS   GL279075   2.687  28.468   7.854  0.1954 -0.1054  0.5504
36091POPS   C1A79076   2.768  28.121   7.476 -0.2623  0.1239 -0.1196
36091POPS   D2A79077   2.750  28.157   6.949  0.0240  0.3595 -0.0590
36091POPS   C3A79078   2.533  28.109   6.581  0.0090  0.0643 -0.0980
36091POPS   C4A79079   2.393  28.113   6.104  0.1858 -0.1773  0.2035
36091POPS   C1B79080   2.341  28.343   7.589  0.0938  0.0274  0.2329
36091POPS   C2B79081   1.886  28.408   7.541 -0.3163  0.0326  0.0491
36091POPS   C3B79082   1.522  28.181   7.389  0.0526 -0.0285  0.2673
36091POPS   C4B79083   1.215  27.805   7.257  0.0754 -0.3959 -0.1918
36092POPS   CNO79084   1.447  23.814   9.446 -0.0257  0.0934  0.2042
36092POPS   PO479085   1.155  23.635   9.294  0.0852  0.0905  0.4621
36092POPS   GL179086   1.098  23.395   8.992 -0.2279  0.3230 -0.0914
36092POPS   GL279087   0.804  23.356   8.931 -0.1787 -0.0444 -0.1116
36092POPS   C1A79088   1.253  23.497   8.585  0.1464 -0.0680 -0.0169
36092POPS   D2A79089   1.249  23.415   8.143 -0.1480  0.1238 -0.0846
36092POPS   C3A79090   1.240  23.768   7.845  0.2322 -0.1709  0.3934
36092POPS   C4A79091   1.016  24.166   7.893  0.1370  0.1547  0.0505
36092POPS   C1B79092   0.751  23.267   8.458 -0.2027 -0.2238 -0.4632
36092POPS   C2B79093   0.429  23.175   8.124 -0.1460  0.3330  0.2438
36092POPS   C3B79094   0.005  23.211   7.892  0.2279 -0.0071 -0.0216
36092POPS   C4B79095  -0.290  23.436   7.644 -0.0900 -0.0652 -0.3202
36093POPS   CNO79096   2.388  27.242   8.298  0.0534  0.1171  0.0011
36093POPS   PO479097   2.601  27.540   8.278  0.1099 -0.0273  0.2246
36093POPS   GL179098   2.812  27.345   7.918 -0.1482 -0.2321 -0.3190
36093POPS   GL279099   2.591  27.235   7.805  0.2332  0.1983 -0.0247
36093POPS   C1A79100   2.972  27.677   7.628 -0.1181 -0.0725  0.1933
36093POPS   D2A79101   3.146  27.743   7.194  0.1923 -0.3192 -0.2646
36093POPS   C3A79102   3.296  27.502   6.792  0.2041 -0.1004 -0.0009
36093POPS   C4A79103   3.179  27.502   6.382 -0.3041  0.2227 -0.2701
36093POPS   C1B79104   2.404  27.174   7.370  0.0890 -0.0843 -0.0952
36093POPS   C2B79105   2.191  27.432   7.084  0.1886 -0.0214  0.1567
36093POPS   C3B79106   1.823  27.382   6.833 -0.0157 -0.0050  0.0776
36093POPS   C4B79107   1.611  26.968   6.838  0.1224  0.0563  0.0480
36094POPS   CNO79108   2.653  16.615   8.854  0.1548  0.1245 -0.0296
36094POPS   PO479109   2.990  16.796   8.738  0.0805  0.0304  0.2469
36094POPS   GL179110   2.955  16.995   8.446  0.1117 -0.2043 -0.2543
36094POPS   GL279111   2.690  16.879   8.237  0.1519 -0.0648 -0.0524
36094POPS   C1A79112   3.164  17.340   8.209 -0.1529 -0.0824  0.3365
36094POPS   D2A79113   3.175  17.661   7.894 -0.0289  0.0653  0.1178
36094POPS   C3A79114   3.133  17.511   7.453 -0.1432 -0.0716 -0.2118
36094POPS   C4A79115   3.123  17.136   7.257  0.2331 -0.1000  0.0821
36094POPS   C1B79116   2.967  16.703   7.930 -0.4290  0.0495 -0.0818
36094POPS   C2B79117   2.865  16.571   7.468  0.1976  0.0480  0.0989
36094POPS   C3B79118   2.490  16.522   7.206  0.0284  0.0088 -0.0963
36094POPS   C4B79119   2.348  16.754   6.830  0.2843 -0.1451  0.2376
36095POPS   CNO79120   5.546  25.245  11.734  0.1194 -0.2760  0.0772
36095POPS   PO479121   5.569  25.210  11.368  0.0955 -0.0086  0.2776
36095POPS   GL179122   5.806  25.006  11.121 -0.0766  0.0508  0.0186
36095POPS   GL279123   6.057  25.054  11.235 -0.1249 -0.1931  0.2503
36095POPS   C1A79124   6.005  24.662  10.904 -0.3659 -0.0535  0.0860
36095POPS   D2A79125   6.063  24.479  10.474  0.2943 -0.2081 -0.0992
36095POPS   C3A79126   6.392  24.411  10.114 -0.1896  0.0767 -0.1356
36095POPS   C4A79127   6.733  24.515   9.796  0.0266 -0.1975 -0.1823
36095POPS   C1B79128   6.441  24.819  11.090  0.1756  0.0657 -0.1565
36095POPS   C2B79129   6.753  24.557  11.380  0.0020 -0.1366 -0.1322
36095POPS   C3B79130   6.874  24.202  11.550  0.2783 -0.0418  0.2348
36095POPS   C4B79131   6.911  23.746  11.700  0.0041  0.0369 -0.1002
36096POPS   CNO79132   0.941  22.621   9.632 -0.2622  0.6403  0.3551
36096POPS   PO479133   0.694  22.576   9.340 -0.0738  0.2229 -0.2581
36096POPS   GL179134   0.611  22.569   8.906  0.0378 -0.1325  0.0862
36096POPS   GL279135   0.735  22.824   8.812 -0.4851  0.1187 -0.0132
36096POPS   C1A79136   0.210  22.454   8.672  0.0715 -0.1854  0.0574
36096POPS   D2A79137  -0.285  22.444   8.540  0.0207 -0.0562 -0.2575
36096POPS   C3A79138  -0.494  22.449   8.100 -0.1726  0.1922  0.1492
36096POPS   C4A79139  -0.689  22.575   7.754 -0.0006 -0.1515  0.0679
36096POPS   C1B79140   0.683  22.745   8.371  0.1161 -0.2350 -0.0615
36096POPS   C2B79141   0.525  22.740   7.914 -0.3165 -0.0423 -0.3572
36096POPS   C3B79142   0.213  22.826   7.514 -0.1272 -0.1555  0.1215
36096POPS   C4B79143   0.168  22.792   7.065 -0.1670 -0.0657  0.1245
36097POPS   CNO79144   0.296  25.447   9.545 -0.1491 -0.0701  0.3152
36097POPS   PO479145   0.238  25.120   9.412  0.0446  0.2737  0.2419
36097POPS   GL179146   0.066  24.982   9.102 -0.3647 -0.0391 -0.0020
36097POPS   GL279147  -0.011  25.214   9.004 -0.3040 -0.1405 -0.0044
36097POPS   C1A79148   0.125  24.680   8.774  0.4721  0.2958 -0.0702
36097POPS   D2A79149  -0.116  24.397   8.599  0.2490  0.0463  0.0585
36097POPS   C3A79150  -0.286  24.618   8.289 -0.0943 -0.0222  0.0159
36097POPS   C4A79151  -0.352  24.668   7.827  0.1268 -0.0246  0.0354
36097POPS   C1B79152   0.144  25.143   8.523  0.0606  0.0276  0.0547
36097POPS   C2B79153   0.146  24.810   8.257 -0.2793  0.0609  0.2781
36097POPS   C3B79154   0.061  24.317   8.154 -0.3516 -0.1833 -0.0171
36097POPS   C4B79155   0.035  24.274   7.656 -0.1747  0.3881 -0.1073
36098POPS   CNO79156  11.596  32.132   8.819 -0.2646  0.0004  0.3578
36098POPS   PO479157  11.610  32.006   8.469  0.1231  0.0057  0.1501
36098POPS   GL179158  11.712  32.161   8.122  0.3985  0.0065 -0.2766
36098POPS   GL279159  11.707  31.876   7.933  0.2315 -0.4253  0.0179
36098POPS   C1A79160  12.011  32.390   7.800  0.0560  0.1401 -0.3067
36098POPS   D2A79161  11.951  32.494   7.313  0.2266  0.0718 -0.1115
36098POPS   C3A79162  11.740  32.143   7.254  0.5517  0.2853 -0.0527
36098POPS   C4A79163  11.670  31.909   6.852  0.1220 -0.2104  0.0246
36098POPS   C1B79164  12.087  31.898   7.695 -0.2787  0.0650  0.1727
36098POPS   C2B79165  12.228  31.850   7.243  0.2022  0.0618 -0.1692
36098POPS   C3B79166  12.280  31.870   6.821  0.1536 -0.1112  0.1840
36098POPS   C4B79167  12.473  31.898   6.378  0.2581 -0.3618  0.1367
36099POPS   CNO79168   1.500  26.435   8.936 -0.2489 -0.0906  0.0325
36099POPS   PO479169   1.566  26.205   8.645 -0.0920 -0.1106 -0.2393
36099POPS   GL179170   1.789  26.235   8.206 -0.2810  0.0616 -0.1075
36099POPS   GL279171   1.469  26.249   8.070 -0.0062  0.0576 -0.0617
36099POPS   C1A79172   2.015  26.033   7.826 -0.2332 -0.0984 -0.0769
36099POPS   D2A79173   2.216  26.156   7.447 -0.2885  0.2350 -0.0191
36099POPS   C3A79174   2.335  25.939   7.109  0.2379 -0.2414 -0.0413
36099POPS   C4A79175   2.501  25.556   6.927 -0.1860 -0.2185 -0.1249
36099POPS   C1B79176   1.513  25.928   7.724 -0.0929 -0.2822  0.2522
36099POPS   C2B79177   1.327  25.758   7.315 -0.0866 -0.0718  0.0417
36099POPS   C3B79178   1.091  25.611   6.905  0.4205 -0.0107  0.1103
36099POPS   C4B79179   0.750  25.385   6.655  0.2101 -0.0965 -0.1363
36100POPS   CNO79180   6.095  31.659   9.069 -0.1908  0.3232  0.2704
36100POPS   PO479181   5.793  31.664   8.820 -0.1430  0.1878 -0.1695
36100POPS   GL179182   6.199  31.823   8.662 -0.1080  0.0254  0.4997
36100POPS   GL279183   6.085  31.612   8.399 -0.1763 -0.0220 -0.0384
36100POPS   C1A79184   6.172  32.091   8.291  0.2611 -0.3173  0.0353
36100POPS   D2A79185   5.989  32.377   7.960 -0.2470  0.0215  0.2828
36100POPS   C3A79186   6.135  32.104   7.676  0.0037 -0.0432 -0.0247
36100POPS   C4A79187   6.548  31.879   7.602 -0.1376 -0.0221  0.1284
36100POPS   C1B79188   6.146  31.648   7.915 -0.0143 -0.2772  0.1511
36100POPS   C2B79189   6.127  31.707   7.360  0.1246 -0.2510  0.0865
36100POPS   C3B79190   6.212  31.605   6.948  0.3695  0.0200  0.3315
36100POPS   C4B79191   6.535  31.555   6.651 -0.0815 -0.0770  0.0131
36101POPS   CNO79192   2.803  31.424   8.313  0.0248 -0.2569  0.1284
36101POPS   PO479193   2.852  31.813   8.312  0.0928 -0.0411 -0.2418
36101POPS   GL179194   2.529  31.886   7.996 -0.1742 -0.1502  0.0627
36101POPS   GL279195   2.700  32.131   7.875 -0.0556  0.0620 -0.1039
36101POPS   C1A79196   2.496  31.867   7.549  0.0660  0.2164  0.4281
36101POPS   D2A79197   2.501  31.945   7.089  0.1279  0.1239  0.2717
36101POPS   C3A79198   2.468  32.394   7.000  0.2307 -0.2161 -0.4167
36101POPS   C4A79199   2.642  32.688   6.756 -0.4449 -0.0708 -0.1419
36101POPS   C1B79200   2.934  32.112   7.465 -0.0282  0.0334  0.0873
36101POPS   C2B79201   2.953  32.201   7.004 -0.2894  0.0370 -0.1713
36101POPS   C3B79202   2.784  32.063   6.636  0.3172 -0.0505 -0.1204
36101POPS   C4B79203   2.563  32.112   6.184  0.0085 -0.0947 -0.0762
36102POPS   CNO79204  12.236  16.657  14.245  0.1441  0.1040  0.1277
36102POPS   PO479205  12.419  16.766  14.577 -0.0943  0.2482  0.0294
36102POPS   GL179206  12.249  17.116  14.782 -0.1460  0.2849  0.1161
36102POPS   GL279207  12.160  17.389  14.608  0.2160  0.2559 -0.1084
36102POPS   C1A79208  12.036  17.326  15.105  0.3380 -0.0404  0.1038
36102POPS   D2A79209  11.991  17.538  15.515  0.1410  0.4424  0.2448
36102POPS   C3A79210  11.669  17.881  15.659  0.1625 -0.0175 -0.0666
36102POPS   C4A79211  11.204  18.111  15.684 -0.1774 -0.0785  0.0840
36102POPS   C1B79212  12.302  17.651  14.924 -0.1423 -0.1884 -0.0324
36102POPS   C2B79213  12.250  18.008  15.210  0.0807  0.4075  0.1782
36102POPS   C3B79214  12.023  18.255  15.501 -0.0572  0.1774 -0.3341
36102POPS   C4B79215  11.987  18.546  15.922  0.0132  0.0353 -0.1230
36103POPS   CNO79216   8.568  21.791   8.345 -0.0789  0.2059 -0.2073
36103POPS   PO479217   8.307  21.587   8.270 -0.1426  0.1122 -0.0057
36103POPS   GL179218   8.188  21.368   8.399  0.1023  0.4233  0.1301
36103POPS   GL279219   7.884  21.427   8.438  0.0515 -0.2243  0.0423
36103POPS   C1A79220   8.053  20.971   8.409  0.1166 -0.0976  0.0781
36103POPS   D2A79221   7.639  20.939   8.477  0.1884 -0.1053 -0.2189
36103POPS   C3A79222   7.570  20.503   8.649  0.0302 -0.1838  0.1393
36103POPS   C4A79223   7.413  20.330   9.002  0.2805 -0.0206  0.0900
36103POPS   C1B79224   7.874  21.662   8.872  0.0068  0.0639  0.1999
36103POPS   C2B79225   7.763  21.629   9.309 -0.0190  0.0709  0.1412
36103POPS   C3B79226   7.489  21.795   9.645 -0.4033  0.1743  0.2696
36103POPS   C4B79227   7.168  21.697   9.921 -0.0492 -0.1561  0.0181
36104POPS   CNO79228  11.208  20.608   6.782 -0.0907  0.0835 -0.3238
36104POPS   PO479229  11.503  20.802   6.962  0.0726  0.0191 -0.0983
36104POPS   GL179230  11.549  20.479   7.315  0.0424  0.1786 -0.0371
36104POPS   GL279231  11.842  20.456   7.221  0.3034 -0.1156  0.0927
36104POPS   C1A79232  11.826  20.545   7.719  0.2165  0.0501 -0.0829
36104POPS   D2A79233  12.051  20.454   8.082 -0.0854 -0.0149 -0.1184
36104POPS   C3A79234  11.836  20.341   8.435  0.0494  0.0546  0.1774
36104POPS   C4A79235  11.839  20.601   8.816  0.1074  0.1316 -0.0817
36104POPS   C1B79236  11.750  20.051   7.497 -0.0469 -0.0181  0.2322
36104POPS   C2B79237  11.677  19.654   7.658  0.0223 -0.1075 -0.3044
36104POPS   C3B79238  11.676  19.193   7.801 -0.0413 -0.1124  0.0323
36104POPS   C4B79239  11.715  18.881   8.127 -0.1079  0.0521 -0.0310
36105POPS   CNO79240  14.161  18.451   4.419  0.0594  0.0484 -0.1148
36105POPS   PO479241  13.807  18.584   4.486 -0.1601  0.2807 -0.2190
36105POPS   GL179242  13.852  18.373   4.720 -0.5639 -0.0346 -0.2103
36105POPS   GL279243  13.960  18.082   4.723  0.2082  0.3450 -0.0493
36105POPS   C1A79244  14.008  18.432   5.155 -0.0688  0.2128 -0.2100
36105POPS   D2A79245  14.123  18.710   5.521 -0.0549 -0.1401  0.2639
36105POPS   C3A79246  14.057  18.488   5.961 -0.3990 -0.0665  0.3219
36105POPS   C4A79247  14.101  18.359   6.407 -0.1847 -0.1486 -0.0791
36105POPS   C1B79248  13.590  18.075   5.103 -0.0273  0.0301  0.0406
36105POPS   C2B79249  13.468  17.933   5.523  0.1497 -0.3710  0.1496
36105POPS   C3B79250  13.615  17.592   5.748 -0.0486 -0.0392 -0.1904
36105POPS   C4B79251  13.961  17.299   5.823  0.0566  0.2261 -0.2484
36106POPS   CNO79252   9.162  22.972   9.126 -0.1426 -0.2105  0.1093
36106POPS   PO479253   9.237  23.168   9.378  0.1475 -0.0194  0.2225
36106POPS   GL179254   9.057  23.458   9.692 -0.3249  0.3186  0.1261
36106POPS   GL279255   9.040  23.681   9.529  0.2028  0.2902 -0.2177
36106POPS   C1A79256   9.115  23.720  10.071 -0.1269 -0.0027 -0.1789
36106POPS   D2A79257   9.074  23.829  10.544 -0.3390 -0.0667 -0.1842
36106POPS   C3A79258   8.732  24.120  10.557 -0.0972 -0.0091  0.0437
36106POPS   C4A79259   8.392  24.421  10.485 -0.1082 -0.1986 -0.2021
36106POPS   C1B79260   9.168  24.061   9.756  0.2385  0.3901  0.0147
36106POPS   C2B79261   9.452  24.398   9.891  0.0223 -0.0395 -0.2299
36106POPS   C3B79262   9.478  24.652  10.295 -0.0036  0.0992 -0.0793
36106POPS   C4B79263   9.823  24.803  10.541  0.2048  0.1274 -0.1976
36107POPS   CNO79264  10.747  20.449   7.062 -0.0168 -0.1046  0.2055
36107POPS   PO479265  10.545  20.565   7.316  0.1180  0.3500 -0.1152
36107POPS   GL179266  10.492  20.178   7.417 -0.0190  0.0014  0.0845
36107POPS   GL279267  10.322  20.062   7.626  0.2280  0.2844  0.2030
36107POPS   C1A79268  10.784  19.842   7.257  0.1076 -0.0888  0.1147
36107POPS   D2A79269  11.041  19.516   7.159  0.0650  0.0241 -0.0009
36107POPS   C3A79270  11.161  19.406   7.605  0.0864 -0.0120  0.0554
36107POPS   C4A79271  10.979  19.302   8.064  0.1450 -0.3219  0.3857
36107POPS   C1B79272  10.689  19.832   7.816  0.2800  0.2026 -0.1058
36107POPS   C2B79273  10.540  19.495   8.123 -0.2049  0.3216 -0.1206
36107POPS   C3B79274  10.360  19.053   8.033 -0.0103  0.0424 -0.1369
36107POPS   C4B79275  10.381  18.672   8.308 -0.1337 -0.4410  0.1265
36108POPS   CNO79276  11.098  19.784   6.756 -0.0216  0.2361 -0.1929
36108POPS   PO479277  11.200  20.105   6.604  0.0177  0.0568  0.3168
36108POPS   GL179278  11.427  20.143   6.943  0.3463 -0.0535 -0.2242
36108POPS   GL279279  11.217  20.129   7.121 -0.0152 -0.0322 -0.1198
36108POPS   C1A79280  11.519  19.735   7.132 -0.1115  0.1671 -0.5483
36108POPS   D2A79281  11.692  19.324   7.279 -0.3662 -0.2831 -0.2182
36108POPS   C3A79282  11.674  18.878   7.404 -0.1774  0.1323  0.1936
36108POPS   C4A79283  11.392  18.534   7.435  0.1766 -0.1852 -0.3549
36108POPS   C1B79284  11.240  19.870   7.523 -0.2048 -0.1290  0.1500
36108POPS   C2B79285  11.184  19.760   7.946  0.0268  0.0857 -0.0623
36108POPS   C3B79286  10.932  19.713   8.343  0.2616  0.0593  0.2041
36108POPS   C4B79287  11.063  19.377   8.654  0.4611 -0.2487 -0.1085
36109POPS   CNO79288   8.522  20.592   6.933 -0.2039  0.0489  0.2516
36109POPS   PO479289   8.637  20.321   7.171  0.2545 -0.1201 -0.1121
36109POPS   GL179290   8.941  20.025   7.376 -0.1220 -0.2291  0.1115
36109POPS   GL279291   8.815  19.911   7.572 -0.1099  0.3515 -0.0789
36109POPS   C1A79292   9.205  19.687   7.399  0.3259 -0.2393 -0.0737
36109POPS   D2A79293   9.350  19.249   7.514 -0.2353  0.2075  0.0303
36109POPS   C3A79294   9.209  19.175   7.909  0.2649 -0.0120 -0.1866
36109POPS   C4A79295   9.209  18.917   8.281 -0.2950 -0.1902 -0.2693
36109POPS   C1B79296   8.560  19.864   8.005  0.2015 -0.0231  0.2935
36109POPS   C2B79297   8.328  19.793   8.406 -0.0528 -0.4157 -0.4719
36109POPS   C3B79298   8.296  19.937   8.832  0.0984  0.0658 -0.0359
36109POPS   C4B79299   8.392  19.762   9.242  0.0828  0.2788  0.0130
36110POPS   CNO79300   2.041  29.877   3.712  0.0031  0.2869  0.1297
36110POPS   PO479301   1.878  29.897   4.044  0.1714 -0.1925 -0.1668
36110POPS   GL179302   1.725  29.840   4.371 -0.1752 -0.0559 -0.3533
36110POPS   GL279303   1.706  30.157   4.494 -0.0666 -0.2461  0.1928
36110POPS   C1A79304   1.350  29.597   4.604 -0.0554 -0.0114  0.1056
36110POPS   D2A79305   0.943  29.541   4.789 -0.1438  0.1462 -0.0227
36110POPS   C3A79306   0.836  29.187   5.120  0.0899 -0.2110  0.1033
36110POPS   C4A79307   0.895  29.192   5.612 -0.0108 -0.1303 -0.1512
36110POPS   C1B79308   1.628  29.901   4.861  0.1630 -0.2649 -0.3298
36110POPS   C2B79309   1.405  30.001   5.268 -0.0355  0.3854  0.2585
36110POPS   C3B79310   1.022  30.007   5.534 -0.0398 -0.1475 -0.0383
36110POPS   C4B79311   0.832  30.110   5.911 -0.1282  0.0493 -0.2846
36111POPS   CNO79312   5.033  22.472   5.749  0.0620  0.3026  0.2062
36111POPS   PO479313   5.195  22.207   5.957 -0.0029 -0.0158  0.0302
36111POPS   GL179314   4.945  22.175   6.286  0.1944 -0.0977 -0.1547
36111POPS   GL279315   5.148  22.218   6.498  0.1515  0.0220  0.0764
36111POPS   C1A79316   4.876  21.782   6.554  0.0356 -0.1614 -0.1292
36111POPS   D2A79317   4.665  21.404   6.465 -0.2382  0.0813  0.1543
36111POPS   C3A79318   4.376  21.197   6.793  0.1560 -0.1867 -0.0836
36111POPS   C4A79319   3.953  21.055   7.008  0.0491 -0.3125  0.2152
36111POPS   C1B79320   5.092  22.037   6.940  0.1231  0.1447 -0.0282
36111POPS   C2B79321   5.285  21.632   7.097 -0.0319 -0.1100 -0.2881
36111POPS   C3B79322   5.120  21.353   7.417  0.1271  0.0040  0.2022
36111POPS   C4B79323   5.244  21.302   7.885 -0.2181 -0.1569  0.0293
36112POPS   CNO79324  11.828  28.942   4.303 -0.4739 -0.5733 -0.1088
36112POPS   PO479325  11.890  29.180   4.608  0.2807 -0.2467 -0.0860
36112POPS   GL179326  11.874  29.334   5.051 -0.1715 -0.4106  0.2832
36112POPS   GL279327  11.660  29.294   5.218  0.4781  0.2728  0.0743
36112POPS   C1A79328  12.027  29.696   5.259 -0.0080  0.0366  0.3387
36112POPS   D2A79329  12.268  29.787   5.682 -0.0114  0.1454  0.0135
36112POPS   C3A79330  12.023  29.676   6.046  0.2417  0.0746 -0.1431
36112POPS   C4A79331  11.979  29.331   6.357 -0.1248 -0.0099  0.2555
36112POPS   C1B79332  11.273  29.272   5.476 -0.1616 -0.1585  0.0371
36112POPS   C2B79333  11.108  29.230   5.874  0.1703  0.1293 -0.0207
36112POPS   C3B79334  11.018  29.123   6.329 -0.0389 -0.4120 -0.0819
36112POPS   C4B79335  11.013  28.826   6.675  0.1965 -0.0199  0.1779
36113POPS   CNO79336   2.116  31.512   3.560 -0.1061 -0.1042  0.1635
36113POPS   PO479337   2.106  31.744   3.829 -0.0864 -0.1485 -0.2553
36113POPS   GL179338   2.132  31.653   4.236 -0.1083 -0.1356  0.1474
36113POPS   GL279339   2.141  31.397   4.407  0.0382  0.1637 -0.0643
36113POPS   C1A79340   2.254  31.989   4.573 -0.0128  0.2845  0.2559
36113POPS   D2A79341   2.213  32.175   5.012 -0.0286 -0.2478 -0.1896
36113POPS   C3A79342   2.228  32.062   5.422 -0.1733  0.1318 -0.1458
36113POPS   C4A79343   2.167  32.106   5.854 -0.2139  0.4243  0.3204
36113POPS   C1B79344   2.231  31.594   4.845 -0.4124  0.1912 -0.0399
36113POPS   C2B79345   2.079  31.604   5.233 -0.1274 -0.3066  0.1112
36113POPS   C3B79346   1.916  31.594   5.630 -0.0644 -0.2354  0.0241
36113POPS   C4B79347   1.868  31.593   6.110 -0.0206 -0.1726 -0.2701
36114POPS   CNO79348   9.914  29.452   4.319  0.2660  0.1468 -0.0834
36114POPS   PO479349  10.309  29.434   4.325  0.0618 -0.0809 -0.1196
36114POPS   GL179350  10.484  29.620   4.593 -0.0649 -0.0833 -0.3071
36114POPS   GL279351  10.700  29.828   4.588  0.2366 -0.1731 -0.4294
36114POPS   C1A79352  10.473  29.778   5.050  0.0951  0.0328 -0.1804
36114POPS   D2A79353  10.302  30.142   5.249 -0.1199 -0.0663 -0.4886
36114POPS   C3A79354   9.978  30.178   5.562  0.2453  0.0093 -0.1488
36114POPS   C4A79355   9.793  30.300   5.971 -0.0111 -0.2931  0.0084
36114POPS   C1B79356  10.907  29.939   4.968  0.2079 -0.1901 -0.1744
36114POPS   C2B79357  10.915  30.353   5.184 -0.1302  0.1726  0.0228
36114POPS   C3B79358  11.113  30.640   5.565  0.0475 -0.1929  0.4271
36114POPS   C4B79359  11.121  30.776   5.994  0.0840  0.1240 -0.0421
36115POPS   CNO79360   9.733  21.816  10.986  0.0346  0.1067  0.1999
36115POPS   PO479361   9.701  21.627  11.299  0.0006  0.1693  0.2228
36115POPS   GL179362   9.417  21.474  11.258 -0.3227 -0.0411 -0.2320
36115POPS   GL279363   9.444  21.221  11.462 -0.0699 -0.1048  0.0203
36115POPS   C1A79364   8.976  21.487  11.444  0.4049  0.0074  0.0511
36115POPS   D2A79365   8.598  21.457  11.651  0.0292  0.1088 -0.0747
36115POPS   C3A79366   8.450  20.970  11.662 -0.0037 -0.1482  0.0314
36115POPS   C4A79367   8.280  20.594  11.664 -0.2635  0.0944  0.0401
36115POPS   C1B79368   9.647  20.842  11.355  0.2966 -0.3069  0.4640
36115POPS   C2B79369   9.563  20.505  11.048  0.0887 -0.0010  0.2646
36115POPS   C3B79370   9.465  20.073  10.944 -0.1782  0.0057 -0.0379
36115POPS   C4B79371   9.230  19.643  10.784  0.0956  0.0580  0.1545
36116POPS   CNO79372   3.522  26.809   3.820 -0.2341 -0.2172 -0.0194
36116POPS   PO479373   3.379  27.115   4.050  0.1622 -0.3812 -0.0307
36116POPS   GL179374   3.349  27.260   4.431 -0.0709  0.2369 -0.4225
36116POPS   GL279375   3.524  27.472   4.497 -0.0577  0.0691  0.2385
36116POPS   C1A79376   2.954  27.351   4.681  0.1023  0.1302 -0.2157
36116POPS   D2A79377   2.918  27.536   5.105  0.1136 -0.1896 -0.1223
36116POPS   C3A79378   2.658  27.781   5.361 -0.3400 -0.1133  0.0121
36116POPS   C4A79379   2.422  27.727   5.729  0.1017  0.3582  0.2737
36116POPS   C1B79380   3.448  27.312   4.913  0.2922  0.0286 -0.1363
36116POPS   C2B79381   3.315  27.232   5.337 -0.1396 -0.3436  0.0963
36116POPS   C3B79382   3.135  27.239   5.734  0.1997  0.0565  0.3369
36116POPS   C4B79383   3.072  27.055   6.132 -0.1615  0.3057  0.0294
36117POPS   CNO79384   1.610  31.526   3.739 -0.0629  0.2385  0.2458
36117POPS   PO479385   1.476  31.218   3.785  0.2169  0.1460 -0.1006
36117POPS   GL179386   1.589  31.189   4.141  0.3016 -0.2524 -0.2949
36117POPS   GL279387   1.718  31.473   4.191 -0.2250 -0.1981  0.3140
36117POPS   C1A79388   1.624  31.222   4.611  0.0647  0.0707  0.1229
36117POPS   D2A79389   1.940  31.189   4.955 -0.0234 -0.0032  0.2477
36117POPS   C3A79390   1.704  30.923   5.273  0.1619  0.4231 -0.0376
36117POPS   C4A79391   1.778  30.594   5.559  0.5228  0.0310  0.1130
36117POPS   C1B79392   1.797  31.692   4.624 -0.0512 -0.3267 -0.0361
36117POPS   C2B79393   1.815  31.902   5.031 -0.1028 -0.0358 -0.0970
36117POPS   C3B79394   1.651  32.000   5.463 -0.0616  0.1283 -0.1568
36117POPS   C4B79395   1.556  31.923   5.907 -0.1008  0.1659  0.0565
36118POPS   CNO79396  13.262  23.469   6.269 -0.0579  0.4113 -0.0169
36118POPS   PO479397  13.116  23.370   6.563 -0.4960 -0.1480  0.0368
36118POPS   GL179398  13.167  23.552   6.929  0.1011 -0.0166 -0.1178
36118POPS   GL279399  13.060  23.365   7.072  0.2412 -0.1227  0.2095
36118POPS   C1A79400  13.529  23.824   7.096  0.2072  0.1496 -0.2292
36118POPS   D2A79401  13.469  23.955   7.535  0.1181 -0.2089 -0.3751
36118POPS   C3A79402  13.843  23.995   7.770 -0.0444  0.3365  0.1804
36118POPS   C4A79403  14.246  23.997   8.027 -0.3021 -0.2146  0.1123
36118POPS   C1B79404  13.407  23.405   7.382 -0.2564 -0.0408  0.0232
36118POPS   C2B79405  13.685  23.486   7.713 -0.2470 -0.1330  0.0836
36118POPS   C3B79406  13.940  23.564   8.076 -0.2312 -0.1354  0.0160
36118POPS   C4B79407  13.974  23.778   8.456  0.2768 -0.3495  0.2658
36119POPS   CNO79408   9.840  22.297  11.557 -0.4354  0.2677 -0.0071
36119POPS   PO479409   9.581  22.110  11.394 -0.1240  0.3384 -0.1761
36119POPS   GL179410   9.323  21.939  11.605 -0.0963 -0.2121 -0.1054
36119POPS   GL279411   9.310  21.720  11.692  0.0789  0.0975  0.0031
36119POPS   C1A79412   8.868  21.973  11.547 -0.2094  0.2083 -0.0636
36119POPS   D2A79413   8.633  21.980  11.173 -0.0459 -0.0576 -0.2010
36119POPS   C3A79414   8.334  21.622  11.196  0.0638 -0.4119 -0.2036
36119POPS   C4A79415   7.873  21.669  11.185  0.2051 -0.1124  0.1221
36119POPS   C1B79416   9.265  21.354  11.914  0.0702  0.2927  0.0007
36119POPS   C2B79417   9.237  20.895  11.961 -0.1372 -0.0520 -0.3651
36119POPS   C3B79418   9.133  20.429  12.110  0.0267  0.2519 -0.1191
36119POPS   C4B79419   8.887  20.273  12.507 -0.0621 -0.1201 -0.2826
36120POPS   CNO79420  15.107  20.056   4.573 -0.0861 -0.0440 -0.1255
36120POPS   PO479421  15.351  20.067   4.889  0.1643  0.1361  0.3081
36120POPS   GL179422  15.554  19.949   5.231  0.5176 -0.0363  0.1451
36120POPS   GL279423  15.675  19.659   5.215 -0.0989 -0.2253  0.2342
36120POPS   C1A79424  15.600  20.151   5.620 -0.2166 -0.0250 -0.0579
36120POPS   D2A79425  15.984  20.221   5.940  0.1625 -0.2074  0.2369
36120POPS   C3A79426  16.150  19.856   6.126  0.0406  0.1223 -0.0480
36120POPS   C4A79427  16.347  19.685   6.482  0.1260  0.0412 -0.0906
36120POPS   C1B79428  15.303  19.708   5.518 -0.1285 -0.1937  0.0374
36120POPS   C2B79429  15.113  19.546   5.908  0.0633 -0.4154  0.1030
36120POPS   C3B79430  14.992  19.776   6.313 -0.0287  0.1790  0.0728
36120POPS   C4B79431  14.825  19.947   6.668 -0.0452  0.0537  0.1639
36121POPS   CNO79432   5.492  20.941   6.235 -0.0544 -0.0438  0.0716
36121POPS   PO479433   5.203  20.828   6.057 -0.0740 -0.0659  0.2145
36121POPS   GL179434   5.099  20.861   6.424 -0.2320  0.1644 -0.1798
36121POPS   GL279435   5.183  20.678   6.611 -0.3230 -0.0533  0.2259
36121POPS   C1A79436   4.696  20.775   6.649 -0.1008  0.2441  0.0227
36121POPS   D2A79437   4.602  20.613   7.018  0.2087 -0.2584  0.1009
36121POPS   C3A79438   4.316  20.870   7.331  0.0574  0.1876  0.0332
36121POPS   C4A79439   4.421  20.988   7.754 -0.1578  0.1287 -0.0102
36121POPS   C1B79440   4.987  20.250   6.731  0.3281  0.0972  0.1277
36121POPS   C2B79441   4.776  19.941   6.979 -0.1382 -0.1476 -0.1597
36121POPS   C3B79442   4.567  19.693   7.325  0.2032 -0.3992 -0.0059
36121POPS   C4B79443   4.178  19.488   7.435 -0.0523  0.0836  0.2397
36122POPS   CNO79444   0.919  23.512   4.586  0.1650 -0.0917  0.2817
36122POPS   PO479445   0.727  23.412   4.869 -0.0915  0.1299  0.0261
36122POPS   GL179446   0.901  23.408   5.268  0.1048  0.0089  0.0960
36122POPS   GL279447   0.785  23.167   5.353 -0.1562  0.0716 -0.3693
36122POPS   C1A79448   0.904  23.715   5.604 -0.0142 -0.0960 -0.0082
36122POPS   D2A79449   0.976  23.804   6.088  0.0449 -0.0766 -0.0595
36122POPS   C3A79450   1.299  24.090   6.257 -0.0859 -0.3596 -0.5256
36122POPS   C4A79451   1.380  24.515   6.425 -0.2705  0.2206  0.2059
36122POPS   C1B79452   1.046  23.187   5.720 -0.2425 -0.0808  0.3195
36122POPS   C2B79453   0.959  23.286   6.127  0.0509 -0.1461  0.3296
36122POPS   C3B79454   1.111  23.464   6.519  0.0179 -0.1344 -0.3084
36122POPS   C4B79455   0.969  23.461   6.954  0.1845  0.0833 -0.2218
36123POPS   CNO79456   0.378  31.649   3.524 -0.3696 -0.0742 -0.0945
36123POPS   PO479457   0.081  31.678   3.779 -0.0267  0.0158  0.0849
36123POPS   GL179458   0.161  31.655   4.204  0.0123 -0.2451  0.4495
36123POPS   GL279459   0.157  31.911   4.295  0.0177 -0.2492  0.1701
36123POPS   C1A79460   0.174  31.440   4.644 -0.5211  0.1737 -0.1075
36123POPS   D2A79461   0.146  31.172   5.024 -0.2237 -0.2844 -0.3054
36123POPS   C3A79462   0.105  31.463   5.366 -0.2875  0.1449 -0.0896
36123POPS   C4A79463   0.000  31.581   5.816  0.3204 -0.0862 -0.0435
36123POPS   C1B79464   0.402  31.860   4.647  0.0831 -0.1185 -0.3163
36123POPS   C2B79465   0.510  31.519   4.953 -0.0047 -0.1041  0.1088
36123POPS   C3B79466   0.530  31.324   5.330 -0.0843  0.1140  0.0014
36123POPS   C4B79467   0.435  31.141   5.695  0.0754 -0.3961  0.1312
36124POPS   CNO79468   7.726  21.530   7.553  0.0744 -0.0248  0.0820
36124POPS   PO479469   7.556  21.581   7.873 -0.1583 -0.2058 -0.1775
36124POPS   GL179470   7.409  21.572   8.238 -0.2171  0.0340 -0.3750
36124POPS   GL279471   7.305  21.275   8.279  0.1161 -0.2799 -0.1673
36124POPS   C1A79472   7.139  21.894   8.372 -0.0121 -0.0970 -0.2461
36124POPS   D2A79473   6.880  22.155   8.684 -0.1114 -0.2129  0.0908
36124POPS   C3A79474   6.723  21.933   9.097  0.0279 -0.1458 -0.1127
36124POPS   C4A79475   6.948  21.744   9.458  0.0879  0.1795  0.1795
36124POPS   C1B79476   6.955  21.464   8.488  0.1374  0.0903  0.0908
36124POPS   C2B79477   6.638  21.773   8.392  0.0050  0.1428  0.2128
36124POPS   C3B79478   6.424  22.089   8.672  0.2285  0.4806  0.1124
36124POPS   C4B79479   6.161  22.212   9.022  0.1148 -0.2713 -0.0908
36125POPS   CNO79480  11.732  26.703   5.707  0.1546  0.2549 -0.0040
36125POPS   PO479481  11.428  26.589   5.827  0.1877  0.0676  0.2338
36125POPS   GL179482  11.244  26.970   5.995  0.5756 -0.2131  0.4115
36125POPS   GL279483  10.998  26.945   6.053  0.0056 -0.1452 -0.0721
36125POPS   C1A79484  11.480  27.377   5.983 -0.1277  0.1149  0.0849
36125POPS   D2A79485  11.848  27.672   6.089  0.1829  0.0742  0.0677
36125POPS   C3A79486  11.915  27.495   6.539 -0.1105 -0.1176  0.2332
36125POPS   C4A79487  11.816  27.715   6.925 -0.3652 -0.2480 -0.0570
36125POPS   C1B79488  10.997  27.219   6.462  0.1372 -0.0384  0.2429
36125POPS   C2B79489  10.905  27.402   6.856 -0.0361 -0.3448 -0.2030
36125POPS   C3B79490  10.698  27.625   7.208 -0.2857  0.0000 -0.1283
36125POPS   C4B79491  10.681  27.858   7.641 -0.1151 -0.1830 -0.0725
36126POPS   CNO79492   5.310  31.678   4.462  0.1730 -0.0479 -0.0041
36126POPS   PO479493   5.691  31.630   4.391  0.0442 -0.1531 -0.0755
36126POPS   GL179494   5.733  31.539   4.757  0.1072 -0.3596 -0.1387
36126POPS   GL279495   5.790  31.326   4.924  0.0220 -0.1277  0.1672
36126POPS   C1A79496   5.493  31.616   5.151 -0.1814  0.0902 -0.0828
36126POPS   D2A79497   5.291  31.344   5.529  0.1865 -0.0066 -0.2179
36126POPS   C3A79498   5.287  31.612   5.869 -0.1164 -0.0502 -0.1226
36126POPS   C4A79499   5.418  31.903   6.205  0.1940 -0.2881  0.3030
36126POPS   C1B79500   5.978  31.270   5.348  0.1050 -0.0038  0.0070
36126POPS   C2B79501   6.217  31.048   5.674  0.2051  0.0066  0.0708
36126POPS   C3B79502   6.559  31.011   5.953 -0.0333 -0.0601 -0.2286
36126POPS   C4B79503   6.582  31.025   6.414  0.0077  0.2417 -0.1737
36127POPS   CNO79504   8.240  27.209   5.632  0.2968  0.2319 -0.1810
36127POPS   PO479505   8.522  27.039   5.750 -0.2411  0.2283  0.1154
36127POPS   GL179506   8.457  27.270   6.132  0.1848 -0.0614  0.5039
36127POPS   GL279507   8.320  27.056   6.291 -0.0740 -0.0823 -0.1505
36127POPS   C1A79508   8.629  27.492   6.493 -0.2001  0.1858 -0.0888
36127POPS   D2A79509   8.606  27.671   6.883 -0.1330 -0.1048 -0.2223
36127POPS   C3A79510   8.479  28.025   7.113  0.0161 -0.1381 -0.4727
36127POPS   C4A79511   8.340  28.197   7.541 -0.0529  0.2609  0.0123
36127POPS   C1B79512   8.324  27.232   6.757 -0.0863 -0.0574  0.2839
36127POPS   C2B79513   8.378  27.323   7.176  0.3219  0.1361  0.2741
36127POPS   C3B79514   8.320  27.289   7.639 -0.0672 -0.1429  0.1943
36127POPS   C4B79515   7.915  27.390   7.814 -0.0072  0.2377  0.3244
36128POPS   CNO79516  10.985  22.806  10.179  0.0472  0.1281  0.1062
36128POPS   PO479517  11.141  22.539   9.926  0.1062 -0.2104  0.1646
36128POPS   GL179518  11.507  22.672   9.846  0.1952 -0.0509 -0.3238
36128POPS   GL279519  11.615  22.571   9.623  0.2726  0.1013  0.2808
36128POPS   C1A79520  11.674  23.099   9.866  0.0293  0.1140  0.4544
36128POPS   D2A79521  11.840  23.202  10.257 -0.3433  0.3537  0.0851
36128POPS   C3A79522  12.203  23.486  10.327 -0.1552  0.1178  0.0342
36128POPS   C4A79523  12.596  23.764  10.308  0.1839 -0.0240 -0.4434
36128POPS   C1B79524  11.941  22.673   9.977  0.1720  0.0925  0.2394
36128POPS   C2B79525  12.279  22.709  10.270 -0.0221 -0.0354  0.0176
36128POPS   C3B79526  12.570  22.525  10.561 -0.2693 -0.0234 -0.0880
36128POPS   C4B79527  12.634  22.068  10.630  0.1728  0.0185  0.0487
36129POPS   CNO79528   2.810  30.410   3.984  0.2022  0.3107  0.1062
36129POPS   PO479529   2.557  30.619   3.781 -0.0425 -0.1262 -0.1013
36129POPS   GL179530   2.284  30.744   4.020  0.0304  0.0267  0.2433
36129POPS   GL279531   2.403  31.009   4.224  0.0517  0.2220  0.0215
36129POPS   C1A79532   2.242  30.477   4.349  0.0221  0.0751 -0.1367
36129POPS   D2A79533   2.152  30.291   4.815 -0.0947  0.1524  0.0652
36129POPS   C3A79534   2.131  29.843   4.860  0.0797 -0.1859 -0.2531
36129POPS   C4A79535   2.189  29.516   5.226  0.1001  0.1386 -0.0802
36129POPS   C1B79536   2.349  30.968   4.653 -0.0290  0.0604 -0.2717
36129POPS   C2B79537   2.371  31.069   5.166  0.1763  0.1886 -0.3356
36129POPS   C3B79538   2.107  31.095   5.534 -0.0400  0.0577  0.0749
36129POPS   C4B79539   1.727  31.090   5.734 -0.4219  0.1202  0.1041
36130POPS   CNO79540  12.310  24.885   5.992  0.0172  0.0160  0.0187
36130POPS   PO479541  11.984  24.919   6.171  0.2139  0.0838  0.3545
36130POPS   GL179542  12.147  25.162   6.531  0.4174  0.0801  0.2191
36130POPS   GL279543  12.402  25.067   6.438  0.2718 -0.2539  0.1131
36130POPS   C1A79544  12.062  25.523   6.785  0.0625  0.0556 -0.0832
36130POPS   D2A79545  12.165  25.719   7.219  0.0138 -0.1804  0.0687
36130POPS   C3A79546  11.872  25.513   7.528  0.0456  0.0973 -0.1287
36130POPS   C4A79547  11.826  25.536   7.967  0.1406 -0.0278 -0.1102
36130POPS   C1B79548  12.379  25.133   6.899  0.0900  0.0855 -0.2794
36130POPS   C2B79549  12.493  25.369   7.296 -0.0897 -0.1508 -0.1178
36130POPS   C3B79550  12.367  25.677   7.643  0.0420 -0.0099 -0.0647
36130POPS   C4B79551  12.008  26.000   7.761 -0.2015 -0.1374  0.0561
36131POPS   CNO79552   4.221  29.054   4.314  0.0311  0.2342  0.1655
36131POPS   PO479553   3.910  29.239   4.239  0.1622  0.0376 -0.2176
36131POPS   GL179554   3.859  29.326   4.637 -0.2339 -0.3273  0.1417
36131POPS   GL279555   3.637  29.150   4.763  0.0129  0.0062  0.0175
36131POPS   C1A79556   3.861  29.508   5.131  0.0526  0.0061  0.0108
36131POPS   D2A79557   3.981  29.609   5.604 -0.2209  0.0472 -0.0676
36131POPS   C3A79558   3.786  29.760   5.988 -0.1398  0.0540 -0.2851
36131POPS   C4A79559   3.861  29.791   6.429 -0.0541 -0.2553 -0.0653
36131POPS   C1B79560   3.507  29.646   4.822 -0.3382 -0.1348  0.0545
36131POPS   C2B79561   3.216  30.001   4.844  0.1240  0.1643 -0.0311
36131POPS   C3B79562   2.901  30.342   4.905 -0.3894 -0.4294 -0.0256
36131POPS   C4B79563   2.523  30.604   4.899  0.3481  0.0284  0.0998
36132POPS   CNO79564   1.339  18.631   4.614  0.0262 -0.0030  0.1875
36132POPS   PO479565   1.660  18.536   4.768  0.0450 -0.0338  0.0583
36132POPS   GL179566   1.942  18.618   5.109 -0.0145  0.0749  0.1448
36132POPS   GL279567   1.735  18.795   5.249  0.1743  0.0141  0.0158
36132POPS   C1A79568   2.021  18.435   5.538 -0.1123  0.0780 -0.1623
36132POPS   D2A79569   2.238  18.027   5.715 -0.1841 -0.2631 -0.0471
36132POPS   C3A79570   2.095  17.639   5.856  0.1001 -0.1339 -0.3099
36132POPS   C4A79571   1.696  17.374   5.917 -0.0897  0.2815  0.0564
36132POPS   C1B79572   1.547  18.955   5.679 -0.3832 -0.0205 -0.0312
36132POPS   C2B79573   1.595  18.982   6.141  0.0976  0.1959  0.0815
36132POPS   C3B79574   1.614  18.748   6.583 -0.1456 -0.0480 -0.2710
36132POPS   C4B79575   1.669  18.947   7.040 -0.0229 -0.0264 -0.4192
36133POPS   CNO79576   0.437  20.341   4.715  0.0483  0.0429  0.1803
36133POPS   PO479577   0.470  20.522   5.065 -0.0769  0.2434  0.2068
36133POPS   GL179578   0.632  20.309   5.378  0.1800 -0.0441 -0.0757
36133POPS   GL279579   0.857  20.522   5.514  0.0044  0.0817 -0.0027
36133POPS   C1A79580   0.594  19.960   5.670  0.2036 -0.2456  0.0638
36133POPS   D2A79581   0.630  19.667   5.958  0.1615 -0.1627 -0.0299
36133POPS   C3A79582   0.357  19.501   6.239  0.3032  0.2355 -0.0908
36133POPS   C4A79583   0.346  19.413   6.661 -0.0839  0.1413  0.3181
36133POPS   C1B79584   0.815  20.636   5.940 -0.0173 -0.2606  0.2363
36133POPS   C2B79585   0.600  20.857   6.201 -0.1623  0.3351  0.0605
36133POPS   C3B79586   0.364  20.555   6.490 -0.0036 -0.3575  0.0244
36133POPS   C4B79587   0.374  20.259   6.854 -0.0549 -0.3782 -0.3364
36134POPS   CNO79588   4.103  21.583   5.987  0.4617 -0.0839 -0.2325
36134POPS   PO479589   4.014  21.224   5.829 -0.2825  0.1320 -0.1127
36134POPS   GL179590   4.266  21.016   6.074  0.2853 -0.0584  0.0053
36134POPS   GL279591   4.305  21.256   6.231  0.0830 -0.2263  0.0814
36134POPS   C1A79592   4.234  20.834   6.483 -0.1465 -0.4096 -0.0253
36134POPS   D2A79593   4.127  20.626   6.888  0.0855 -0.0367 -0.0605
36134POPS   C3A79594   3.829  20.572   7.219 -0.2499  0.1088  0.2059
36134POPS   C4A79595   3.390  20.534   7.390  0.0143 -0.1159 -0.0125
36134POPS   C1B79596   3.898  21.242   6.485  0.1129  0.0386  0.1018
36134POPS   C2B79597   3.520  21.203   6.772  0.0668 -0.2585 -0.1369
36134POPS   C3B79598   3.504  21.124   7.249 -0.0098  0.0313 -0.2546
36134POPS   C4B79599   3.895  21.071   7.535 -0.2647  0.0614 -0.1045
36135POPS   CNO79600  10.076  24.747   7.731 -0.1208  0.0685 -0.2331
36135POPS   PO479601  10.418  24.810   7.588  0.1837  0.0201 -0.1028
36135POPS   GL179602  10.835  24.944   7.784  0.3301  0.0177  0.1413
36135POPS   GL279603  11.161  24.823   7.802  0.2123  0.1840 -0.0030
36135POPS   C1A79604  10.906  25.060   8.246 -0.1248  0.0937  0.1540
36135POPS   D2A79605  10.598  25.229   8.548 -0.3789  0.0746 -0.2284
36135POPS   C3A79606  10.912  25.265   8.850 -0.0729  0.0229  0.2698
36135POPS   C4A79607  11.157  25.346   9.209  0.1070 -0.3636  0.1388
36135POPS   C1B79608  11.491  24.641   8.143  0.0044 -0.1372  0.0872
36135POPS   C2B79609  11.738  24.733   8.478  0.2465  0.3419  0.1556
36135POPS   C3B79610  11.975  24.992   8.814  0.0471 -0.3164 -0.2689
36135POPS   C4B79611  12.034  25.004   9.251 -0.0205 -0.0058 -0.2919
36136POPS   CNO79612   7.414  25.203   6.346  0.2601  0.0565 -0.0963
36136POPS   PO479613   7.110  25.371   6.515  0.1318 -0.2266  0.2514
36136POPS   GL179614   6.992  25.495   6.947  0.0590  0.2581 -0.1624
36136POPS   GL279615   6.817  25.293   6.969  0.0355 -0.0344 -0.0150
36136POPS   C1A79616   7.036  25.964   7.011  0.1308  0.0582 -0.0585
36136POPS   D2A79617   6.696  26.289   6.854 -0.4232  0.2284 -0.1238
36136POPS   C3A79618   6.723  26.673   7.099 -0.0631  0.0815  0.0319
36136POPS   C4A79619   6.594  27.116   7.091  0.2889 -0.1931  0.0359
36136POPS   C1B79620   6.737  25.299   7.440 -0.1653  0.0619  0.0766
36136POPS   C2B79621   6.634  25.570   7.788 -0.0648  0.1220 -0.1202
36136POPS   C3B79622   6.645  25.693   8.240 -0.0041  0.3966 -0.1881
36136POPS   C4B79623   6.988  25.492   8.317 -0.0973 -0.0854  0.2130
36137POPS   CNO79624  16.341  24.608   5.383  0.0646  0.2902 -0.2386
36137POPS   PO479625  16.011  24.778   5.356  0.2309 -0.1811  0.3114
36137POPS   GL179626  16.016  25.001   5.678  0.1589  0.0055 -0.0337
36137POPS   GL279627  16.212  24.934   5.841 -0.1366 -0.3306 -0.1588
36137POPS   C1A79628  15.794  24.815   6.052 -0.4440  0.2803  0.3444
36137POPS   D2A79629  15.645  24.417   6.282  0.0240 -0.2988  0.4358
36137POPS   C3A79630  15.483  24.418   6.746 -0.1812 -0.0657 -0.0152
36137POPS   C4A79631  15.422  24.247   7.181 -0.1038 -0.2249  0.0678
36137POPS   C1B79632  16.566  25.245   5.797  0.1533  0.1142  0.1152
36137POPS   C2B79633  16.689  25.674   5.719  0.0014  0.2057  0.0415
36137POPS   C3B79634  16.948  25.907   6.010 -0.2640  0.0011  0.1061
36137POPS   C4B79635  17.272  25.801   6.341  0.0080 -0.2781 -0.1280
36138POPS   CNO79636   7.584  24.930   6.776  0.1292  0.1767 -0.2386
36138POPS   PO479637   7.252  25.059   6.990 -0.1047  0.1169  0.0226
36138POPS   GL179638   7.252  25.325   7.326  0.0218 -0.0981 -0.3053
36138POPS   GL279639   7.480  25.326   7.465 -0.1406  0.0522 -0.2803
36138POPS   C1A79640   7.012  25.729   7.406 -0.0109  0.0029 -0.2070
36138POPS   D2A79641   6.845  26.195   7.418 -0.0496  0.1629 -0.0336
36138POPS   C3A79642   6.667  26.562   7.691  0.3198 -0.0857 -0.3703
36138POPS   C4A79643   6.372  26.628   8.037 -0.0735  0.0960  0.3024
36138POPS   C1B79644   7.188  25.486   7.807  0.0815  0.1829 -0.2404
36138POPS   C2B79645   7.085  25.886   7.975  0.0229 -0.2111  0.2694
36138POPS   C3B79646   6.989  26.351   8.020 -0.0138 -0.0312  0.1669
36138POPS   C4B79647   6.789  26.513   8.365  0.0873 -0.1405  0.0287
36139POPS   CNO79648   0.776  19.911   4.421 -0.0404 -0.0819  0.1080
36139POPS   PO479649   0.792  19.899   4.819  0.1502  0.1878  0.0662
36139POPS   GL179650   0.632  19.922   5.193 -0.0566 -0.1876 -0.3292
36139POPS   GL279651   0.950  20.017   5.311 -0.0448  0.5705 -0.1949
36139POPS   C1A79652   0.263  19.694   5.340 -0.3003 -0.3215 -0.3606
36139POPS   D2A79653   0.165  19.697   5.801  0.4507 -0.0662  0.0111
36139POPS   C3A79654   0.019  20.144   5.772 -0.2298  0.0461 -0.4745
36139POPS   C4A79655  -0.068  20.566   5.698 -0.0848 -0.0236  0.0058
36139POPS   C1B79656   0.904  19.614   5.553  0.1510 -0.3200 -0.1622
36139POPS   C2B79657   0.747  19.224   5.704 -0.0480 -0.1406  0.1459
36139POPS   C3B79658   0.948  18.912   5.903 -0.2017  0.0018  0.0085
36139POPS   C4B79659   1.186  18.747   6.292  0.1020  0.3096  0.4154
36140POPS   CNO79660  10.360  22.766  11.349 -0.0201 -0.1951 -0.0261
36140POPS   PO479661  10.466  23.074  11.548 -0.1929 -0.0448  0.0358
36140POPS   GL179662  10.576  23.451  11.778  0.2781 -0.0473 -0.0419
36140POPS   GL279663  10.762  23.393  11.876 -0.0517 -0.0725 -0.0605
36140POPS   C1A79664  10.364  23.813  11.531  0.0758 -0.0293 -0.3569
36140POPS   D2A79665  10.112  24.109  11.775  0.0950 -0.1374  0.3385
36140POPS   C3A79666   9.955  24.548  11.736 -0.0101  0.1842 -0.0611
36140POPS   C4A79667   9.529  24.648  11.685  0.0336  0.1454 -0.1115
36140POPS   C1B79668  10.904  23.813  11.685 -0.0253 -0.2132  0.1957
36140POPS   C2B79669  11.125  24.244  11.519 -0.3580  0.0605  0.0135
36140POPS   C3B79670  11.044  24.696  11.458 -0.1800 -0.3747  0.2905
36140POPS   C4B79671  10.946  25.056  11.704  0.1878 -0.1195 -0.1079
36141POPS   CNO79672   5.114  26.618   4.831  0.1098 -0.0848 -0.2365
36141POPS   PO479673   4.902  26.894   4.942 -0.0510  0.1341 -0.0776
36141POPS   GL179674   4.588  26.932   5.245 -0.0500 -0.0409 -0.1036
36141POPS   GL279675   4.378  27.028   5.279  0.0914 -0.0306  0.0191
36141POPS   C1A79676   4.550  26.652   5.653 -0.1324 -0.0327  0.2387
36141POPS   D2A79677   4.420  26.450   6.044  0.4199 -0.0586  0.0898
36141POPS   C3A79678   4.304  26.745   6.432 -0.1167  0.0411  0.2599
36141POPS   C4A79679   4.490  26.801   6.845 -0.1525 -0.1194  0.1394
36141POPS   C1B79680   4.283  27.258   5.588 -0.1278  0.3425 -0.0952
36141POPS   C2B79681   4.218  27.730   5.789  0.2670  0.4862 -0.0233
36141POPS   C3B79682   4.046  28.042   6.077  0.0267 -0.1577 -0.2246
36141POPS   C4B79683   3.657  28.047   6.370  0.0851  0.2005  0.1909
36142POPS   CNO79684   9.421  23.398  10.437 -0.0914 -0.3437 -0.0752
36142POPS   PO479685   9.784  23.436  10.474  0.1800  0.1177 -0.1071
36142POPS   GL179686   9.831  23.724  10.781  0.2318 -0.0537  0.1738
36142POPS   GL279687   9.552  23.582  10.936  0.1232 -0.2109 -0.2145
36142POPS   C1A79688   9.788  24.153  10.878  0.2055  0.0074  0.1836
36142POPS   D2A79689   9.654  24.454  11.208  0.0837  0.0469  0.1822
36142POPS   C3A79690   9.713  24.886  11.050  0.2503  0.1164  0.3883
36142POPS   C4A79691  10.041  25.095  10.912 -0.1088 -0.1145  0.3159
36142POPS   C1B79692   9.317  23.906  11.089  0.0180  0.2643  0.2569
36142POPS   C2B79693   9.077  24.236  10.951  0.0795  0.0795 -0.1844
36142POPS   C3B79694   9.120  24.662  11.108  0.2882  0.2180 -0.0174
36142POPS   C4B79695   9.165  24.948  11.428 -0.1007 -0.1388  0.1363
36143POPS   CNO79696   7.566  29.399   4.621 -0.2201  0.2351 -0.0549
36143POPS   PO479697   7.255  29.168   4.500  0.0878 -0.0873  0.0009
36143POPS   GL179698   7.172  29.196   4.863  0.0245 -0.2592 -0.0243
36143POPS   GL279699   7.190  29.452   5.020  0.1198 -0.0118 -0.2812
36143POPS   C1A79700   6.734  29.343   5.045  0.1675 -0.0742 -0.0151
36143POPS   D2A79701   6.479  29.255   5.391  0.3006  0.2737  0.0493
36143POPS   C3A79702   6.031  29.278   5.526  0.0186 -0.2297  0.2388
36143POPS   C4A79703   5.673  28.939   5.482 -0.1947 -0.1857  0.1926
36143POPS   C1B79704   7.134  29.768   5.377 -0.2667 -0.0980 -0.1681
36143POPS   C2B79705   7.248  29.823   5.826 -0.1003 -0.0154 -0.2729
36143POPS   C3B79706   7.156  29.881   6.325  0.0055 -0.1032 -0.0873
36143POPS   C4B79707   6.946  29.702   6.696 -0.0754 -0.2811  0.0186
36144POPS   CNO79708   5.811  29.385   4.263 -0.2699  0.1784 -0.1903
36144POPS   PO479709   5.655  29.688   4.432  0.2240  0.1134 -0.2649
36144POPS   GL179710   5.680  29.865   4.805 -0.1318  0.0072  0.3593
36144POPS   GL279711   5.962  29.994   4.840 -0.3131 -0.0409  0.1283
36144POPS   C1A79712   5.431  29.973   5.162  0.0687  0.1762 -0.0608
36144POPS   D2A79713   5.482  29.717   5.581 -0.0943 -0.0290  0.3693
36144POPS   C3A79714   5.109  29.744   5.891  0.0012 -0.2377 -0.0605
36144POPS   C4A79715   4.855  29.610   6.224 -0.0340  0.0632 -0.3384
36144POPS   C1B79716   5.909  30.122   5.291  0.0667 -0.2545 -0.3579
36144POPS   C2B79717   5.776  30.243   5.738  0.2276  0.1013 -0.0296
36144POPS   C3B79718   5.702  30.487   6.156  0.1922 -0.0627  0.2546
36144POPS   C4B79719   5.565  30.411   6.609 -0.2510 -0.0631  0.1737
36145POPS   CNO79720  12.220  31.997   4.390 -0.1564  0.0002 -0.0658
36145POPS   PO479721  11.990  31.728   4.399 -0.1230 -0.0652  0.0027
36145POPS   GL179722  12.195  31.556   4.767 -0.0125  0.2404  0.1152
36145POPS   GL279723  12.226  31.820   4.865  0.2153 -0.2246  0.1445
36145POPS   C1A79724  12.408  31.173   4.717 -0.0666  0.4163  0.2363
36145POPS   D2A79725  12.652  30.887   5.004 -0.0941  0.2014 -0.2741
36145POPS   C3A79726  12.675  31.101   5.420  0.1110 -0.1207  0.3354
36145POPS   C4A79727  12.612  30.887   5.789 -0.0511  0.1985 -0.2399
36145POPS   C1B79728  12.013  31.896   5.287  0.0322  0.1099  0.2432
36145POPS   C2B79729  11.819  31.691   5.667 -0.0413 -0.1240 -0.0745
36145POPS   C3B79730  11.900  31.483   6.069 -0.1074 -0.0881 -0.2615
36145POPS   C4B79731  11.980  31.489   6.539  0.0018  0.0982 -0.0046
36146POPS   CNO79732  12.615  27.874   4.499 -0.0839 -0.1900  0.2673
36146POPS   PO479733  12.629  27.536   4.709  0.1087  0.3808 -0.1919
36146POPS   GL179734  12.705  27.717   4.964  0.0517 -0.0965 -0.3052
36146POPS   GL279735  12.812  27.957   4.968  0.1448 -0.0000 -0.0107
36146POPS   C1A79736  12.756  27.570   5.401 -0.0561 -0.0552 -0.2734
36146POPS   D2A79737  12.978  27.699   5.740 -0.0306 -0.2082 -0.2619
36146POPS   C3A79738  13.397  27.732   5.875 -0.3778  0.3707 -0.2308
36146POPS   C4A79739  13.657  27.615   6.231 -0.0848 -0.2433 -0.0321
36146POPS   C1B79740  13.095  28.030   5.345 -0.1510  0.1492  0.2787
36146POPS   C2B79741  13.050  28.185   5.794 -0.2218  0.0435  0.2360
36146POPS   C3B79742  12.952  28.397   6.177 -0.1287  0.1177 -0.0908
36146POPS   C4B79743  13.173  28.670   6.396 -0.2218 -0.0147  0.0552
36147POPS   CNO79744  10.958  23.218   9.439 -0.0999  0.0014  0.1093
36147POPS   PO479745  10.910  23.077   9.125 -0.0710  0.1341  0.0748
36147POPS   GL179746  11.138  23.391   9.031  0.3371 -0.1461  0.0441
36147POPS   GL279747  11.121  23.694   9.029  0.1614 -0.4175 -0.1707
36147POPS   C1A79748  11.568  23.530   9.048 -0.1223  0.1100 -0.2345
36147POPS   D2A79749  11.995  23.483   9.139 -0.2398 -0.2753 -0.2703
36147POPS   C3A79750  12.399  23.576   9.404 -0.2108  0.0293  0.0071
36147POPS   C4A79751  12.789  23.439   9.640 -0.2965 -0.1381 -0.2616
36147POPS   C1B79752  11.260  24.099   9.202 -0.1130  0.0888 -0.0284
36147POPS   C2B79753  11.520  24.435   9.400 -0.0800  0.0677 -0.1634
36147POPS   C3B79754  11.664  24.712   9.806  0.1817 -0.0025 -0.0260
36147POPS   C4B79755  11.646  24.927  10.220  0.1825 -0.0031  0.4600
36148POPS   CNO79756   7.703  22.603   9.133  0.1432 -0.3018  0.1995
36148POPS   PO479757   7.786  22.385   8.854 -0.0166  0.0094 -0.0231
36148POPS   GL179758   7.548  22.047   8.700 -0.0892  0.1452 -0.3894
36148POPS   GL279759   7.495  21.978   8.980  0.1950 -0.1795 -0.0574
36148POPS   C1A79760   7.398  21.567   8.729  0.4987 -0.1245 -0.3312
36148POPS   D2A79761   7.243  21.122   8.713 -0.0324 -0.1547 -0.1382
36148POPS   C3A79762   6.814  21.046   8.931  0.2179 -0.0939 -0.0955
36148POPS   C4A79763   6.336  21.021   8.847 -0.1020 -0.2401  0.3872
36148POPS   C1B79764   7.405  22.223   9.340  0.4173 -0.0256  0.0987
36148POPS   C2B79765   7.025  22.284   9.568 -0.2238 -0.3315  0.3318
36148POPS   C3B79766   6.529  22.214   9.529  0.1673 -0.3251  0.1512
36148POPS   C4B79767   6.064  22.304   9.546 -0.0723  0.1694  0.0628
36149POPS   CNO79768   1.613  17.620   4.085  0.0630  0.0280  0.0773
36149POPS   PO479769   1.486  17.867   4.303  0.0208 -0.1471  0.1308
36149POPS   GL179770   1.422  17.648   4.624 -0.3258 -0.1034  0.2762
36149POPS   GL279771   1.273  17.653   4.875 -0.0678 -0.0602  0.0205
36149POPS   C1A79772   1.602  17.309   4.876  0.0113 -0.2299  0.4524
36149POPS   D2A79773   1.734  16.874   4.972  0.0413  0.0418 -0.0701
36149POPS   C3A79774   1.718  16.559   5.322  0.1458 -0.0253 -0.2364
36149POPS   C4A79775   1.564  16.116   5.407  0.0284 -0.0265 -0.1475
36149POPS   C1B79776   1.262  17.649   5.277  0.0616  0.1495 -0.2201
36149POPS   C2B79777   1.298  17.615   5.753  0.1431 -0.2789  0.0335
36149POPS   C3B79778   1.197  17.576   6.194 -0.0261 -0.1482 -0.0377
36149POPS   C4B79779   0.991  17.250   6.469 -0.1013 -0.2634 -0.0756
36150POPS   CNO79780  12.257  28.539   4.183 -0.1701 -0.2835  0.0664
36150POPS   PO479781  12.221  28.671   4.520  0.0104 -0.0043 -0.1253
36150POPS   GL179782  12.364  28.751   4.905 -0.0566 -0.1158  0.1066
36150POPS   GL279783  12.210  28.976   5.012 -0.1205 -0.0402  0.1246
36150POPS   C1A79784  12.514  28.794   5.335  0.0659  0.3492 -0.0750
36150POPS   D2A79785  12.898  29.033   5.613  0.1212  0.1314 -0.2110
36150POPS   C3A79786  13.122  29.058   6.064 -0.1098  0.1618 -0.1102
36150POPS   C4A79787  13.050  29.096   6.568 -0.1711 -0.0057 -0.1524
36150POPS   C1B79788  12.094  29.070   5.407  0.1565  0.0049  0.0169
36150POPS   C2B79789  11.714  29.053   5.653 -0.0552 -0.2268  0.0770
36150POPS   C3B79790  11.565  29.103   6.067  0.1042 -0.0198  0.1353
36150POPS   C4B79791  11.451  29.405   6.474 -0.0475  0.1644 -0.0100
36151POPS   CNO79792  14.580  25.236   4.990 -0.0631  0.2290  0.0600
36151POPS   PO479793  14.432  25.225   5.332 -0.0275  0.1063  0.2268
36151POPS   GL179794  14.437  25.382   5.619  0.5176 -0.2055 -0.1442
36151POPS   GL279795  14.521  25.654   5.649  0.2196  0.0650  0.0538
36151POPS   C1A79796  14.506  25.193   6.046 -0.1644 -0.1119  0.0393
36151POPS   D2A79797  14.567  25.379   6.451 -0.0592  0.0997  0.4442
36151POPS   C3A79798  14.795  25.669   6.722 -0.0208  0.0041  0.0938
36151POPS   C4A79799  15.044  25.914   7.010 -0.1896 -0.1676 -0.4265
36151POPS   C1B79800  14.281  25.671   6.037 -0.3525 -0.3973  0.0230
36151POPS   C2B79801  14.256  25.819   6.515  0.0154 -0.1232  0.0758
36151POPS   C3B79802  14.320  26.012   6.904  0.1239 -0.0650 -0.0256
36151POPS   C4B79803  14.646  26.189   7.155  0.3032 -0.4390 -0.1512
36152POPS   CNO79804   8.801  23.258   8.897 -0.4487  0.1335  0.1127
36152POPS   PO479805   8.463  23.284   9.007 -0.0266 -0.0486 -0.2402
36152POPS   GL179806   8.337  23.636   9.239  0.0261 -0.1556 -0.1257
36152POPS   GL279807   8.560  23.724   9.343 -0.0036 -0.0702  0.5534
36152POPS   C1A79808   8.196  23.590   9.694 -0.2257 -0.0172  0.0742
36152POPS   D2A79809   8.155  23.577  10.120 -0.0077 -0.0060 -0.0269
36152POPS   C3A79810   7.766  23.699  10.255 -0.0131  0.0586 -0.0739
36152POPS   C4A79811   7.294  23.703  10.270 -0.3183 -0.1683  0.1100
36152POPS   C1B79812   8.662  24.005   9.666  0.0287 -0.1184 -0.3222
36152POPS   C2B79813   8.786  24.221  10.108  0.2293  0.1340 -0.3407
36152POPS   C3B79814   8.893  24.564  10.463  0.1008  0.1400  0.1241
36152POPS   C4B79815   8.693  24.636  10.885  0.3025  0.2263  0.3219
36153POPS   CNO79816   9.495  23.561   9.222  0.0421  0.1570 -0.1146
36153POPS   PO479817   9.657  23.665   9.534  0.0686 -0.0471  0.0309
36153POPS   GL179818   9.488  24.038   9.447  0.1812  0.2360  0.0472
36153POPS   GL279819   9.709  24.144   9.409 -0.1714  0.0785 -0.3333
36153POPS   C1A79820   9.254  24.429   9.413  0.0076 -0.2523  0.1922
36153POPS   D2A79821   8.840  24.600   9.601 -0.1151  0.0322  0.0723
36153POPS   C3A79822   8.907  24.870   9.965 -0.1961  0.2502 -0.0410
36153POPS   C4A79823   9.004  25.103  10.308  0.4226  0.1362 -0.2046
36153POPS   C1B79824  10.052  24.395   9.348 -0.2046  0.1225 -0.0538
36153POPS   C2B79825  10.446  24.612   9.332  0.0367 -0.2508  0.0687
36153POPS   C3B79826  10.756  24.858   9.604 -0.1670  0.0791  0.1567
36153POPS   C4B79827  11.110  24.755   9.855 -0.1243  0.1967 -0.0557
36154POPS   CNO79828   5.534  24.103  13.182 -0.1487 -0.2454  0.2313
36154POPS   PO479829   5.631  23.719  13.180  0.0055 -0.4438 -0.0690
36154POPS   GL179830   5.986  23.611  13.260  0.4552 -0.0359 -0.2672
36154POPS   GL279831   6.120  23.422  13.093 -0.2749 -0.0767  0.0975
36154POPS   C1A79832   6.212  23.712  13.686  0.0278 -0.2909 -0.0026
36154POPS   D2A79833   6.648  23.704  13.731 -0.2405  0.0042 -0.1883
36154POPS   C3A79834   6.807  23.608  14.177  0.0805 -0.2014  0.0278
36154POPS   C4A79835   7.054  23.286  14.467 -0.1539 -0.1743  0.2289
36154POPS   C1B79836   6.558  23.497  13.272  0.0129  0.0472  0.1247
36154POPS   C2B79837   6.860  23.282  13.538 -0.0445 -0.2450 -0.1610
36154POPS   C3B79838   7.302  23.149  13.683 -0.1923 -0.0073  0.4398
36154POPS   C4B79839   7.572  22.986  13.412 -0.3020 -0.0323 -0.0224
36155POPS   CNO79840   3.439  19.411  14.859  0.0586 -0.2682  0.1957
36155POPS   PO479841   3.589  19.689  15.099  0.0783  0.1943 -0.2011
36155POPS   GL179842   3.736  19.905  15.436  0.1030  0.1595 -0.1202
36155POPS   GL279843   3.531  19.894  15.567 -0.1120 -0.0591  0.1583
36155POPS   C1A79844   3.935  20.026  15.831  0.1535 -0.0844 -0.1469
36155POPS   D2A79845   4.234  19.924  16.149  0.1774 -0.3844 -0.0693
36155POPS   C3A79846   4.397  20.196  16.403  0.1645 -0.0842 -0.2336
36155POPS   C4A79847   4.756  20.268  16.718 -0.0983  0.3661  0.3317
36155POPS   C1B79848   3.501  19.912  16.039 -0.0217 -0.1368 -0.0772
36155POPS   C2B79849   3.736  20.056  16.384 -0.1594  0.3677  0.0824
36155POPS   C3B79850   4.052  20.139  16.742  0.1655 -0.1054  0.2308
36155POPS   C4B79851   4.373  20.346  17.076 -0.3959 -0.1110  0.1608
36156POPS   CNO79852  10.579  16.966  12.943 -0.0657 -0.0989  0.0384
36156POPS   PO479853  10.292  16.949  13.184  0.1059  0.0807 -0.1449
36156POPS   GL179854  10.287  17.280  13.363  0.3557 -0.5036  0.2783
36156POPS   GL279855  10.498  17.341  13.352 -0.1221  0.1047  0.2541
36156POPS   C1A79856  10.183  17.696  13.538 -0.2310 -0.2625 -0.2781
36156POPS   D2A79857  10.329  17.864  13.968  0.0897  0.0907 -0.0427
36156POPS   C3A79858  10.007  18.217  14.148 -0.1581  0.3748 -0.2985
36156POPS   C4A79859  10.007  18.648  14.048 -0.3159  0.3560  0.2252
36156POPS   C1B79860  10.470  17.681  13.043 -0.1852  0.0461  0.2620
36156POPS   C2B79861  10.609  18.062  12.808  0.0140  0.1321  0.0501
36156POPS   C3B79862  10.766  18.476  12.703 -0.2244 -0.1084 -0.5457
36156POPS   C4B79863  10.961  18.782  13.005  0.1599 -0.2747 -0.0445
36157POPS   CNO79864  10.723  30.948  16.103  0.2325 -0.0482 -0.2335
36157POPS   PO479865  10.727  31.336  16.020 -0.2075 -0.0171 -0.2139
36157POPS   GL179866  10.645  31.236  16.499  0.1753  0.0098  0.0874
36157POPS   GL279867  10.763  31.028  16.672  0.1680  0.0475 -0.1890
36157POPS   C1A79868  10.250  31.199  16.762 -0.2182 -0.0109 -0.1757
36157POPS   D2A79869   9.943  30.977  17.062  0.0329 -0.1501  0.1389
36157POPS   C3A79870   9.963  30.988  17.552  0.2257 -0.2211 -0.2865
36157POPS   C4A79871  10.175  30.850  17.968  0.1246  0.2062  0.1902
36157POPS   C1B79872  10.834  31.501  16.851 -0.1224  0.1492  0.1726
36157POPS   C2B79873  10.837  31.829  17.154 -0.2037 -0.2640 -0.0677
36157POPS   C3B79874  10.567  32.127  17.428 -0.3759 -0.0445  0.3973
36157POPS   C4B79875  10.366  32.425  17.730  0.0385  0.3886 -0.1056
36158POPS   CNO79876   2.514  28.910  16.316  0.0778  0.5032  0.1705
36158POPS   PO479877   2.183  29.002  16.473  0.2907  0.1712 -0.1602
36158POPS   GL179878   2.444  28.974  16.781  0.0249  0.3425 -0.2765
36158POPS   GL279879   2.459  29.267  16.912 -0.0209 -0.1943  0.0080
36158POPS   C1A79880   2.443  28.884  17.222 -0.1169 -0.1510  0.0136
36158POPS   D2A79881   2.491  29.025  17.627 -0.2469  0.3366 -0.1346
36158POPS   C3A79882   2.875  29.085  17.866  0.3518 -0.4150 -0.1481
36158POPS   C4A79883   3.038  28.995  18.267  0.0146  0.0125  0.0705
36158POPS   C1B79884   2.288  29.441  17.294 -0.0631 -0.2991  0.0085
36158POPS   C2B79885   2.458  29.664  17.670 -0.3269  0.1853  0.0376
36158POPS   C3B79886   2.228  29.774  18.037 -0.1970 -0.1242 -0.1783
36158POPS   C4B79887   2.007  29.491  18.337  0.0232 -0.0669 -0.0727
36159POPS   CNO79888   4.373  32.348  16.053 -0.0085 -0.3210  0.4337
36159POPS   PO479889   4.655  32.554  15.975  0.2181 -0.4512 -0.0587
36159POPS   GL179890   4.755  32.590  16.315  0.2739 -0.1232 -0.0863
36159POPS   GL279891   4.509  32.593  16.449  0.2040 -0.1496 -0.2846
36159POPS   C1A79892   4.730  33.033  16.470 -0.0117 -0.0631  0.2239
36159POPS   D2A79893   5.127  33.183  16.680  0.1250 -0.0633  0.0312
36159POPS   C3A79894   5.239  33.584  16.762 -0.2067 -0.3979 -0.0820
36159POPS   C4A79895   5.014  33.949  16.842  0.1226  0.1084  0.1186
36159POPS   C1B79896   4.593  32.545  16.891 -0.3995 -0.1729 -0.1023
36159POPS   C2B79897   4.459  32.361  17.298  0.1196 -0.0217  0.1494
36159POPS   C3B79898   4.495  32.448  17.794  0.1040 -0.0881 -0.3285
36159POPS   C4B79899   4.279  32.725  18.140 -0.0525 -0.4512 -0.0388
36160POPS   CNO79900   5.920  25.944  11.267 -0.2190 -0.0924  0.0301
36160POPS   PO479901   6.125  26.176  11.049  0.2050 -0.0011 -0.0228
36160POPS   GL179902   6.151  25.806  10.842 -0.2077 -0.1233 -0.3514
36160POPS   GL279903   6.478  25.814  10.752 -0.2702 -0.1364 -0.0188
36160POPS   C1A79904   6.186  25.700  10.391 -0.0282 -0.2174 -0.2427
36160POPS   D2A79905   6.536  25.833  10.114  0.1038 -0.2458  0.0805
36160POPS   C3A79906   6.362  25.671   9.711 -0.1654 -0.1313 -0.3067
36160POPS   C4A79907   5.950  25.451   9.565 -0.0752  0.1391 -0.0177
36160POPS   C1B79908   6.753  25.487  10.876 -0.1934 -0.2001  0.0594
36160POPS   C2B79909   6.931  25.154  10.667  0.1830 -0.0377  0.0891
36160POPS   C3B79910   7.191  24.828  10.414  0.0878  0.1211  0.3894
36160POPS   C4B79911   7.475  24.622  10.165 -0.2858  0.2123 -0.1231
36161POPS   CNO79912  14.357  25.455   9.991  0.0402 -0.0449  0.0673
36161POPS   PO479913  14.021  25.554  10.156  0.1245 -0.2657  0.1189
36161POPS   GL179914  13.722  25.389   9.963 -0.2806 -0.2109 -0.0565
36161POPS   GL279915  13.586  25.545   9.761  0.1784 -0.0194 -0.2588
36161POPS   C1A79916  13.665  25.069   9.606  0.1123  0.0620  0.0058
36161POPS   D2A79917  13.338  25.062   9.333  0.1747 -0.4508 -0.0134
36161POPS   C3A79918  12.876  24.993   9.266  0.5585 -0.1298 -0.1879
36161POPS   C4A79919  12.503  24.729   9.299  0.2303  0.0597  0.2924
36161POPS   C1B79920  13.203  25.347   9.782 -0.1753  0.0714  0.1281
36161POPS   C2B79921  13.051  24.915   9.713  0.0105  0.2159  0.2043
36161POPS   C3B79922  12.843  24.498   9.677  0.1852  0.3528 -0.1635
36161POPS   C4B79923  12.643  24.291   9.280 -0.2382  0.0507 -0.4741
36162POPS   CNO79924  12.024  31.022  15.857  0.0434  0.2261  0.1695
36162POPS   PO479925  11.720  30.966  16.067 -0.0870 -0.0375  0.0170
36162POPS   GL179926  11.641  31.186  16.351  0.2680  0.3373  0.0055
36162POPS   GL279927  11.558  31.042  16.622 -0.0831  0.3417 -0.1832
36162POPS   C1A79928  11.887  31.417  16.663 -0.3459 -0.1428 -0.1382
36162POPS   D2A79929  11.937  31.675  17.033 -0.3188  0.0780 -0.1423
36162POPS   C3A79930  11.901  31.701  17.520 -0.2174  0.0839  0.0558
36162POPS   C4A79931  11.737  31.441  17.876 -0.0673  0.0707 -0.0670
36162POPS   C1B79932  11.591  30.784  17.034 -0.0659 -0.1468 -0.1909
36162POPS   C2B79933  11.618  30.759  17.459  0.3450 -0.1129  0.1940
36162POPS   C3B79934  11.365  30.718  17.814  0.1142 -0.3498  0.0847
36162POPS   C4B79935  10.956  30.694  18.029  0.3100  0.1752  0.0842
36163POPS   CNO79936   5.846  26.631  15.015 -0.1569 -0.4188 -0.2599
36163POPS   PO479937   6.156  26.809  15.129 -0.0725  0.1298 -0.0662
36163POPS   GL179938   6.318  26.712  15.461  0.3323  0.0946  0.1986
36163POPS   GL279939   6.192  26.887  15.650 -0.2087 -0.0949  0.0110
36163POPS   C1A79940   6.157  26.335  15.701  0.0850 -0.2087 -0.2822
36163POPS   D2A79941   6.017  26.030  16.105  0.0328  0.0879  0.0914
36163POPS   C3A79942   6.327  25.756  16.325 -0.0555 -0.1989 -0.0286
36163POPS   C4A79943   6.618  25.610  16.651 -0.2792 -0.1481  0.0497
36163POPS   C1B79944   6.108  26.764  16.076  0.0664  0.0057 -0.1675
36163POPS   C2B79945   6.200  26.480  16.439  0.1634  0.0252  0.2192
36163POPS   C3B79946   6.153  26.115  16.741  0.1811 -0.4999  0.0198
36163POPS   C4B79947   6.195  25.682  16.855  0.3972  0.2044  0.2204
36164POPS   CNO79948   1.917  17.000  15.564 -0.1441  0.0928 -0.1527
36164POPS   PO479949   1.628  17.129  15.801 -0.3663 -0.1526  0.2769
36164POPS   GL179950   1.532  17.112  16.222  0.3252 -0.2028 -0.1478
36164POPS   GL279951   1.806  17.186  16.391 -0.1158  0.0360 -0.1730
36164POPS   C1A79952   1.391  17.470  16.509 -0.7166  0.2642  0.0644
36164POPS   D2A79953   1.416  17.752  16.917  0.1856  0.2796  0.2685
36164POPS   C3A79954   1.704  18.051  17.085 -0.3832  0.0197 -0.1396
36164POPS   C4A79955   1.758  18.366  17.437  0.1949  0.2995  0.0779
36164POPS   C1B79956   1.604  17.129  16.846  0.0253 -0.0862 -0.1283
36164POPS   C2B79957   1.515  17.124  17.325 -0.1704 -0.1415  0.1957
36164POPS   C3B79958   1.574  17.388  17.663  0.0280 -0.1593 -0.0508
36164POPS   C4B79959   1.702  17.725  18.025  0.0910  0.0534 -0.0063
36165POPS   CNO79960  13.425  26.361  15.511 -0.1934 -0.0384  0.2054
36165POPS   PO479961  13.563  26.536  15.839 -0.0258  0.1526  0.2340
36165POPS   GL179962  13.577  26.333  16.151  0.5829  0.0552 -0.1722
36165POPS   GL279963  13.692  26.560  16.327 -0.0870  0.0142 -0.2292
36165POPS   C1A79964  13.268  26.249  16.483  0.1767  0.1522 -0.1314
36165POPS   D2A79965  13.167  26.135  16.867  0.0519 -0.1572 -0.0220
36165POPS   C3A79966  13.557  26.180  17.194 -0.0384  0.0167 -0.0056
36165POPS   C4A79967  13.877  26.204  17.584 -0.1438 -0.0651  0.0618
36165POPS   C1B79968  13.874  26.345  16.735  0.0569  0.1780  0.2071
36165POPS   C2B79969  14.029  26.106  17.069  0.3763 -0.1811  0.2720
36165POPS   C3B79970  14.269  25.964  17.379  0.0150  0.0456 -0.0632
36165POPS   C4B79971  14.246  25.952  17.867 -0.1013 -0.2026  0.0354
36166POPS   CNO79972   3.829  28.537  16.358  0.0702  0.2340  0.0117
36166POPS   PO479973   3.450  28.612  16.476  0.0638  0.0363  0.2829
36166POPS   GL179974   3.401  28.568  16.872 -0.1722  0.1384 -0.0583
36166POPS   GL279975   3.658  28.461  16.953 -0.3515 -0.3019 -0.0023
36166POPS   C1A79976   3.450  28.641  17.327  0.2496  0.1927  0.1244
36166POPS   D2A79977   3.218  29.010  17.521 -0.1861 -0.0386  0.0120
36166POPS   C3A79978   3.186  28.675  17.895  0.2140 -0.0043 -0.1657
36166POPS   C4A79979   3.438  28.291  18.024 -0.2816 -0.0132 -0.2230
36166POPS   C1B79980   3.583  28.106  17.292  0.1824  0.1916  0.0779
36166POPS   C2B79981   3.723  27.952  17.769  0.1358 -0.1124 -0.2958
36166POPS   C3B79982   3.616  27.859  18.201 -0.0746 -0.1599 -0.3238
36166POPS   C4B79983   3.403  28.017  18.556 -0.0538  0.4101  0.0955
36167POPS   CNO79984  13.957  24.729  10.558 -0.1885  0.0813 -0.1499
36167POPS   PO479985  14.230  24.603  10.815 -0.1316  0.2191  0.1473
36167POPS   GL179986  13.963  24.377  10.827  0.2346  0.1713  0.2090
36167POPS   GL279987  13.966  24.084  10.868  0.0023 -0.0505 -0.1370
36167POPS   C1A79988  13.545  24.281  10.669  0.1488  0.0845  0.0612
36167POPS   D2A79989  13.293  23.901  10.701 -0.2526 -0.1861  0.0776
36167POPS   C3A79990  13.189  23.669  10.276 -0.1863 -0.3586  0.0357
36167POPS   C4A79991  13.053  23.336  10.018  0.0694  0.1674 -0.1723
36167POPS   C1B79992  13.816  23.898  10.486 -0.0835  0.1478 -0.0934
36167POPS   C2B79993  13.778  23.849  10.023 -0.0408  0.0062 -0.0717
36167POPS   C3B79994  13.476  23.657   9.631 -0.1192 -0.2606  0.1548
36167POPS   C4B79995  13.559  23.862   9.214  0.0723 -0.1540  0.0884
36168POPS   CNO79996   3.253  23.222  15.031  0.0172  0.1889  0.3090
36168POPS   PO479997   3.297  23.149  15.410 -0.0964 -0.1176 -0.1503
36168POPS   GL179998   3.284  22.873  15.529  0.1894  0.1019  0.3994
36168POPS   GL279999   3.594  22.810  15.662 -0.0503  0.2926 -0.0991
36168POPS   C1A80000   3.210  22.727  15.978 -0.0870  0.3393 -0.2131
36168POPS   D2A80001   3.321  22.649  16.428 -0.0579 -0.1975 -0.1629
36168POPS   C3A80002   3.433  22.790  16.840  0.1056  0.0737  0.1045
36168POPS   C4A80003   3.645  22.505  17.137 -0.3181 -0.1031 -0.0431
36168POPS   C1B80004   3.739  22.642  16.016 -0.1447 -0.1833 -0.1850
36168POPS   C2B80005   3.838  22.624  16.484 -0.2066  0.1354  0.0902
36168POPS   C3B80006   3.885  22.236  16.751  0.5518 -0.3801 -0.2084
36168POPS   C4B80007   3.723  21.876  16.994 -0.1634  0.2656  0.2379
36169POPS   CNO80008  13.463  26.787  11.386  0.1092  0.2648  0.1332
36169POPS   PO480009  13.122  26.695  11.234 -0.1141 -0.0937  0.1066
36169POPS   GL180010  12.845  26.392  11.480  0.1939 -0.3455  0.2257
36169POPS   GL280011  12.659  26.450  11.258  0.1435  0.0258 -0.0598
36169POPS   C1A80012  12.478  26.245  11.668 -0.0502  0.4598  0.1760
36169POPS   D2A80013  12.024  26.231  11.569 -0.0368  0.4927  0.3140
36169POPS   C3A80014  11.701  25.938  11.747 -0.2680  0.4138 -0.1792
36169POPS   C4A80015  11.825  25.574  11.963 -0.2284 -0.2371  0.1251
36169POPS   C1B80016  12.272  26.189  11.135  0.2656 -0.1354  0.1817
36169POPS   C2B80017  11.953  25.867  11.063  0.0545 -0.2085  0.0564
36169POPS   C3B80018  11.626  25.594  10.879  0.1608  0.1101 -0.1737
36169POPS   C4B80019  11.547  25.170  10.661 -0.3241  0.1014  0.2726
36170POPS   CNO80020   9.353  28.961   9.905 -0.1878 -0.0872  0.1397
36170POPS   PO480021   9.338  28.918   9.525  0.0762  0.3624 -0.0950
36170POPS   GL180022   9.302  28.584   9.317  0.1226  0.1417  0.1003
36170POPS   GL280023   9.346  28.608   9.027  0.0969 -0.1682  0.1809
36170POPS   C1A80024   9.406  28.136   9.295 -0.1009  0.1074 -0.1382
36170POPS   D2A80025   9.438  27.761   9.066 -0.0009 -0.5047  0.0448
36170POPS   C3A80026   9.305  27.597   8.643  0.1940 -0.0713 -0.0532
36170POPS   C4A80027   9.336  27.474   8.189  0.1887  0.3939 -0.2032
36170POPS   C1B80028   9.411  28.430   8.572 -0.1814 -0.1293 -0.0004
36170POPS   C2B80029   9.500  28.103   8.298  0.1324  0.0903  0.1076
36170POPS   C3B80030   9.601  27.999   7.861 -0.3947 -0.0172  0.1586
36170POPS   C4B80031   9.818  28.072   7.461 -0.1039  0.0308 -0.1408
36171POPS   CNO80032   6.174  25.257  12.293  0.1874  0.0136 -0.2631
36171POPS   PO480033   6.452  25.101  12.058 -0.2552 -0.0776 -0.2806
36171POPS   GL180034   6.731  24.873  11.894 -0.0412  0.2528  0.0465
36171POPS   GL280035   6.612  24.635  11.983 -0.0691 -0.0767  0.3939
36171POPS   C1A80036   6.985  24.951  11.546  0.3305 -0.1350  0.2860
36171POPS   D2A80037   7.234  24.749  11.225  0.0677  0.2122  0.0551
36171POPS   C3A80038   6.930  24.706  10.880  0.1707  0.2186  0.1228
36171POPS   C4A80039   6.622  24.512  10.520 -0.3044  0.4619 -0.4968
36171POPS   C1B80040   7.058  24.532  11.845 -0.3908  0.2342 -0.3205
36171POPS   C2B80041   7.489  24.579  11.659  0.1556  0.2228 -0.0225
36171POPS   C3B80042   7.815  24.323  11.462 -0.2810 -0.1927  0.0639
36171POPS   C4B80043   7.899  24.006  11.081  0.2654  0.1000 -0.2078
36172POPS   CNO80044  12.336  17.199  14.184 -0.3116 -0.1372  0.1750
36172POPS   PO480045  12.612  17.474  14.056  0.1698  0.2081 -0.1809
36172POPS   GL180046  12.598  17.792  14.207  0.1047  0.1992 -0.2024
36172POPS   GL280047  12.404  17.770  14.410  0.4135 -0.0925 -0.0977
36172POPS   C1A80048  12.380  18.237  14.154  0.0633  0.1792  0.0134
36172POPS   D2A80049  12.379  18.699  14.234 -0.3884  0.0146  0.2826
36172POPS   C3A80050  12.265  19.130  14.417 -0.1978  0.2611  0.0432
36172POPS   C4A80051  12.530  19.435  14.730  0.0401 -0.1748  0.2263
36172POPS   C1B80052  12.062  17.969  14.678 -0.1187  0.0298  0.1375
36172POPS   C2B80053  11.860  17.783  15.018  0.3232  0.1013 -0.0416
36172POPS   C3B80054  11.525  17.615  15.146  0.0745 -0.0097 -0.2083
36172POPS   C4B80055  11.131  17.557  15.385  0.0497  0.0038 -0.0666
36173POPS   CNO80056   2.747  29.900  16.217 -0.1499 -0.1763 -0.1113
36173POPS   PO480057   2.678  30.048  16.606  0.1106 -0.1969  0.0616
36173POPS   GL180058   2.589  30.122  16.973  0.1601 -0.1495  0.2941
36173POPS   GL280059   2.818  30.269  17.060  0.0478 -0.0487  0.2320
36173POPS   C1A80060   2.339  30.030  17.360  0.1495  0.1668  0.0540
36173POPS   D2A80061   2.500  30.177  17.744  0.1242 -0.0615 -0.0109
36173POPS   C3A80062   2.772  29.949  18.012 -0.1710  0.3950  0.0537
36173POPS   C4A80063   3.120  29.920  18.320  0.3831 -0.3718  0.0565
36173POPS   C1B80064   2.701  30.488  17.424  0.3178 -0.4276  0.0939
36173POPS   C2B80065   2.428  30.628  17.733  0.3243 -0.2641  0.1697
36173POPS   C3B80066   2.234  30.536  18.089 -0.2796  0.2584 -0.1287
36173POPS   C4B80067   2.426  30.387  18.462  0.1109  0.2604 -0.1551
36174POPS   CNO80068   3.795  30.188  16.447  0.0080 -0.1506  0.3379
36174POPS   PO480069   3.920  30.288  16.745 -0.1153 -0.2244 -0.4026
36174POPS   GL180070   4.306  30.312  16.862  0.1860  0.3120  0.0877
36174POPS   GL280071   4.446  30.556  16.922 -0.0988  0.1878  0.1077
36174POPS   C1A80072   4.467  30.134  17.279 -0.1533  0.1365 -0.0153
36174POPS   D2A80073   4.478  30.161  17.757  0.2559 -0.3123  0.1966
36174POPS   C3A80074   4.683  29.997  18.179  0.0045  0.2500  0.0211
36174POPS   C4A80075   4.894  30.039  18.626 -0.0199  0.2324  0.2587
36174POPS   C1B80076   4.167  30.764  17.214 -0.0347 -0.1007  0.0351
36174POPS   C2B80077   3.984  30.946  17.623 -0.0199  0.4526  0.2201
36174POPS   C3B80078   3.905  30.756  18.030  0.0976  0.1492  0.2729
36174POPS   C4B80079   3.803  30.665  18.476 -0.1329  0.1997  0.1408
36175POPS   CNO80080  15.995  22.116  15.152 -0.2597  0.1299  0.1708
36175POPS   PO480081  15.926  22.286  15.473 -0.4361 -0.0472 -0.2591
36175POPS   GL180082  15.650  22.350  15.780 -0.0700  0.1730 -0.1912
36175POPS   GL280083  15.883  22.288  15.969  0.0012 -0.0700 -0.1524
36175POPS   C1A80084  15.519  21.950  15.934  0.1617 -0.4150  0.1566
36175POPS   D2A80085  15.417  21.771  16.348 -0.3057 -0.0858 -0.1136
36175POPS   C3A80086  15.042  21.703  16.531  0.0506 -0.3926 -0.2213
36175POPS   C4A80087  14.591  21.632  16.556  0.0357 -0.0201 -0.1496
36175POPS   C1B80088  15.811  22.240  16.411 -0.2586  0.1807 -0.1838
36175POPS   C2B80089  16.060  22.098  16.780  0.0683  0.0349 -0.0472
36175POPS   C3B80090  16.323  22.213  17.096  0.1485  0.0333 -0.0854
36175POPS   C4B80091  16.396  22.550  17.409  0.0985 -0.0135  0.0895
36176POPS   CNO80092  15.632  27.813  16.459  0.1284  0.0764 -0.0809
36176POPS   PO480093  15.568  28.125  16.594  0.3047 -0.0410  0.0442
36176POPS   GL180094  15.600  27.931  16.935 -0.0615  0.2780  0.0985
36176POPS   GL280095  15.366  27.951  17.110 -0.1462  0.0952 -0.1631
36176POPS   C1A80096  15.843  28.001  17.336  0.2482  0.1359  0.2890
36176POPS   D2A80097  15.858  28.086  17.801  0.1012  0.0712 -0.2757
36176POPS   C3A80098  15.640  28.011  18.249  0.1831 -0.0494 -0.0507
36176POPS   C4A80099  15.933  27.889  18.527 -0.0441  0.1095 -0.2599
36176POPS   C1B80100  15.328  28.105  17.563 -0.0173 -0.1642  0.1350
36176POPS   C2B80101  15.302  28.313  18.004 -0.1856  0.3486 -0.1151
36176POPS   C3B80102  15.137  28.377  18.423  0.0606 -0.0653 -0.0057
36176POPS   C4B80103  15.321  28.608  18.817  0.0987  0.1860  0.0779
36177POPS   CNO80104   5.293  24.634  13.888  0.1328  0.1389 -0.1719
36177POPS   PO480105   5.597  24.595  14.105  0.2450  0.1445 -0.1882
36177POPS   GL180106   5.867  24.406  14.359 -0.1620 -0.2545 -0.1325
36177POPS   GL280107   5.751  24.391  14.627  0.0176 -0.1994 -0.1021
36177POPS   C1A80108   6.309  24.380  14.284  0.4593 -0.4160  0.1141
36177POPS   D2A80109   6.679  24.607  14.061 -0.0404  0.1420  0.3589
36177POPS   C3A80110   7.051  24.463  13.882  0.3176 -0.0331 -0.1227
36177POPS   C4A80111   7.450  24.230  13.786 -0.3286  0.0617 -0.2076
36177POPS   C1B80112   5.816  24.451  15.094  0.0785 -0.0454  0.1006
36177POPS   C2B80113   6.213  24.473  15.337 -0.1282 -0.1105  0.0024
36177POPS   C3B80114   6.587  24.627  15.611  0.1023  0.2555  0.0825
36177POPS   C4B80115   6.631  24.615  16.076  0.1058  0.0456  0.0415
36178POPS   CNO80116   4.281  22.008  14.564 -0.1008 -0.0597 -0.1274
36178POPS   PO480117   4.551  22.269  14.513 -0.1671 -0.1091 -0.1786
36178POPS   GL180118   4.736  22.138  14.920 -0.0929 -0.5838  0.1634
36178POPS   GL280119   4.582  22.019  15.115 -0.0665  0.0412  0.1473
36178POPS   C1A80120   5.135  22.120  15.152 -0.1922 -0.0692 -0.0544
36178POPS   D2A80121   5.357  22.050  15.560 -0.0381  0.1016 -0.0234
36178POPS   C3A80122   5.821  22.166  15.550 -0.2654  0.1354 -0.1343
36178POPS   C4A80123   6.205  22.325  15.264  0.5102  0.1019 -0.0340
36178POPS   C1B80124   4.861  21.812  15.488 -0.2111 -0.0739  0.0541
36178POPS   C2B80125   5.032  21.923  15.936  0.1188 -0.1591 -0.0811
36178POPS   C3B80126   5.487  22.077  16.057  0.2456 -0.0636 -0.2828
36178POPS   C4B80127   5.919  22.160  16.160  0.1451  0.3304 -0.1228
36179POPS   CNO80128   8.613  28.775  10.232 -0.1771  0.3181  0.0961
36179POPS   PO480129   8.836  28.788   9.913 -0.0726  0.1631 -0.0345
36179POPS   GL180130   8.863  28.828   9.516  0.3078  0.2716 -0.1622
36179POPS   GL280131   8.815  28.539   9.451 -0.3161  0.0241  0.0894
36179POPS   C1A80132   8.910  28.846   9.053 -0.0709 -0.1156 -0.0778
36179POPS   D2A80133   9.057  28.782   8.569 -0.0341  0.0421 -0.1061
36179POPS   C3A80134   8.748  28.565   8.230 -0.2966  0.1776 -0.2628
36179POPS   C4A80135   8.526  28.280   7.974 -0.0437 -0.0951 -0.1034
36179POPS   C1B80136   8.959  28.303   9.076 -0.1158 -0.0128  0.0118
36179POPS   C2B80137   9.080  28.031   8.703 -0.2148  0.1890 -0.2992
36179POPS   C3B80138   9.042  27.889   8.257 -0.1454 -0.1747  0.0604
36179POPS   C4B80139   9.032  27.821   7.758 -0.3898  0.2038 -0.1888
36180POPS   CNO80140   2.721  28.641  16.689  0.2679 -0.1077 -0.1085
36180POPS   PO480141   3.002  28.401  16.741  0.0184 -0.1614 -0.1220
36180POPS   GL180142   3.124  28.434  17.120  0.1165  0.1725  0.0600
36180POPS   GL280143   3.057  28.146  17.122  0.0957  0.1009  0.1363
36180POPS   C1A80144   3.219  28.302  17.584  0.1822  0.1410  0.3369
36180POPS   D2A80145   3.153  27.972  17.816  0.0509  0.2361 -0.1085
36180POPS   C3A80146   2.981  27.900  18.263 -0.0193  0.0704  0.0109
36180POPS   C4A80147   2.666  27.955  18.572 -0.0739  0.3105  0.0733
36180POPS   C1B80148   2.844  27.947  17.493 -0.1560  0.2295 -0.0086
36180POPS   C2B80149   2.792  27.690  17.884  0.0764  0.3952 -0.1988
36180POPS   C3B80150   2.542  27.517  18.231 -0.2613 -0.1913 -0.1031
36180POPS   C4B80151   2.461  27.533  18.651  0.1026  0.0888  0.0723
36181POPS   CNO80152   0.387  17.039  15.712  0.2634  0.1479 -0.0530
36181POPS   PO480153   0.222  17.375  15.732 -0.1413 -0.0259  0.1781
36181POPS   GL180154   0.164  17.504  16.130  0.1879  0.0684  0.7187
36181POPS   GL280155   0.267  17.726  16.158 -0.0737  0.0656  0.2236
36181POPS   C1A80156  -0.187  17.628  16.468 -0.2114  0.3372  0.2039
36181POPS   D2A80157  -0.295  17.685  16.941  0.0751  0.1045 -0.3688
36181POPS   C3A80158  -0.292  17.540  17.356 -0.1243 -0.0468  0.1185
36181POPS   C4A80159  -0.130  17.445  17.781  0.3198 -0.2687 -0.0349
36181POPS   C1B80160   0.278  17.798  16.638  0.0458 -0.1178 -0.1780
36181POPS   C2B80161   0.065  18.026  16.995 -0.0065 -0.2428 -0.0277
36181POPS   C3B80162  -0.198  18.151  17.411  0.0973 -0.1974 -0.0819
36181POPS   C4B80163  -0.458  18.355  17.794  0.0748  0.1386 -0.1363
36182POPS   CNO80164   3.118  29.963  16.804  0.2799  0.0108  0.0221
36182POPS   PO480165   3.391  30.247  16.741  0.0618  0.2613  0.0348
36182POPS   GL180166   3.638  30.403  17.038  0.2301 -0.2728 -0.1640
36182POPS   GL280167   3.643  30.687  17.043  0.1703  0.3967 -0.1681
36182POPS   C1A80168   3.633  30.452  17.481 -0.0858 -0.0122  0.1020
36182POPS   D2A80169   3.711  30.298  17.882 -0.0460  0.1366 -0.1953
36182POPS   C3A80170   4.169  30.314  18.168  0.1844 -0.2343 -0.0256
36182POPS   C4A80171   4.350  30.409  18.597 -0.2681  0.2067 -0.0484
36182POPS   C1B80172   3.555  30.968  17.386  0.2798  0.0602 -0.0821
36182POPS   C2B80173   3.518  31.032  17.850  0.2974  0.2029  0.0269
36182POPS   C3B80174   3.452  31.094  18.313 -0.2732  0.0894  0.2729
36182POPS   C4B80175   3.263  30.756  18.635 -0.1967  0.1182 -0.2833
36183POPS   CNO80176   8.359  27.999  15.463 -0.0996  0.1286 -0.0293
36183POPS   PO480177   8.338  27.636  15.328  0.0369 -0.1444  0.0497
36183POPS   GL180178   8.494  27.452  15.668 -0.0374 -0.0203  0.0409
36183POPS   GL280179   8.446  27.683  15.847 -0.1152  0.1277  0.2620
36183POPS   C1A80180   8.376  27.094  15.899 -0.0714  0.0018  0.0223
36183POPS   D2A80181   8.165  26.819  16.246 -0.1080  0.0925  0.4028
36183POPS   C3A80182   8.135  26.481  16.499 -0.0555 -0.0886  0.2227
36183POPS   C4A80183   8.214  26.288  16.929 -0.3323 -0.2532  0.1489
36183POPS   C1B80184   8.294  27.498  16.187  0.0903  0.0759 -0.1862
36183POPS   C2B80185   8.495  27.117  16.388 -0.1322  0.1377 -0.2069
36183POPS   C3B80186   8.798  27.126  16.760  0.3278 -0.1438 -0.0464
36183POPS   C4B80187   9.053  27.249  17.137  0.0562 -0.2061  0.0651
36184POPS   CNO80188   8.594  29.488  15.871  0.1574  0.3420 -0.1354
36184POPS   PO480189   8.445  29.273  16.122  0.1314 -0.1587 -0.0945
36184POPS   GL180190   8.577  29.298  16.542  0.1949 -0.0398  0.0740
36184POPS   GL280191   8.657  29.502  16.730  0.0495 -0.2767  0.0284
36184POPS   C1A80192   8.287  29.127  16.867 -0.0819 -0.1200  0.0781
36184POPS   D2A80193   7.860  29.189  16.806 -0.1933  0.0006 -0.2706
36184POPS   C3A80194   7.639  29.245  17.176  0.0280  0.0322 -0.0132
36184POPS   C4A80195   7.588  29.332  17.628 -0.0366 -0.0020 -0.1433
36184POPS   C1B80196   8.667  29.348  17.157  0.1095 -0.0646 -0.2782
36184POPS   C2B80197   8.722  29.367  17.574 -0.0548 -0.1637  0.0601
36184POPS   C3B80198   8.599  29.250  17.988  0.0435 -0.2461  0.0951
36184POPS   C4B80199   8.322  29.255  18.363 -0.0450  0.0413 -0.0305
36185POPS   CNO80200  12.415  17.547  11.978 -0.0246 -0.0923 -0.0098
36185POPS   PO480201  12.131  17.792  11.999 -0.1416 -0.3392 -0.0956
36185POPS   GL180202  11.985  18.184  11.863 -0.0841 -0.2155 -0.1757
36185POPS   GL280203  11.731  18.144  11.959  0.1908  0.2193 -0.0394
36185POPS   C1A80204  11.915  18.611  11.963 -0.1834  0.0391  0.1332
36185POPS   D2A80205  11.778  19.043  12.128 -0.0231  0.0943 -0.2764
36185POPS   C3A80206  11.731  19.431  12.395  0.0893 -0.0224 -0.0303
36185POPS   C4A80207  11.589  19.821  12.606 -0.2936  0.1544 -0.0100
36185POPS   C1B80208  11.460  18.457  11.813  0.3766  0.4726  0.2004
36185POPS   C2B80209  11.310  18.837  11.977 -0.0925  0.1338  0.0288
36185POPS   C3B80210  11.288  19.280  11.748  0.0702 -0.0668 -0.1950
36185POPS   C4B80211  11.140  19.736  11.582  0.1479 -0.0713 -0.0164
36186POPS   CNO80212   0.319  22.993  15.354 -0.1254 -0.0998  0.0969
36186POPS   PO480213   0.487  23.333  15.418 -0.0334  0.2028 -0.0475
36186POPS   GL180214   0.148  23.082  15.723  0.2853  0.0565 -0.3417
36186POPS   GL280215   0.097  22.831  15.943  0.1473 -0.1412 -0.0805
36186POPS   C1A80216  -0.087  23.352  16.004  0.1589 -0.0275 -0.1188
36186POPS   D2A80217  -0.282  23.435  16.427 -0.1703 -0.1402  0.0468
36186POPS   C3A80218  -0.482  23.380  16.896  0.0962 -0.1750  0.0761
36186POPS   C4A80219  -0.732  23.131  17.172 -0.0210  0.0210  0.1739
36186POPS   C1B80220   0.167  23.015  16.334  0.1243 -0.0741 -0.2818
36186POPS   C2B80221  -0.086  23.064  16.767 -0.2666  0.0750  0.1022
36186POPS   C3B80222  -0.257  22.954  17.138  0.0460  0.3423 -0.1986
36186POPS   C4B80223  -0.342  22.930  17.633 -0.2294  0.0629 -0.1220
36187POPS   CNO80224  13.895  28.325  16.074  0.2588  0.0550 -0.0322
36187POPS   PO480225  13.950  28.125  16.394  0.0663 -0.1546  0.1294
36187POPS   GL180226  13.860  28.074  16.763  0.1087  0.0358  0.2131
36187POPS   GL280227  14.056  27.908  16.863  0.1493  0.1455 -0.0739
36187POPS   C1A80228  13.632  28.118  17.165  0.1041  0.0346 -0.0846
36187POPS   D2A80229  13.629  28.188  17.611 -0.0710 -0.2119  0.0046
36187POPS   C3A80230  13.889  28.169  17.963 -0.1042 -0.0424  0.0555
36187POPS   C4A80231  14.209  28.198  18.264  0.0748 -0.0289 -0.1214
36187POPS   C1B80232  13.921  27.607  17.173  0.0119  0.1099  0.2364
36187POPS   C2B80233  13.913  27.343  17.554  0.2457  0.1149 -0.0970
36187POPS   C3B80234  13.913  27.118  17.942  0.0181  0.0295  0.1553
36187POPS   C4B80235  14.075  26.790  18.273  0.3938 -0.0649 -0.2500
36188POPS   CNO80236  14.670  25.148  10.239  0.0454  0.3146  0.1210
36188POPS   PO480237  15.011  25.347  10.250  0.0690 -0.0249  0.0767
36188POPS   GL180238  15.083  25.306   9.751 -0.2513 -0.2198  0.1919
36188POPS   GL280239  14.834  25.438   9.708 -0.0686 -0.2367 -0.2219
36188POPS   C1A80240  15.025  25.204   9.311  0.2493  0.0227  0.1825
36188POPS   D2A80241  14.827  25.030   8.954  0.0113  0.0761 -0.0046
36188POPS   C3A80242  14.788  24.743   8.577  0.0054 -0.0179  0.0680
36188POPS   C4A80243  14.613  24.528   8.189 -0.2400  0.1289 -0.0457
36188POPS   C1B80244  14.535  25.367   9.359  0.1643 -0.0705 -0.0759
36188POPS   C2B80245  14.126  25.168   9.329  0.1494 -0.0024  0.1688
36188POPS   C3B80246  13.795  24.879   9.167  0.0480  0.0245  0.0644
36188POPS   C4B80247  13.491  24.729   8.868  0.2025  0.1626  0.0065
36189POPS   CNO80248  12.967  29.854  16.285 -0.0056 -0.0171 -0.1257
36189POPS   PO480249  13.294  29.727  16.499 -0.1775 -0.1325  0.0867
36189POPS   GL180250  13.092  29.915  16.704  0.0076  0.1653 -0.3946
36189POPS   GL280251  13.205  30.017  16.901  0.0215  0.1843 -0.1039
36189POPS   C1A80252  12.735  29.935  16.941  0.1358 -0.1791  0.0430
36189POPS   D2A80253  12.565  29.851  17.387 -0.2966  0.0743  0.0205
36189POPS   C3A80254  12.334  29.884  17.815 -0.1494  0.0051  0.0128
36189POPS   C4A80255  12.100  30.086  18.057  0.1491  0.0055 -0.1051
36189POPS   C1B80256  13.108  30.196  17.273 -0.0174  0.0801  0.0614
36189POPS   C2B80257  12.870  30.135  17.690  0.0860 -0.2704 -0.3611
36189POPS   C3B80258  12.674  30.282  18.071 -0.0217  0.0997  0.0309
36189POPS   C4B80259  12.297  30.587  18.165 -0.1925 -0.2049 -0.2616
36190POPS   CNO80260   0.901  22.969  16.072  0.0748 -0.0214  0.1486
36190POPS   PO480261   0.957  22.611  15.976  0.1640 -0.0441  0.1977
36190POPS   GL180262   0.768  22.560  16.266 -0.0870  0.1631  0.0084
36190POPS   GL280263   0.517  22.740  16.224  0.2835  0.1476  0.3008
36190POPS   C1A80264   0.727  22.471  16.741 -0.2567  0.4223  0.1846
36190POPS   D2A80265   0.934  22.344  17.107 -0.0550 -0.0077  0.1602
36190POPS   C3A80266   0.934  22.695  17.390 -0.0914  0.1261 -0.0558
36190POPS   C4A80267   0.921  22.764  17.837  0.0475 -0.1274 -0.1548
36190POPS   C1B80268   0.613  22.980  16.579 -0.0706 -0.0491 -0.0289
36190POPS   C2B80269   0.743  22.937  16.994 -0.0650  0.3251 -0.0965
36190POPS   C3B80270   0.652  23.052  17.500 -0.2190  0.0490 -0.2240
36190POPS   C4B80271   0.620  23.222  17.894 -0.0948  0.0583 -0.2146
36191POPS   CNO80272   7.465  27.505  15.045 -0.3928  0.3039 -0.3291
36191POPS   PO480273   7.422  27.105  15.053  0.1143  0.1941  0.0491
36191POPS   GL180274   7.485  26.744  15.396  0.1930 -0.4771  0.1014
36191POPS   GL280275   7.765  26.838  15.314 -0.1075 -0.0073 -0.0935
36191POPS   C1A80276   7.558  26.456  15.711 -0.0021  0.1088 -0.0507
36191POPS   D2A80277   7.467  26.116  15.970  0.1882 -0.0704  0.1800
36191POPS   C3A80278   7.524  25.667  15.958  0.0105  0.1618  0.0928
36191POPS   C4A80279   7.582  25.248  16.220  0.2082  0.3387  0.1320
36191POPS   C1B80280   7.862  26.902  15.746 -0.3136 -0.0253 -0.0166
36191POPS   C2B80281   7.717  26.631  16.144  0.2075 -0.0363 -0.2861
36191POPS   C3B80282   7.565  26.520  16.582 -0.0252  0.0055  0.1416
36191POPS   C4B80283   7.597  26.184  16.949  0.0442  0.1138 -0.3511
36192POPS   CNO80284  12.352  27.392  15.803 -0.1786 -0.0161 -0.2528
36192POPS   PO480285  12.063  27.495  16.015  0.3661 -0.1175  0.0522
36192POPS   GL180286  12.006  27.251  16.302 -0.1850  0.2364  0.1371
36192POPS   GL280287  12.116  26.966  16.207  0.0736 -0.1868  0.2191
36192POPS   C1A80288  11.722  27.163  16.631  0.0574 -0.0021  0.0691
36192POPS   D2A80289  11.535  26.854  16.949 -0.0891  0.2917 -0.0302
36192POPS   C3A80290  11.325  27.020  17.299 -0.0845  0.1175 -0.2146
36192POPS   C4A80291  11.527  27.306  17.620 -0.0766  0.3900 -0.0791
36192POPS   C1B80292  11.911  26.744  16.535  0.0314  0.1978 -0.1730
36192POPS   C2B80293  11.897  26.416  16.873  0.1189 -0.1753  0.1085
36192POPS   C3B80294  11.915  25.992  16.978  0.1732 -0.1141  0.0541
36192POPS   C4B80295  11.686  25.643  17.130  0.1536  0.0454  0.2072
36193POPS   CNO80296  14.005  32.497  15.551 -0.0520  0.0170  0.1611
36193POPS   PO480297  13.920  32.757  15.802  0.0155  0.1045  0.2594
36193POPS   GL180298  13.897  32.879  16.158 -0.3104  0.3817 -0.2471
36193POPS   GL280299  13.797  32.599  16.276 -0.0579  0.1843 -0.5189
36193POPS   C1A80300  13.694  33.158  16.383  0.0872 -0.3404  0.1843
36193POPS   D2A80301  13.507  33.392  16.708 -0.1992 -0.1758 -0.2065
36193POPS   C3A80302  13.858  33.478  16.970  0.1205  0.1291 -0.0003
36193POPS   C4A80303  14.148  33.751  16.930 -0.3280  0.0565  0.2260
36193POPS   C1B80304  13.788  32.488  16.735 -0.1398  0.1525 -0.2367
36193POPS   C2B80305  13.738  32.599  17.149  0.3865  0.0146 -0.1150
36193POPS   C3B80306  13.648  32.639  17.625  0.0148  0.1428  0.0697
36193POPS   C4B80307  13.468  32.612  18.040 -0.5722 -0.0918 -0.2586
36194POPS   CNO80308   3.094  30.598  16.114  0.2718  0.2996 -0.0360
36194POPS   PO480309   2.866  30.828  16.308  0.2023  0.1883 -0.1081
36194POPS   GL180310   2.895  30.942  16.645 -0.4294 -0.1719 -0.0709
36194POPS   GL280311   2.971  30.750  16.805  0.0735  0.3010 -0.0288
36194POPS   C1A80312   3.236  31.102  16.962 -0.1191 -0.1876 -0.2062
36194POPS   D2A80313   3.503  31.454  17.072  0.1214  0.2584 -0.0662
36194POPS   C3A80314   3.489  31.513  17.548  0.1077  0.0114  0.1584
36194POPS   C4A80315   3.110  31.711  17.786 -0.1045  0.0876  0.2906
36194POPS   C1B80316   3.089  30.682  17.236 -0.1889  0.0236  0.0861
36194POPS   C2B80317   3.073  30.729  17.708 -0.2008 -0.2083 -0.1763
36194POPS   C3B80318   2.810  30.591  18.013 -0.3237 -0.2339 -0.1126
36194POPS   C4B80319   2.880  30.427  18.426  0.1402  0.0292 -0.1844
36195POPS   CNO80320   7.424  26.594  14.975 -0.2673  0.0150  0.0768
36195POPS   PO480321   7.778  26.465  14.914  0.0292  0.1404  0.0518
36195POPS   GL180322   7.973  26.141  15.065 -0.4850  0.1340 -0.0342
36195POPS   GL280323   8.225  26.044  14.917 -0.0383 -0.2684  0.0809
36195POPS   C1A80324   8.256  25.975  15.379 -0.2108  0.0461  0.1755
36195POPS   D2A80325   8.502  25.821  15.737 -0.2476  0.1119 -0.0599
36195POPS   C3A80326   8.311  25.650  16.130  0.1215 -0.1330  0.0967
36195POPS   C4A80327   8.119  25.249  16.248 -0.0676 -0.0734 -0.0905
36195POPS   C1B80328   8.281  25.610  14.765 -0.0203 -0.0979  0.0259
36195POPS   C2B80329   8.278  25.223  14.945 -0.1984 -0.1826  0.3322
36195POPS   C3B80330   8.144  24.834  15.074 -0.0148  0.1119  0.1824
36195POPS   C4B80331   8.088  24.383  15.182 -0.1827 -0.1444 -0.3339
36196POPS   CNO80332   0.965  23.351  15.741 -0.2710  0.1872 -0.0100
36196POPS   PO480333   1.164  23.529  16.003 -0.2899  0.1839  0.0613
36196POPS   GL180334   1.091  23.408  16.417 -0.1103  0.0343 -0.1525
36196POPS   GL280335   0.738  23.516  16.358 -0.4540  0.2212  0.0323
36196POPS   C1A80336   1.130  22.942  16.611  0.3344 -0.3013 -0.2341
36196POPS   D2A80337   1.245  22.831  17.010 -0.1565 -0.0530  0.0724
36196POPS   C3A80338   1.538  23.055  17.261 -0.1065 -0.3034  0.0116
36196POPS   C4A80339   1.833  23.429  17.204  0.0091 -0.0889 -0.0884
36196POPS   C1B80340   0.819  23.359  16.792  0.0057 -0.2558  0.1187
36196POPS   C2B80341   0.622  23.512  17.180  0.2488 -0.1204  0.0362
36196POPS   C3B80342   0.320  23.577  17.508  0.2033  0.1296  0.0670
36196POPS   C4B80343   0.065  23.835  17.829 -0.2717  0.0838 -0.0840
36197POPS   CNO80344  10.375  16.549  13.622  0.1366 -0.1003 -0.0676
36197POPS   PO480345  10.717  16.492  13.775  0.3063 -0.1271 -0.0069
36197POPS   GL180346  10.840  16.710  13.990 -0.1195 -0.0751 -0.1973
36197POPS   GL280347  10.795  16.687  14.273  0.1462 -0.1876  0.2159
36197POPS   C1A80348  11.000  17.159  14.068 -0.1631  0.1870  0.1301
36197POPS   D2A80349  11.011  17.589  14.179  0.3954 -0.2508  0.0348
36197POPS   C3A80350  10.760  17.962  14.101  0.0288 -0.1291 -0.0164
36197POPS   C4A80351  10.509  18.314  14.021  0.0350 -0.0134  0.3570
36197POPS   C1B80352  10.593  17.108  14.328  0.2678  0.1045 -0.1608
36197POPS   C2B80353  10.650  17.508  14.586  0.0380 -0.0768  0.0385
36197POPS   C3B80354  10.728  17.863  14.872 -0.1705 -0.1929 -0.0817
36197POPS   C4B80355  11.104  17.944  15.067 -0.0020  0.1818 -0.0369
36198POPS   CNO80356  13.793  25.634  15.179 -0.1629  0.0891  0.0434
36198POPS   PO480357  13.699  25.978  15.297  0.0718  0.0502  0.0096
36198POPS   GL180358  13.430  25.732  15.550  0.2622  0.1566  0.0684
36198POPS   GL280359  13.179  25.906  15.565 -0.0686 -0.1081  0.4302
36198POPS   C1A80360  13.216  25.351  15.637  0.0645 -0.0736  0.1802
36198POPS   D2A80361  12.841  25.263  15.883 -0.2603  0.0815  0.0762
36198POPS   C3A80362  12.889  24.850  16.148 -0.1594  0.0545  0.0078
36198POPS   C4A80363  12.802  24.600  16.510 -0.0440 -0.0502  0.1581
36198POPS   C1B80364  12.904  25.778  15.942  0.2069  0.2536 -0.1897
36198POPS   C2B80365  12.822  26.037  16.329  0.0981 -0.0213  0.2022
36198POPS   C3B80366  12.750  26.052  16.755 -0.0509  0.0245 -0.2133
36198POPS   C4B80367  12.852  25.859  17.167  0.3404 -0.0297 -0.1101
36199POPS   CNO80368  15.987  17.310  15.501 -0.3325 -0.2228 -0.0331
36199POPS   PO480369  16.101  17.644  15.451 -0.0139 -0.1324 -0.2124
36199POPS   GL180370  15.964  17.977  15.751  0.3289  0.0770 -0.2600
36199POPS   GL280371  15.886  18.247  15.769  0.0318  0.3136 -0.1650
36199POPS   C1A80372  15.929  17.939  16.207 -0.2260  0.1257  0.4437
36199POPS   D2A80373  15.688  18.043  16.631 -0.0860  0.0278 -0.2950
36199POPS   C3A80374  15.562  18.077  17.100  0.0820  0.0923 -0.0586
36199POPS   C4A80375  15.341  17.896  17.450  0.5363 -0.2154  0.2903
36199POPS   C1B80376  16.017  18.422  16.200  0.0885  0.0242  0.0972
36199POPS   C2B80377  16.033  18.755  16.527 -0.2693 -0.1649 -0.0984
36199POPS   C3B80378  16.066  18.785  16.986 -0.3292 -0.1502  0.3422
36199POPS   C4B80379  16.222  18.653  17.393  0.0177 -0.1602  0.1400
36200POPS   CNO80380   0.167  31.650  16.225  0.0066  0.0320 -0.4767
36200POPS   PO480381   0.061  31.963  16.365  0.0507  0.1019  0.1538
36200POPS   GL180382   0.247  32.015  16.694 -0.1137  0.0436 -0.0344
36200POPS   GL280383   0.342  31.704  16.770 -0.0616  0.1602  0.1637
36200POPS   C1A80384   0.305  32.300  17.052  0.2904  0.3040  0.3244
36200POPS   D2A80385   0.138  32.542  17.416 -0.0277 -0.0024  0.0915
36200POPS   C3A80386  -0.160  32.614  17.784 -0.1186 -0.0726  0.1826
36200POPS   C4A80387  -0.437  32.868  18.003  0.1856 -0.1068 -0.0990
36200POPS   C1B80388   0.425  31.839  17.224 -0.0195 -0.2601 -0.0528
36200POPS   C2B80389   0.394  32.071  17.567 -0.1550  0.0278  0.3023
36200POPS   C3B80390   0.293  32.378  17.895 -0.1127  0.0719 -0.1169
36200POPS   C4B80391  -0.107  32.337  18.213  0.1649  0.2862 -0.0781
36201POPS   CNO80392   4.504  27.812  15.721  0.0954 -0.0877 -0.2655
36201POPS   PO480393   4.539  27.478  15.936  0.0886  0.3107 -0.0188
36201POPS   GL180394   4.517  27.283  16.169  0.0258 -0.1058 -0.3011
36201POPS   GL280395   4.584  27.020  16.097 -0.2751  0.1981 -0.0916
36201POPS   C1A80396   4.418  27.163  16.601  0.0821 -0.0712 -0.1133
36201POPS   D2A80397   4.197  27.050  17.000  0.0268  0.0346 -0.0420
36201POPS   C3A80398   4.064  26.971  17.413  0.1453 -0.0496 -0.1465
36201POPS   C4A80399   3.762  26.634  17.569  0.1165 -0.2297 -0.1396
36201POPS   C1B80400   4.817  26.825  16.447 -0.2415  0.1170  0.1715
36201POPS   C2B80401   5.001  26.934  16.860 -0.0247 -0.1942  0.2005
36201POPS   C3B80402   5.025  26.940  17.346 -0.1268  0.1081  0.2672
36201POPS   C4B80403   5.158  26.911  17.832 -0.0855 -0.0985 -0.2515
36202POPS   CNO80404  12.471  26.691  14.675 -0.1547 -0.3233  0.0297
36202POPS   PO480405  12.241  26.520  14.435  0.0999 -0.1362  0.1830
36202POPS   GL180406  12.120  26.230  14.227 -0.0033  0.1311 -0.1155
36202POPS   GL280407  12.170  25.958  14.349 -0.0029  0.1925  0.2499
36202POPS   C1A80408  11.716  26.005  14.184 -0.0770 -0.1473 -0.0203
36202POPS   D2A80409  11.501  25.567  14.167 -0.0621 -0.0646 -0.2885
36202POPS   C3A80410  11.449  25.201  14.440 -0.0662  0.2912  0.1834
36202POPS   C4A80411  11.454  24.821  14.702  0.0936 -0.1387 -0.0911
36202POPS   C1B80412  11.886  25.669  14.597 -0.0378 -0.2390  0.6224
36202POPS   C2B80413  11.607  25.627  14.916 -0.1001  0.2461 -0.3007
36202POPS   C3B80414  11.312  25.826  15.161  0.0025  0.4236 -0.0701
36202POPS   C4B80415  11.076  26.094  14.898 -0.2191  0.1067  0.0835
36203POPS   CNO80416   6.623  25.955  14.238 -0.0594 -0.0466 -0.2971
36203POPS   PO480417   6.252  25.942  14.349 -0.1972  0.2122 -0.2594
36203POPS   GL180418   6.459  25.723  14.694 -0.3228 -0.2920  0.2804
36203POPS   GL280419   6.462  25.941  14.900  0.2445  0.0644 -0.0661
36203POPS   C1A80420   6.840  25.397  14.815 -0.1025 -0.2567  0.1414
36203POPS   D2A80421   6.909  24.977  15.012  0.0543  0.2270  0.1590
36203POPS   C3A80422   6.962  24.780  15.395 -0.0882 -0.1308 -0.1027
36203POPS   C4A80423   7.275  24.595  15.653 -0.0540  0.1787 -0.2591
36203POPS   C1B80424   6.409  25.543  15.115  0.0579  0.0129 -0.0482
36203POPS   C2B80425   6.568  25.207  15.390  0.3737  0.0169  0.1510
36203POPS   C3B80426   6.767  25.052  15.774 -0.1595 -0.1065  0.2176
36203POPS   C4B80427   7.168  24.927  16.034  0.0929  0.2542  0.0733
36204POPS   CNO80428  16.343  19.620  15.285  0.2109 -0.1070 -0.1176
36204POPS   PO480429  16.393  19.423  15.596  0.1155  0.0352 -0.3849
36204POPS   GL180430  16.632  19.317  15.803 -0.0645 -0.1325 -0.0634
36204POPS   GL280431  16.903  19.272  15.791  0.0729 -0.1766 -0.0022
36204POPS   C1A80432  16.685  19.175  16.275  0.0945 -0.0352  0.1974
36204POPS   D2A80433  16.561  19.028  16.714 -0.0459  0.0965 -0.0992
36204POPS   C3A80434  16.568  18.922  17.155 -0.1998 -0.4945  0.1583
36204POPS   C4A80435  16.525  18.978  17.559  0.1145 -0.1481 -0.2834
36204POPS   C1B80436  16.914  19.571  16.120  0.2794  0.0080 -0.2056
36204POPS   C2B80437  16.874  19.648  16.546  0.0383 -0.0429 -0.3413
36204POPS   C3B80438  16.890  19.313  16.899  0.0476  0.0171 -0.2705
36204POPS   C4B80439  16.994  19.230  17.335 -0.0215  0.3067  0.1786
36205POPS   CNO80440   0.959  20.195  19.989  0.2211  0.1131 -0.1145
36205POPS   PO480441   0.605  20.250  19.873 -0.0155 -0.0308  0.1049
36205POPS   GL180442   0.875  20.290  19.553  0.1679 -0.0026 -0.1511
36205POPS   GL280443   0.839  20.256  19.276  0.1512  0.2200 -0.1401
36205POPS   C1A80444   1.279  20.412  19.557  0.1748 -0.3236  0.3376
36205POPS   D2A80445   1.543  20.621  19.252  0.2186  0.0571  0.0902
36205POPS   C3A80446   1.481  21.084  19.067  0.0853  0.1423 -0.1107
36205POPS   C4A80447   1.145  21.358  19.008 -0.0743  0.0844  0.2740
36205POPS   C1B80448   1.183  20.390  19.006 -0.2616  0.0973  0.0051
36205POPS   C2B80449   1.384  20.353  18.600  0.1360  0.1002 -0.1443
36205POPS   C3B80450   1.422  19.968  18.369  0.2755 -0.1905 -0.2803
36205POPS   C4B80451   1.491  19.788  17.942 -0.1442  0.2153  0.0741
36206POPS   CNO80452  13.451  31.635  20.831 -0.0389 -0.0284  0.1509
36206POPS   PO480453  13.715  31.674  20.586  0.2432 -0.2710 -0.0242
36206POPS   GL180454  13.934  31.858  20.307 -0.2653 -0.1997 -0.0597
36206POPS   GL280455  14.142  31.682  20.154 -0.1506 -0.2546 -0.1391
36206POPS   C1A80456  13.797  32.079  19.945  0.2626  0.1496  0.0591
36206POPS   D2A80457  13.411  32.239  19.717 -0.2594  0.0007 -0.0145
36206POPS   C3A80458  13.530  32.230  19.253  0.1981  0.1841 -0.0859
36206POPS   C4A80459  13.801  32.220  18.871 -0.0736  0.2502  0.0817
36206POPS   C1B80460  14.129  31.603  19.710 -0.0582 -0.1812 -0.0151
36206POPS   C2B80461  14.186  31.186  19.473  0.0231  0.3158  0.0319
36206POPS   C3B80462  14.106  31.000  19.100  0.1520 -0.0567  0.2890
36206POPS   C4B80463  14.009  30.818  18.704 -0.1147  0.0383 -0.0014
36207POPS   CNO80464   8.624  20.548  17.305 -0.3899  0.1158 -0.4581
36207POPS   PO480465   8.339  20.326  17.234  0.3163  0.0644  0.0995
36207POPS   GL180466   8.198  20.153  16.911 -0.0698  0.0577  0.0812
36207POPS   GL280467   8.065  19.948  16.981 -0.3682  0.2900  0.0660
36207POPS   C1A80468   7.954  20.220  16.513  0.0126 -0.2186 -0.0048
36207POPS   D2A80469   7.700  19.987  16.197  0.0538  0.0838 -0.0879
36207POPS   C3A80470   7.815  19.687  15.959  0.1179 -0.1171  0.1982
36207POPS   C4A80471   7.872  19.380  15.604  0.0066  0.3648 -0.0463
36207POPS   C1B80472   7.834  19.665  16.726  0.3171 -0.0474 -0.1827
36207POPS   C2B80473   7.443  19.461  16.481 -0.2650 -0.2607  0.0335
36207POPS   C3B80474   7.001  19.424  16.355 -0.1951  0.2336  0.2126
36207POPS   C4B80475   6.610  19.690  16.161  0.2931  0.2302 -0.1030
36208POPS   CNO80476   3.576  25.883  20.340 -0.3308  0.0904 -0.0334
36208POPS   PO480477   3.619  26.158  20.039  0.2213  0.1270 -0.0567
36208POPS   GL180478   3.462  26.340  19.764  0.0933  0.2552 -0.0108
36208POPS   GL280479   3.195  26.419  19.921  0.2959 -0.3449 -0.2301
36208POPS   C1A80480   3.525  26.487  19.309  0.0537 -0.1537  0.2290
36208POPS   D2A80481   3.479  26.679  18.903  0.2940 -0.1077 -0.0943
36208POPS   C3A80482   3.186  27.054  18.822  0.1937 -0.0917 -0.1279
36208POPS   C4A80483   2.838  27.197  18.573 -0.1749 -0.1882  0.0880
36208POPS   C1B80484   3.131  26.281  19.458  0.3371 -0.2049 -0.2850
36208POPS   C2B80485   2.945  26.263  19.037 -0.1219 -0.0391 -0.1262
36208POPS   C3B80486   2.960  26.613  18.706 -0.0946  0.1541  0.3135
36208POPS   C4B80487   3.324  26.753  18.387  0.2337  0.0171  0.1204
36209POPS   CNO80488  13.697  23.923  19.336 -0.2053 -0.2564 -0.2146
36209POPS   PO480489  13.412  23.845  19.145 -0.1075 -0.0142  0.1096
36209POPS   GL180490  13.525  24.128  18.931 -0.0348  0.0581 -0.0813
36209POPS   GL280491  13.395  24.414  18.924 -0.1047 -0.0795 -0.4624
36209POPS   C1A80492  13.667  24.079  18.523  0.3742  0.2898 -0.1513
36209POPS   D2A80493  14.040  24.160  18.350 -0.2860 -0.3136 -0.0057
36209POPS   C3A80494  14.193  24.488  17.993 -0.1254  0.0700  0.1790
36209POPS   C4A80495  14.606  24.541  17.805 -0.2474 -0.1111 -0.2393
36209POPS   C1B80496  13.741  24.693  18.829  0.2154  0.0949 -0.1019
36209POPS   C2B80497  13.879  25.122  18.788  0.2161 -0.0772 -0.0693
36209POPS   C3B80498  13.800  25.249  18.340 -0.1045 -0.3206 -0.0212
36209POPS   C4B80499  13.592  25.255  17.915  0.2212 -0.3788  0.1638
36210POPS   CNO80500   0.088  20.968  19.949 -0.1403 -0.1237  0.3217
36210POPS   PO480501   0.171  20.968  19.565 -0.1041  0.0499 -0.2454
36210POPS   GL180502   0.235  21.128  19.139 -0.3377 -0.0233  0.2386
36210POPS   GL280503  -0.062  21.068  19.114 -0.1664 -0.1194  0.1474
36210POPS   C1A80504   0.213  21.014  18.684  0.0871 -0.0985  0.3475
36210POPS   D2A80505   0.133  20.995  18.227  0.1060  0.3692 -0.0176
36210POPS   C3A80506  -0.112  20.765  17.932  0.3213 -0.2949  0.2786
36210POPS   C4A80507  -0.466  21.006  17.703  0.2312 -0.1219  0.0201
36210POPS   C1B80508  -0.263  21.237  18.728 -0.0646 -0.1622 -0.1281
36210POPS   C2B80509  -0.006  21.426  18.411  0.0859  0.1781  0.0592
36210POPS   C3B80510   0.226  21.772  18.225 -0.0048  0.0762 -0.0011
36210POPS   C4B80511   0.477  21.823  17.882  0.1427  0.0225  0.1499
36211POPS   CNO80512   3.631  17.544  20.203  0.1306  0.2758  0.0030
36211POPS   PO480513   3.980  17.427  20.113 -0.0192  0.0594 -0.1097
36211POPS   GL180514   3.827  17.639  19.777 -0.1762 -0.1367  0.0808
36211POPS   GL280515   3.597  17.460  19.716 -0.1336  0.2357  0.1691
36211POPS   C1A80516   3.785  17.760  19.354 -0.1870 -0.1336 -0.1069
36211POPS   D2A80517   3.977  17.654  18.940 -0.0515  0.1085 -0.1580
36211POPS   C3A80518   4.285  17.545  18.621  0.2124 -0.0623  0.0612
36211POPS   C4A80519   4.680  17.311  18.444  0.2380 -0.0096  0.4046
36211POPS   C1B80520   3.472  17.387  19.299  0.2030  0.3778 -0.0416
36211POPS   C2B80521   3.576  17.240  18.879 -0.2863 -0.3333  0.3927
36211POPS   C3B80522   3.481  17.057  18.430 -0.0079  0.3211 -0.1842
36211POPS   C4B80523   3.397  16.940  17.980  0.0573  0.0719 -0.1999
36212POPS   CNO80524   4.800  18.554  19.732  0.0513 -0.0355  0.3222
36212POPS   PO480525   4.969  18.862  19.895  0.2639 -0.1389 -0.0595
36212POPS   GL180526   5.058  18.778  19.432 -0.0548  0.1070 -0.3892
36212POPS   GL280527   5.050  19.000  19.299 -0.0749  0.1613  0.2167
36212POPS   C1A80528   5.179  18.346  19.426 -0.1911  0.3749 -0.0725
36212POPS   D2A80529   5.100  17.935  19.145  0.0494 -0.1425 -0.0138
36212POPS   C3A80530   5.350  17.647  18.855  0.2079 -0.0329  0.0378
36212POPS   C4A80531   5.304  17.357  18.456  0.0289 -0.1664 -0.0833
36212POPS   C1B80532   4.820  18.628  19.088 -0.2234  0.2028  0.1253
36212POPS   C2B80533   4.725  18.179  18.852 -0.0805  0.1583  0.0264
36212POPS   C3B80534   4.290  18.016  18.884 -0.0212 -0.0393  0.0046
36212POPS   C4B80535   4.059  18.118  19.252  0.2318 -0.2093  0.0431
36213POPS   CNO80536  14.687  17.084  20.227  0.2587 -0.3804  0.3352
36213POPS   PO480537  14.887  17.191  19.940  0.4332  0.3207  0.1150
36213POPS   GL180538  14.785  17.078  19.671  0.0621  0.2766 -0.3520
36213POPS   GL280539  14.805  17.273  19.443 -0.1109 -0.0685 -0.2377
36213POPS   C1A80540  14.338  16.889  19.608 -0.0327 -0.2252 -0.3750
36213POPS   D2A80541  14.040  16.719  19.363 -0.2139 -0.0422 -0.0888
36213POPS   C3A80542  14.086  16.775  18.924 -0.0046  0.2946 -0.2842
36213POPS   C4A80543  13.781  16.869  18.607 -0.2698 -0.0416  0.2834
36213POPS   C1B80544  14.848  17.237  18.972  0.0975  0.0019  0.1368
36213POPS   C2B80545  14.656  16.964  18.685  0.1374 -0.3482 -0.0357
36213POPS   C3B80546  14.623  17.036  18.242 -0.3636  0.0454 -0.3061
36213POPS   C4B80547  14.533  17.076  17.804  0.1392  0.2359 -0.1181
36214POPS   CNO80548   4.074  20.890  19.278  0.0357 -0.1873 -0.3129
36214POPS   PO480549   4.353  20.660  19.226 -0.1080 -0.1149  0.2426
36214POPS   GL180550   4.375  20.506  18.848 -0.2862 -0.0361  0.2056
36214POPS   GL280551   4.711  20.617  18.842 -0.1734  0.0811  0.2122
36214POPS   C1A80552   4.265  20.317  18.455  0.0083 -0.1109  0.0413
36214POPS   D2A80553   4.359  20.191  18.033  0.0462 -0.0114 -0.1704
36214POPS   C3A80554   4.081  20.466  17.773 -0.2106 -0.2695  0.1295
36214POPS   C4A80555   4.053  20.681  17.356 -0.0488 -0.0900 -0.2718
36214POPS   C1B80556   4.749  20.780  18.374  0.1337 -0.0896 -0.0579
36214POPS   C2B80557   4.733  21.085  18.077  0.0086 -0.2946  0.1551
36214POPS   C3B80558   4.371  21.357  18.074 -0.0708  0.0187  0.1640
36214POPS   C4B80559   3.969  21.558  17.861 -0.1298 -0.1512  0.4706
36215POPS   CNO80560   9.304  31.632  19.906 -0.5092 -0.2442 -0.0352
36215POPS   PO480561   8.991  31.779  19.987  0.2574  0.0820  0.0967
36215POPS   GL180562   8.920  31.870  19.570  0.2187 -0.4675  0.1028
36215POPS   GL280563   8.777  32.118  19.581 -0.0635 -0.0787  0.1689
36215POPS   C1A80564   9.274  32.011  19.298  0.2720  0.0924  0.2546
36215POPS   D2A80565   9.558  31.848  18.928 -0.0587  0.3021 -0.1133
36215POPS   C3A80566   9.747  31.483  19.143 -0.1233 -0.2494  0.0387
36215POPS   C4A80567  10.230  31.524  19.137  0.1358  0.0551  0.0804
36215POPS   C1B80568   8.648  32.037  19.152 -0.2924  0.2234  0.0934
36215POPS   C2B80569   8.497  32.020  18.677  0.1837  0.0913  0.0564
36215POPS   C3B80570   8.537  32.245  18.197 -0.2956  0.0126  0.1660
36215POPS   C4B80571   8.492  32.712  18.118  0.0407  0.3247  0.0551
36216POPS   CNO80572  10.808  28.458  20.735 -0.0029 -0.0280 -0.4283
36216POPS   PO480573  10.654  28.757  20.544 -0.2572 -0.0764  0.0965
36216POPS   GL180574  10.698  28.868  20.159  0.1909 -0.0472  0.1493
36216POPS   GL280575  10.812  28.685  20.006  0.0070 -0.1093  0.1399
36216POPS   C1A80576  10.448  28.973  19.751  0.0115  0.1321  0.0757
36216POPS   D2A80577  10.176  29.317  19.609  0.0743 -0.1394 -0.2286
36216POPS   C3A80578   9.955  29.281  19.202 -0.1436  0.0405  0.1437
36216POPS   C4A80579   9.760  29.326  18.800 -0.1213 -0.0836  0.0142
36216POPS   C1B80580  11.130  28.415  19.834  0.1942 -0.1397  0.0950
36216POPS   C2B80581  11.426  28.392  19.477  0.2698 -0.1824  0.1007
36216POPS   C3B80582  11.699  28.636  19.195 -0.0299  0.3059 -0.1258
36216POPS   C4B80583  11.837  28.756  18.788 -0.0503  0.1646 -0.1579
36217POPS   CNO80584  10.347  21.504  13.487 -0.2123  0.0234 -0.2782
36217POPS   PO480585  10.121  21.402  13.180 -0.1119  0.0723 -0.2414
36217POPS   GL180586   9.980  20.942  13.057 -0.0241  0.0015  0.0446
36217POPS   GL280587  10.072  20.833  12.783  0.1513 -0.0330  0.0929
36217POPS   C1A80588   9.812  20.572  13.255 -0.1604 -0.0106 -0.1629
36217POPS   D2A80589   9.764  20.089  13.161 -0.0038  0.1384  0.0652
36217POPS   C3A80590   9.924  19.654  13.242  0.1160 -0.0480 -0.1111
36217POPS   C4A80591  10.229  19.457  13.475 -0.1152 -0.0031 -0.2164
36217POPS   C1B80592   9.776  20.470  12.681  0.2019  0.2145 -0.2067
36217POPS   C2B80593   9.774  20.011  12.702  0.0432 -0.2075 -0.0854
36217POPS   C3B80594   9.487  19.670  12.875  0.1399 -0.3544  0.2903
36217POPS   C4B80595   9.176  19.364  12.945 -0.1274 -0.0272  0.3602
36218POPS   CNO80596  15.261  26.164  20.744  0.3158 -0.0861 -0.0359
36218POPS   PO480597  15.019  26.127  20.432  0.0956  0.1344 -0.1356
36218POPS   GL180598  14.928  26.062  20.029 -0.5709  0.1841  0.1325
36218POPS   GL280599  14.790  25.831  19.812  0.3197  0.2110  0.1804
36218POPS   C1A80600  14.597  26.276  19.768  0.4504  0.0865  0.0666
36218POPS   D2A80601  14.776  26.320  19.337 -0.2771 -0.1084 -0.1841
36218POPS   C3A80602  15.227  26.323  19.163  0.0480  0.4880 -0.1976
36218POPS   C4A80603  15.459  26.496  18.767 -0.0542 -0.1638 -0.3308
36218POPS   C1B80604  14.706  25.837  19.366 -0.0785 -0.0229  0.1724
36218POPS   C2B80605  14.894  25.999  18.971 -0.0716  0.1939  0.3115
36218POPS   C3B80606  14.944  26.397  18.757 -0.0223 -0.0108 -0.1486
36218POPS   C4B80607  15.039  26.858  18.791 -0.0317 -0.0921 -0.0381
36219POPS   CNO80608   0.877  17.579  19.891 -0.1183  0.1539 -0.1348
36219POPS   PO480609   1.111  17.374  20.117 -0.2705 -0.0903  0.1195
36219POPS   GL180610   1.192  17.195  19.745 -0.0415  0.1111 -0.4660
36219POPS   GL280611   1.396  17.424  19.668 -0.0809 -0.0234 -0.0339
36219POPS   C1A80612   1.610  16.934  19.720  0.0259 -0.4321  0.1986
36219POPS   D2A80613   1.708  16.905  19.275 -0.1434 -0.2148  0.0354
36219POPS   C3A80614   1.499  16.726  18.940  0.0702  0.3767  0.0371
36219POPS   C4A80615   1.380  16.756  18.470  0.1355 -0.0481 -0.1118
36219POPS   C1B80616   1.219  17.179  19.332  0.0958 -0.1427 -0.1672
36219POPS   C2B80617   1.164  17.198  18.828  0.3939 -0.1049  0.3148
36219POPS   C3B80618   0.915  17.009  18.430  0.0079  0.0835  0.0308
36219POPS   C4B80619   0.722  17.065  18.041  0.3399 -0.1040  0.0555
36220POPS   CNO80620   0.363  27.718  20.474  0.1372  0.0383  0.1034
36220POPS   PO480621   0.618  27.425  20.458  0.1737 -0.2185 -0.0412
36220POPS   GL180622   0.937  27.450  20.261 -0.0749 -0.1156 -0.1554
36220POPS   GL280623   0.956  27.127  20.180 -0.2068  0.0936  0.0725
36220POPS   C1A80624   0.950  27.503  19.785  0.2442 -0.0459 -0.0187
36220POPS   D2A80625   0.583  27.530  19.523 -0.1493  0.0298 -0.0544
36220POPS   C3A80626   0.455  27.829  19.190 -0.4663  0.0361 -0.0235
36220POPS   C4A80627   0.493  28.259  19.241 -0.1081  0.1694  0.1996
36220POPS   C1B80628   0.877  26.997  19.759  0.3337  0.1825 -0.2138
36220POPS   C2B80629   0.678  27.001  19.367 -0.2199  0.1643 -0.1349
36220POPS   C3B80630   0.536  26.893  18.948 -0.1036  0.1957  0.1244
36220POPS   C4B80631   0.483  26.773  18.490  0.1575 -0.0190  0.1971
36221POPS   CNO80632  11.155  21.913  11.633 -0.0350 -0.1130  0.2272
36221POPS   PO480633  10.949  21.618  11.757 -0.2920  0.4468 -0.0688
36221POPS   GL180634  11.071  21.363  11.591 -0.3137  0.0007 -0.0964
36221POPS   GL280635  11.409  21.408  11.634  0.2600 -0.2478  0.0156
36221POPS   C1A80636  10.965  20.961  11.402 -0.1349  0.2416 -0.0782
36221POPS   D2A80637  10.920  20.809  10.951  0.0806  0.3760  0.0614
36221POPS   C3A80638  11.390  20.774  10.822  0.0920  0.1043  0.0987
36221POPS   C4A80639  11.766  20.564  11.028 -0.0476 -0.1202  0.3336
36221POPS   C1B80640  11.784  21.261  11.910 -0.0822 -0.2067 -0.0978
36221POPS   C2B80641  12.247  21.214  11.904  0.1393 -0.1147  0.4813
36221POPS   C3B80642  12.594  21.462  12.036  0.2482  0.1654 -0.1479
36221POPS   C4B80643  12.977  21.494  12.243  0.1251  0.3779  0.0331
36222POPS   CNO80644   2.362  31.067  20.722 -0.1079 -0.1846  0.0018
36222POPS   PO480645   2.296  31.300  20.431 -0.1871 -0.0909  0.0413
36222POPS   GL180646   2.169  31.520  20.035 -0.1502 -0.0500 -0.2906
36222POPS   GL280647   2.297  31.367  19.832 -0.0439 -0.1172  0.1230
36222POPS   C1A80648   2.135  31.855  19.755  0.1375 -0.0475 -0.2381
36222POPS   D2A80649   2.252  32.057  19.367 -0.0385  0.2642  0.0190
36222POPS   C3A80650   2.055  32.167  18.984  0.0032 -0.0295  0.1275
36222POPS   C4A80651   1.795  32.433  18.774 -0.1951 -0.3226  0.0425
36222POPS   C1B80652   2.319  31.337  19.379  0.1622  0.3087  0.0144
36222POPS   C2B80653   2.627  31.319  19.016  0.0209 -0.2537  0.1117
36222POPS   C3B80654   2.680  31.560  18.606  0.1872 -0.1603 -0.0002
36222POPS   C4B80655   2.663  31.875  18.255  0.0916  0.0216 -0.1294
36223POPS   CNO80656   9.493  21.043  15.486  0.2563  0.1189 -0.0584
36223POPS   PO480657   9.254  20.794  15.637 -0.0943 -0.2492  0.1507
36223POPS   GL180658   8.863  20.783  15.505 -0.2028  0.0906 -0.1835
36223POPS   GL280659   8.599  20.965  15.555 -0.0783 -0.0722 -0.1034
36223POPS   C1A80660   8.729  20.455  15.237  0.3630  0.1334  0.0765
36223POPS   D2A80661   8.505  20.124  14.972 -0.0960  0.0770  0.2065
36223POPS   C3A80662   8.455  19.940  14.585  0.0003  0.1872 -0.1684
36223POPS   C4A80663   8.583  19.664  14.238 -0.0091 -0.1602 -0.2699
36223POPS   C1B80664   8.273  20.829  15.254  0.0543 -0.2329 -0.0386
36223POPS   C2B80665   7.809  20.832  15.108 -0.2093 -0.1543  0.1093
36223POPS   C3B80666   7.476  20.854  14.797 -0.0032  0.0504  0.3868
36223POPS   C4B80667   7.297  21.004  14.331 -0.1834 -0.0722  0.0312
36224POPS   CNO80668  11.347  21.299  15.997 -0.2536  0.2129 -0.0700
36224POPS   PO480669  11.682  21.306  16.243  0.2181  0.0979 -0.0154
36224POPS   GL180670  11.978  21.361  15.937 -0.0211  0.0779  0.2936
36224POPS   GL280671  11.751  21.382  15.698  0.0389 -0.2092 -0.0433
36224POPS   C1A80672  12.439  21.485  15.923  0.1029 -0.0317  0.0856
36224POPS   D2A80673  12.856  21.422  15.702 -0.1595  0.2904 -0.1787
36224POPS   C3A80674  13.164  21.736  15.472  0.0595  0.0112 -0.4603
36224POPS   C4A80675  13.426  22.076  15.240 -0.3242  0.2005  0.2158
36224POPS   C1B80676  12.030  21.727  15.605 -0.2115 -0.1841 -0.0678
36224POPS   C2B80677  12.254  21.792  15.179 -0.0298 -0.3664  0.0571
36224POPS   C3B80678  12.499  21.902  14.776 -0.1080 -0.0870 -0.2414
36224POPS   C4B80679  12.530  22.312  14.512 -0.2846  0.1284 -0.1960
36225POPS   CNO80680   5.295  19.859  19.036 -0.1689 -0.1444  0.1095
36225POPS   PO480681   5.520  19.743  18.789 -0.0517 -0.5011 -0.2839
36225POPS   GL180682   5.726  19.477  18.602 -0.0074  0.4005  0.5850
36225POPS   GL280683   5.601  19.549  18.352 -0.2187  0.1778 -0.0343
36225POPS   C1A80684   5.636  19.052  18.368  0.1096 -0.1008 -0.0880
36225POPS   D2A80685   5.620  18.891  17.971  0.1324  0.0527  0.1946
36225POPS   C3A80686   5.696  18.544  17.632  0.0766  0.0513  0.2332
36225POPS   C4A80687   5.726  18.290  17.221  0.2450  0.1001 -0.0924
36225POPS   C1B80688   5.487  19.434  17.926  0.2871  0.1947  0.0583
36225POPS   C2B80689   5.261  19.178  17.597 -0.0513 -0.1949 -0.0944
36225POPS   C3B80690   4.935  18.981  17.367 -0.2586  0.1808  0.2540
36225POPS   C4B80691   4.517  18.881  17.251  0.0977 -0.2018  0.0645
36226POPS   CNO80692   2.241  20.804  20.173  0.0192 -0.0394  0.1275
36226POPS   PO480693   2.154  20.686  19.827  0.6590  0.1509  0.1005
36226POPS   GL180694   2.013  20.709  19.406 -0.0325 -0.1747  0.1485
36226POPS   GL280695   2.033  20.651  19.143  0.1542  0.0229 -0.0520
36226POPS   C1A80696   1.870  21.145  19.415  0.4627  0.0992  0.2236
36226POPS   D2A80697   1.951  21.562  19.499  0.0044  0.4089 -0.0641
36226POPS   C3A80698   2.224  21.812  19.252 -0.0599  0.0916  0.1674
36226POPS   C4A80699   2.357  22.156  18.920  0.0216  0.1252 -0.2588
36226POPS   C1B80700   1.735  20.723  18.729  0.1719  0.0363 -0.0319
36226POPS   C2B80701   1.638  20.601  18.264  0.0893 -0.1698 -0.1324
36226POPS   C3B80702   1.730  20.652  17.824  0.2014  0.1778 -0.1170
36226POPS   C4B80703   1.914  20.857  17.503 -0.1738  0.0362 -0.1784
36227POPS   CNO80704   8.067  27.568  20.033  0.0718 -0.0407 -0.2842
36227POPS   PO480705   8.194  27.911  20.069  0.0727 -0.0011 -0.0411
36227POPS   GL180706   8.186  27.922  19.745 -0.3572  0.1514  0.2912
36227POPS   GL280707   8.433  27.956  19.605  0.1368 -0.0270 -0.2669
36227POPS   C1A80708   7.964  27.779  19.351 -0.1008 -0.1137 -0.0978
36227POPS   D2A80709   7.841  27.895  18.915 -0.2768 -0.0277  0.0913
36227POPS   C3A80710   7.969  28.157  18.577 -0.2327  0.0938 -0.1845
36227POPS   C4A80711   8.175  28.299  18.218  0.1031  0.0453  0.3683
36227POPS   C1B80712   8.495  27.778  19.186  0.0668  0.2945  0.0371
36227POPS   C2B80713   8.706  27.399  18.954 -0.0941  0.1413  0.0524
36227POPS   C3B80714   8.958  27.302  18.578 -0.2297 -0.0460  0.0552
36227POPS   C4B80715   8.929  27.306  18.121 -0.0870 -0.1782 -0.0254
36228POPS   CNO80716   1.684  22.421  20.516 -0.3273  0.1261 -0.0599
36228POPS   PO480717   1.607  22.407  20.138  0.0450 -0.1752  0.0581
36228POPS   GL180718   1.368  22.534  19.820  0.2400  0.0414 -0.2194
36228POPS   GL280719   1.282  22.377  19.619  0.1632  0.0069 -0.0056
36228POPS   C1A80720   1.183  22.913  19.627 -0.2940 -0.3669 -0.2134
36228POPS   D2A80721   1.162  23.289  19.392  0.2385 -0.0408 -0.0049
36228POPS   C3A80722   1.186  23.392  18.924  0.0480 -0.4557 -0.0419
36228POPS   C4A80723   0.931  23.493  18.531  0.1511 -0.0320 -0.1155
36228POPS   C1B80724   1.602  22.634  19.363  0.0391  0.3551  0.0465
36228POPS   C2B80725   1.828  22.613  18.961 -0.2097 -0.2507  0.3160
36228POPS   C3B80726   1.874  22.871  18.571  0.0919  0.1933 -0.3225
36228POPS   C4B80727   2.144  22.893  18.220  0.2033 -0.1008  0.4890
36229POPS   CNO80728  10.489  25.783  19.623  0.1721  0.2505  0.0819
36229POPS   PO480729  10.372  25.716  19.246 -0.0634 -0.1160  0.1613
36229POPS   GL180730  10.118  25.927  19.102 -0.0776  0.3336  0.0976
36229POPS   GL280731  10.311  26.166  18.966  0.0013  0.2553  0.0681
36229POPS   C1A80732   9.965  26.017  18.627  0.2090 -0.2098  0.0355
36229POPS   D2A80733   9.957  26.386  18.401  0.0626 -0.1338 -0.1326
36229POPS   C3A80734  10.312  26.600  18.164  0.0701  0.2907 -0.1525
36229POPS   C4A80735  10.589  26.971  18.107 -0.0151  0.0909 -0.0055
36229POPS   C1B80736  10.445  26.483  18.656  0.0219 -0.1355 -0.5294
36229POPS   C2B80737  10.816  26.434  18.339 -0.1703 -0.0699 -0.1899
36229POPS   C3B80738  10.811  26.500  17.901  0.0047  0.0329 -0.0601
36229POPS   C4B80739  11.167  26.645  17.598  0.2883  0.0506 -0.1140
36230POPS   CNO80740  14.844  18.056  19.913 -0.1642 -0.1967 -0.3242
36230POPS   PO480741  15.073  18.366  19.823 -0.0935 -0.1661 -0.0377
36230POPS   GL180742  15.272  18.516  19.432 -0.2808  0.3217  0.0701
36230POPS   GL280743  15.021  18.649  19.328  0.0913 -0.0330 -0.1778
36230POPS   C1A80744  15.295  18.418  18.950  0.0006  0.1705  0.2884
36230POPS   D2A80745  15.396  18.282  18.544 -0.3610 -0.0297  0.0536
36230POPS   C3A80746  15.335  18.578  18.194 -0.1883  0.2256 -0.0481
36230POPS   C4A80747  15.584  18.702  17.833 -0.0570 -0.4378 -0.0483
36230POPS   C1B80748  15.025  18.878  18.917 -0.2333 -0.0441  0.0726
36230POPS   C2B80749  14.976  18.883  18.449  0.0054 -0.0571  0.0629
36230POPS   C3B80750  15.091  18.997  17.999  0.2089  0.1272  0.0715
36230POPS   C4B80751  15.052  18.892  17.535  0.2219  0.0616 -0.2018
36231POPS   CNO80752   0.487  29.993  21.356  0.0888 -0.0075  0.2212
36231POPS   PO480753   0.447  29.981  20.966 -0.3337  0.0917 -0.0174
36231POPS   GL180754   0.492  29.939  20.572 -0.1851  0.1098  0.0517
36231POPS   GL280755   0.711  29.805  20.476  0.0554 -0.2238  0.0953
36231POPS   C1A80756   0.306  30.145  20.225  0.0510  0.1989  0.2961
36231POPS   D2A80757  -0.024  30.482  20.202 -0.2007  0.2466  0.0897
36231POPS   C3A80758  -0.363  30.724  20.136 -0.1927  0.1639 -0.1626
36231POPS   C4A80759  -0.800  30.712  19.984 -0.2439 -0.0584 -0.0782
36231POPS   C1B80760   1.076  29.800  20.176  0.0430 -0.1500  0.0269
36231POPS   C2B80761   1.114  29.882  19.705  0.0723 -0.2539 -0.0793
36231POPS   C3B80762   0.997  30.135  19.306 -0.0729  0.0330  0.1863
36231POPS   C4B80763   1.195  30.326  18.941 -0.0925  0.0562 -0.2087
36232POPS   CNO80764   8.733  25.284  18.577  0.1963  0.1170 -0.2152
36232POPS   PO480765   8.812  25.157  18.237 -0.0241 -0.2036 -0.0608
36232POPS   GL180766   8.626  25.250  17.974 -0.0986 -0.0232 -0.0303
36232POPS   GL280767   8.792  25.488  17.857  0.4464 -0.0104 -0.0434
36232POPS   C1A80768   8.192  25.243  17.817  0.4708 -0.1289 -0.4141
36232POPS   D2A80769   7.856  25.507  17.599 -0.1808  0.0404  0.0196
36232POPS   C3A80770   7.683  25.272  17.191 -0.4012  0.0188 -0.0697
36232POPS   C4A80771   7.561  25.146  16.751 -0.2878  0.0844 -0.1462
36232POPS   C1B80772   8.771  25.891  17.716 -0.1697 -0.0137  0.1511
36232POPS   C2B80773   8.900  26.320  17.750  0.0956  0.2897 -0.5473
36232POPS   C3B80774   8.691  26.677  17.949 -0.0435  0.0702 -0.2161
36232POPS   C4B80775   8.501  27.084  18.018 -0.0526  0.1263 -0.2217
36233POPS   CNO80776   7.503  20.683  18.204 -0.1088 -0.2614 -0.1172
36233POPS   PO480777   7.290  21.021  18.125 -0.1839 -0.0768  0.2319
36233POPS   GL180778   7.113  20.707  17.927  0.2961  0.0692  0.1557
36233POPS   GL280779   7.181  20.553  17.746  0.2865 -0.4728  0.0672
36233POPS   C1A80780   6.724  20.735  17.624 -0.0572 -0.0511  0.3095
36233POPS   D2A80781   6.564  20.729  17.178 -0.2085  0.2986  0.3106
36233POPS   C3A80782   6.455  20.308  16.947  0.0162 -0.0974  0.2904
36233POPS   C4A80783   6.645  20.162  16.510 -0.2415  0.3738  0.0718
36233POPS   C1B80784   6.954  20.365  17.364 -0.4130  0.1341 -0.0324
36233POPS   C2B80785   6.971  20.097  16.968  0.0137  0.0832 -0.1083
36233POPS   C3B80786   6.913  19.672  16.774  0.0579  0.3561  0.1337
36233POPS   C4B80787   6.499  19.435  16.678 -0.3399  0.0148 -0.3811
36234POPS   CNO80788   9.471  20.215  16.881 -0.2288  0.2706 -0.3901
36234POPS   PO480789   9.189  20.051  16.677  0.2102 -0.2667 -0.0693
36234POPS   GL180790   9.051  19.654  16.872  0.2387 -0.0285  0.2720
36234POPS   GL280791   9.202  19.526  16.667  0.0934 -0.0407 -0.1167
36234POPS   C1A80792   8.662  19.562  16.630 -0.0425  0.0296  0.0048
36234POPS   D2A80793   8.249  19.392  16.699  0.1205 -0.1978  0.4381
36234POPS   C3A80794   8.057  18.987  16.627 -0.1209 -0.0707 -0.3059
36234POPS   C4A80795   7.863  18.720  16.346  0.0801 -0.0787  0.2861
36234POPS   C1B80796   9.018  19.323  16.217 -0.1358  0.1762 -0.0200
36234POPS   C2B80797   9.062  18.976  15.934 -0.3387  0.1564  0.1573
36234POPS   C3B80798   9.047  18.901  15.465 -0.3463  0.0065 -0.0503
36234POPS   C4B80799   8.855  18.589  15.246  0.1195  0.0250  0.1348
36235POPS   CNO80800   9.717  29.071  20.791 -0.1748 -0.1092  0.0093
36235POPS   PO480801   9.629  28.870  20.498  0.1818 -0.0251 -0.2386
36235POPS   GL180802   9.840  28.905  20.192  0.0970  0.1509  0.4402
36235POPS   GL280803   9.852  28.687  19.983 -0.2613 -0.2759  0.0087
36235POPS   C1A80804   9.785  29.225  19.892  0.0250  0.2076 -0.0340
36235POPS   D2A80805   9.527  29.415  19.579 -0.1644 -0.3404  0.0299
36235POPS   C3A80806   9.740  29.696  19.300  0.4481  0.1644 -0.1732
36235POPS   C4A80807   9.729  30.053  19.071 -0.1388 -0.0786 -0.1431
36235POPS   C1B80808   9.853  28.860  19.546  0.2735 -0.0151  0.3819
36235POPS   C2B80809   9.691  28.670  19.185 -0.1006  0.1042 -0.1763
36235POPS   C3B80810   9.852  28.822  18.766 -0.0013 -0.2940  0.1249
36235POPS   C4B80811   9.978  29.068  18.369  0.1934 -0.0730 -0.0830
36236POPS   CNO80812  15.718  26.746  20.763  0.4912  0.0370  0.1595
36236POPS   PO480813  15.829  26.426  20.573  0.1266  0.0046 -0.0637
36236POPS   GL180814  15.910  26.652  20.219 -0.1530 -0.3247 -0.1385
36236POPS   GL280815  16.069  26.454  20.106 -0.1789 -0.1695 -0.0345
36236POPS   C1A80816  15.623  26.732  19.874 -0.5267 -0.1422 -0.0411
36236POPS   D2A80817  15.225  26.931  19.698 -0.1048  0.0728 -0.1129
36236POPS   C3A80818  14.995  26.810  19.299 -0.0490  0.0977  0.0131
36236POPS   C4A80819  14.636  26.755  19.041  0.0771  0.2025  0.0274
36236POPS   C1B80820  16.077  26.542  19.686  0.1032 -0.0264 -0.3006
36236POPS   C2B80821  15.963  26.905  19.443 -0.5406 -0.0252 -0.1671
36236POPS   C3B80822  16.328  27.210  19.298  0.0173 -0.1024  0.3527
36236POPS   C4B80823  16.768  27.342  19.117  0.0752  0.1048 -0.1471
36237POPS   CNO80824   2.031  18.301  20.119  0.0191 -0.1626 -0.0230
36237POPS   PO480825   2.326  18.042  20.218  0.2116 -0.1931  0.0623
36237POPS   GL180826   2.515  18.010  19.852  0.3644 -0.2263  0.0046
36237POPS   GL280827   2.219  18.013  19.694  0.0076 -0.0444 -0.0248
36237POPS   C1A80828   2.592  17.795  19.453  0.0451  0.1659  0.3039
36237POPS   D2A80829   2.572  17.461  19.105  0.2372  0.0574 -0.1238
36237POPS   C3A80830   2.783  17.723  18.755  0.1918 -0.0432  0.1797
36237POPS   C4A80831   2.905  17.942  18.393 -0.3297 -0.0486 -0.2859
36237POPS   C1B80832   2.123  18.360  19.358  0.0494 -0.0812 -0.1333
36237POPS   C2B80833   1.771  18.617  19.228  0.0719  0.0229  0.1157
36237POPS   C3B80834   1.350  18.723  19.091  0.0165 -0.0873 -0.1937
36237POPS   C4B80835   1.181  18.615  18.688  0.0809  0.1914  0.2404
36238POPS   CNO80836  14.443  17.774  19.737 -0.0039 -0.0612  0.0539
36238POPS   PO480837  14.125  17.636  19.615  0.1148  0.2882  0.1106
36238POPS   GL180838  14.316  17.533  19.251 -0.1006  0.1379 -0.0808
36238POPS   GL280839  14.252  17.276  19.284  0.1686  0.1668  0.1569
36238POPS   C1A80840  14.773  17.703  19.106 -0.2313  0.0559 -0.2999
36238POPS   D2A80841  14.983  17.986  18.838 -0.0431  0.2159 -0.3784
36238POPS   C3A80842  15.182  17.809  18.391 -0.0552  0.3770  0.2837
36238POPS   C4A80843  15.482  17.681  18.080 -0.0427  0.1414  0.1168
36238POPS   C1B80844  14.355  17.333  18.860  0.2309 -0.3222  0.1080
36238POPS   C2B80845  14.172  17.127  18.430 -0.1979 -0.0809 -0.0988
36238POPS   C3B80846  14.212  16.783  18.119  0.0318  0.3353 -0.3318
36238POPS   C4B80847  14.218  16.434  17.785  0.0285 -0.2880  0.1702
36239POPS   CNO80848   8.971  16.231  19.728 -0.1265  0.1055  0.0673
36239POPS   PO480849   9.130  15.987  19.500  0.1150  0.3191 -0.0813
36239POPS   GL180850   8.976  15.813  19.247  0.0256 -0.0587 -0.1230
36239POPS   GL280851   9.060  15.913  18.995 -0.1762 -0.0271  0.3058
36239POPS   C1A80852   8.569  15.780  18.943  0.1024  0.1154  0.1497
36239POPS   D2A80853   8.514  15.536  18.549 -0.0803 -0.0460  0.1121
36239POPS   C3A80854   8.245  15.567  18.124  0.2739  0.2023 -0.0646
36239POPS   C4A80855   8.390  15.611  17.738 -0.1360  0.0431  0.2201
36239POPS   C1B80856   8.924  15.940  18.517 -0.0508  0.3111 -0.4206
36239POPS   C2B80857   8.729  15.853  18.099 -0.0210  0.0409  0.0079
36239POPS   C3B80858   8.804  15.853  17.625 -0.0193 -0.0253  0.0111
36239POPS   C4B80859   8.837  16.105  17.192 -0.0421  0.1424 -0.0712
36240POPS   CNO80860  16.416  26.061  20.160 -0.0508  0.2756 -0.0021
36240POPS   PO480861  16.099  26.024  20.386 -0.2973 -0.2317  0.0402
36240POPS   GL180862  15.830  26.061  20.054 -0.6087  0.0159  0.7253
36240POPS   GL280863  16.066  25.994  19.861  0.0672  0.1587  0.0417
36240POPS   C1A80864  15.645  26.278  19.707  0.1368  0.0541 -0.1487
36240POPS   D2A80865  15.689  26.526  19.315  0.0427 -0.1075 -0.0161
36240POPS   C3A80866  15.515  26.954  19.189 -0.0910  0.3677  0.0349
36240POPS   C4A80867  15.535  27.205  18.838 -0.1383 -0.2089  0.3184
36240POPS   C1B80868  16.069  26.121  19.392  0.1050 -0.1833 -0.0451
36240POPS   C2B80869  15.972  26.309  18.932 -0.2187  0.2231 -0.1531
36240POPS   C3B80870  16.139  26.397  18.506 -0.0280  0.0680 -0.2112
36240POPS   C4B80871  16.563  26.415  18.305 -0.0783 -0.2252 -0.0628
36241POPS   CNO80872  12.555  22.352  18.608 -0.3396  0.1458 -0.2233
36241POPS   PO480873  12.847  22.156  18.513  0.1128 -0.0703  0.1909
36241POPS   GL180874  13.007  22.569  18.427 -0.0063  0.0632  0.0355
36241POPS   GL280875  13.247  22.628  18.355 -0.3285 -0.1503  0.0673
36241POPS   C1A80876  12.951  22.623  17.926  0.1376  0.1375  0.1814
36241POPS   D2A80877  13.107  22.596  17.492  0.2247  0.3018  0.1980
36241POPS   C3A80878  13.322  22.812  17.097 -0.4065 -0.0149 -0.0829
36241POPS   C4A80879  13.550  23.026  16.748  0.0528  0.2403 -0.2490
36241POPS   C1B80880  13.503  22.884  18.026 -0.1564  0.0176 -0.1253
36241POPS   C2B80881  13.678  22.990  17.571  0.1235  0.3069 -0.2701
36241POPS   C3B80882  13.879  23.215  17.207  0.0554 -0.0696  0.1700
36241POPS   C4B80883  13.906  23.577  16.961 -0.1680 -0.1239 -0.1242
36242POPS   CNO80884   9.764  22.552  14.544 -0.1747  0.0064 -0.0684
36242POPS   PO480885   9.692  22.944  14.453  0.0580  0.1887 -0.0094
36242POPS   GL180886   9.423  23.273  14.328  0.4853  0.0960  0.1500
36242POPS   GL280887   9.341  23.287  14.073  0.1203  0.4756 -0.0054
36242POPS   C1A80888   9.584  23.694  14.472 -0.2035  0.1955 -0.2925
36242POPS   D2A80889   9.321  24.106  14.508 -0.0330 -0.0169 -0.3485
36242POPS   C3A80890   9.260  24.371  14.922  0.2740  0.0103 -0.0636
36242POPS   C4A80891   9.111  24.747  15.111  0.3247  0.0460 -0.4378
36242POPS   C1B80892   9.217  23.694  13.958 -0.2289 -0.1156 -0.1674
36242POPS   C2B80893   9.416  24.155  14.036 -0.1888  0.0962 -0.2925
36242POPS   C3B80894   9.726  24.525  14.066  0.4859  0.0810 -0.4926
36242POPS   C4B80895  10.004  24.729  14.451 -0.2076  0.2303 -0.2653
36243POPS   CNO80896   6.016  27.468  20.261 -0.1288 -0.2790  0.2925
36243POPS   PO480897   6.270  27.490  20.015  0.1610  0.2028  0.0796
36243POPS   GL180898   6.391  27.723  19.686 -0.1640 -0.0026  0.1869
36243POPS   GL280899   6.402  27.678  19.375  0.1831 -0.3257 -0.0766
36243POPS   C1A80900   6.396  28.156  19.613  0.1053  0.0714 -0.2210
36243POPS   D2A80901   6.311  28.478  19.303 -0.2286  0.0876 -0.0853
36243POPS   C3A80902   6.635  28.596  18.953 -0.1164  0.0373  0.0262
36243POPS   C4A80903   6.607  28.631  18.532  0.0090 -0.0359  0.0564
36243POPS   C1B80904   6.057  27.974  19.208 -0.0906 -0.0072  0.0881
36243POPS   C2B80905   5.874  28.259  18.943  0.0766 -0.0309 -0.1005
36243POPS   C3B80906   5.984  28.727  18.889 -0.0039 -0.0154 -0.2818
36243POPS   C4B80907   5.876  29.146  19.039 -0.3183 -0.0451 -0.1381
36244POPS   CNO80908   8.237  25.067  18.501  0.0686 -0.0210 -0.0296
36244POPS   PO480909   8.229  24.687  18.478  0.0654  0.0699 -0.2089
36244POPS   GL180910   8.133  24.744  18.141  0.2082 -0.5190 -0.0857
36244POPS   GL280911   7.918  24.521  18.089  0.0431 -0.2794  0.2471
36244POPS   C1A80912   7.802  24.992  17.921  0.2322 -0.0237  0.0312
36244POPS   D2A80913   7.505  25.093  17.633 -0.0467 -0.1573  0.2166
36244POPS   C3A80914   7.295  25.522  17.489  0.0887  0.2156  0.2535
36244POPS   C4A80915   7.297  25.900  17.208  0.1302 -0.0748  0.4036
36244POPS   C1B80916   7.634  24.564  17.633  0.2481 -0.0861 -0.0200
36244POPS   C2B80917   7.562  24.782  17.202  0.0557 -0.0061  0.0229
36244POPS   C3B80918   7.288  24.766  16.859 -0.0370 -0.1410 -0.0847
36244POPS   C4B80919   7.024  24.792  16.518 -0.0540 -0.0965  0.0021
36245POPS   CNO80920  11.018  27.251  20.661  0.0067  0.2957  0.0265
36245POPS   PO480921  11.338  27.196  20.515 -0.2486 -0.2633  0.1151
36245POPS   GL180922  11.426  27.327  20.136 -0.1268  0.2543 -0.0352
36245POPS   GL280923  11.251  27.261  19.966  0.2056  0.0065  0.0339
36245POPS   C1A80924  11.752  27.620  19.856  0.0818  0.0535  0.1438
36245POPS   D2A80925  11.957  27.621  19.450 -0.1073  0.2474  0.2415
36245POPS   C3A80926  12.156  27.317  19.154  0.0082  0.0620 -0.0938
36245POPS   C4A80927  12.259  27.021  18.834  0.1190  0.1607 -0.1519
36245POPS   C1B80928  11.445  27.283  19.535 -0.0818 -0.2077 -0.0114
36245POPS   C2B80929  11.518  27.465  19.120 -0.2093  0.3585  0.0320
36245POPS   C3B80930  11.312  27.620  18.714  0.0764 -0.1809  0.3582
36245POPS   C4B80931  11.156  27.914  18.357  0.0777 -0.2437  0.0581
36246POPS   CNO80932   3.453  18.746  20.178 -0.1834  0.1861 -0.0822
36246POPS   PO480933   3.103  18.715  20.072 -0.0113 -0.1797 -0.0435
36246POPS   GL180934   3.044  18.410  19.761 -0.1730 -0.1825 -0.3975
36246POPS   GL280935   2.975  18.208  19.960 -0.1955  0.0060  0.3699
36246POPS   C1A80936   3.173  18.382  19.287  0.3834 -0.3397  0.1251
36246POPS   D2A80937   3.211  18.294  18.879 -0.0849  0.0325  0.1212
36246POPS   C3A80938   3.399  18.329  18.468  0.3480  0.0069  0.3730
36246POPS   C4A80939   3.660  18.430  18.085  0.5182 -0.2268  0.2092
36246POPS   C1B80940   3.100  17.949  19.620  0.0221 -0.1087 -0.0394
36246POPS   C2B80941   3.028  17.591  19.367 -0.2251  0.0340 -0.0975
36246POPS   C3B80942   3.109  17.344  18.941  0.0481  0.3210  0.0949
36246POPS   C4B80943   3.130  17.453  18.483 -0.2758 -0.0084  0.0354
36247POPS   CNO80944  10.522  21.003  15.645 -0.1686 -0.0024  0.0168
36247POPS   PO480945  10.588  20.682  15.483 -0.0890 -0.2010 -0.1073
36247POPS   GL180946  10.668  20.355  15.201  0.2749 -0.0591 -0.3120
36247POPS   GL280947  10.850  20.206  15.403 -0.3666  0.0610  0.2272
36247POPS   C1A80948  10.767  19.919  14.983 -0.1582 -0.0587 -0.3639
36247POPS   D2A80949  10.705  19.486  14.844  0.1197  0.3732 -0.0430
36247POPS   C3A80950  10.438  19.116  14.710 -0.1978  0.1388 -0.0648
36247POPS   C4A80951  10.183  18.738  14.557 -0.0336  0.1789 -0.1388
36247POPS   C1B80952  11.059  19.782  15.382  0.2605  0.1298  0.0719
36247POPS   C2B80953  11.223  19.518  15.052  0.0519  0.1045 -0.1007
36247POPS   C3B80954  11.338  19.378  14.604  0.0813  0.2087  0.2035
36247POPS   C4B80955  11.568  19.086  14.305  0.1093 -0.0630 -0.0949
36248POPS   CNO80956  13.180  28.398  20.752  0.0534  0.0705  0.0325
36248POPS   PO480957  12.836  28.444  20.607 -0.4592 -0.1959 -0.2395
36248POPS   GL180958  12.947  28.482  20.272  0.3415 -0.1491  0.4179
36248POPS   GL280959  13.201  28.388  20.207  0.1046 -0.1015 -0.1871
36248POPS   C1A80960  12.860  28.336  19.823 -0.1593  0.3304 -0.0202
36248POPS   D2A80961  12.959  28.290  19.346 -0.0576  0.1916 -0.0398
36248POPS   C3A80962  12.745  28.026  19.056  0.0425 -0.0460  0.0551
36248POPS   C4A80963  12.487  27.651  18.896  0.1051 -0.0415  0.2612
36248POPS   C1B80964  13.360  28.386  19.765  0.1309 -0.1832  0.0125
36248POPS   C2B80965  13.261  28.787  19.474 -0.1282  0.0509  0.2823
36248POPS   C3B80966  12.965  28.969  19.119 -0.0264  0.0305 -0.2898
36248POPS   C4B80967  12.633  28.930  18.803 -0.0969  0.1051  0.0153
36249POPS   CNO80968   9.914  17.862  18.944 -0.0339 -0.0745  0.1877
36249POPS   PO480969   9.954  18.239  18.913 -0.0310 -0.1756  0.0757
36249POPS   GL180970  10.059  18.019  18.518  0.2670  0.3172  0.1961
36249POPS   GL280971   9.770  18.006  18.447 -0.0594 -0.0135 -0.2165
36249POPS   C1A80972  10.011  17.562  18.454  0.1054 -0.1041 -0.0936
36249POPS   D2A80973  10.296  17.219  18.413  0.0284 -0.2128 -0.1824
36249POPS   C3A80974  10.316  16.944  18.031 -0.0867 -0.1910 -0.2425
36249POPS   C4A80975  10.394  16.818  17.541  0.0437  0.2182 -0.1390
36249POPS   C1B80976   9.831  17.993  17.983 -0.1263 -0.0561 -0.1729
36249POPS   C2B80977   9.919  17.800  17.549  0.3033 -0.1725 -0.2702
36249POPS   C3B80978   9.991  17.605  17.169  0.2745  0.1617  0.0624
36249POPS   C4B80979  10.353  17.372  16.952 -0.0192 -0.0249  0.1048
36250POPS   CNO80980   9.737  21.304  14.043 -0.0733  0.3363 -0.1128
36250POPS   PO480981   9.740  20.953  14.013  0.1623 -0.2855  0.1364
36250POPS   GL180982   9.483  20.851  13.913 -0.0913  0.0136  0.1905
36250POPS   GL280983   9.571  20.501  13.846 -0.5715  0.0877 -0.0489
36250POPS   C1A80984   9.076  20.639  13.922  0.2442  0.2548 -0.0435
36250POPS   D2A80985   8.819  20.448  14.242  0.3999  0.1612 -0.0088
36250POPS   C3A80986   8.382  20.323  14.214 -0.1130 -0.1152 -0.2374
36250POPS   C4A80987   8.062  19.974  14.297  0.2156  0.3005 -0.2740
36250POPS   C1B80988   9.397  20.356  13.480  0.0468 -0.1931 -0.3678
36250POPS   C2B80989   9.310  20.267  13.018 -0.0575  0.0614  0.0949
36250POPS   C3B80990   9.388  20.245  12.574  0.1281 -0.1301  0.0742
36250POPS   C4B80991   9.640  20.107  12.229  0.0180  0.0136  0.1668
36251POPS   CNO80992   3.065  28.087  20.704 -0.1565 -0.1878  0.0932
36251POPS   PO480993   2.712  28.235  20.643 -0.3395  0.1793  0.0552
36251POPS   GL180994   2.985  28.192  20.258  0.1748  0.3614  0.0087
36251POPS   GL280995   3.288  28.050  20.274 -0.4403  0.2212  0.0339
36251POPS   C1A80996   2.985  28.007  19.831 -0.1809 -0.2287  0.0917
36251POPS   D2A80997   2.689  28.114  19.445 -0.2189  0.0731  0.1208
36251POPS   C3A80998   2.787  27.975  19.035 -0.1590  0.0165  0.0519
36251POPS   C4A80999   3.016  27.629  18.843 -0.0744 -0.0791 -0.3463
36251POPS   C1B81000   3.484  28.167  19.831 -0.1810  0.0824  0.2787
36251POPS   C2B81001   3.654  28.219  19.399  0.0699 -0.2370  0.2933
36251POPS   C3B81002   3.825  28.468  19.051  0.1489  0.0995 -0.2568
36251POPS   C4B81003   4.045  28.639  18.686  0.2297  0.1851 -0.1282
36252POPS   CNO81004  13.208  32.149  20.640  0.1218 -0.1957 -0.0610
36252POPS   PO481005  13.110  31.889  20.383  0.2801 -0.0628  0.1063
36252POPS   GL181006  13.066  31.698  20.086 -0.0963 -0.2916 -0.0404
36252POPS   GL281007  12.770  31.620  20.061 -0.0290 -0.0346  0.1461
36252POPS   C1A81008  13.020  31.279  19.872  0.0827 -0.0427 -0.3927
36252POPS   D2A81009  13.176  30.987  19.551 -0.4512 -0.0631  0.1145
36252POPS   C3A81010  12.809  30.871  19.419 -0.0868  0.0780 -0.4018
36252POPS   C4A81011  12.377  30.639  19.361  0.1954  0.0252  0.2695
36252POPS   C1B81012  12.967  31.728  19.670 -0.0834 -0.1217 -0.1295
36252POPS   C2B81013  13.174  31.876  19.254 -0.0334  0.2373 -0.0043
36252POPS   C3B81014  13.470  31.826  18.881  0.2509  0.0690 -0.1384
36252POPS   C4B81015  13.647  31.856  18.447 -0.0528  0.1406  0.0411
36253POPS   CNO81016  11.305  23.514  18.422 -0.2697  0.1151 -0.2880
36253POPS   PO481017  11.523  23.381  18.142  0.0555 -0.0627  0.2191
36253POPS   GL181018  11.768  23.628  18.086  0.1736  0.2800  0.1721
36253POPS   GL281019  11.777  23.719  17.789 -0.2376  0.2899  0.1051
36253POPS   C1A81020  12.201  23.633  18.123  0.0231  0.4075  0.2009
36253POPS   D2A81021  12.593  23.423  18.086  0.4279 -0.0661  0.0940
36253POPS   C3A81022  12.961  23.521  17.821  0.4312 -0.0992  0.1475
36253POPS   C4A81023  13.351  23.497  17.607 -0.1148  0.1461 -0.0351
36253POPS   C1B81024  11.672  24.121  17.605  0.1222 -0.0793  0.2598
36253POPS   C2B81025  11.747  24.361  17.211 -0.0485 -0.3374 -0.1329
36253POPS   C3B81026  12.122  24.607  17.077 -0.0162 -0.2017  0.0374
36253POPS   C4B81027  12.511  24.831  16.871  0.3429 -0.0901  0.0995
36254POPS   CNO81028   4.650  21.682  19.210 -0.2762  0.0700  0.1205
36254POPS   PO481029   4.297  21.602  19.223 -0.1714  0.0792  0.1186
36254POPS   GL181030   4.424  21.603  18.815  0.3116  0.1696 -0.4169
36254POPS   GL281031   4.233  21.397  18.608 -0.3215 -0.4220  0.0839
36254POPS   C1A81032   4.322  21.859  18.396  0.2288 -0.1307 -0.1518
36254POPS   D2A81033   4.013  22.120  18.280  0.2463 -0.0188 -0.1979
36254POPS   C3A81034   3.742  21.987  17.969 -0.0570  0.4132 -0.0949
36254POPS   C4A81035   3.685  21.975  17.540  0.1049  0.0881 -0.2043
36254POPS   C1B81036   3.838  21.606  18.371 -0.0760  0.2721 -0.0070
36254POPS   C2B81037   3.353  21.618  18.341  0.0750 -0.1130  0.0771
36254POPS   C3B81038   3.042  21.562  18.002 -0.1036 -0.0026 -0.1795
36254POPS   C4B81039   2.772  21.320  17.644  0.4202 -0.0095  0.0356
36255POPS   CNO81040   5.692  24.981  19.477 -0.1329  0.2034  0.0956
36255POPS   PO481041   5.770  24.784  19.152 -0.1883 -0.0323  0.2156
36255POPS   GL181042   5.740  24.975  18.859  0.4648  0.2252 -0.1528
36255POPS   GL281043   5.871  24.820  18.662  0.1398  0.1467 -0.0725
36255POPS   C1A81044   5.833  25.391  18.632  0.0832  0.2485 -0.1125
36255POPS   D2A81045   5.997  25.445  18.219 -0.0657 -0.1025  0.2939
36255POPS   C3A81046   5.777  25.506  17.822 -0.3977 -0.0396 -0.0256
36255POPS   C4A81047   5.581  25.212  17.461 -0.3056 -0.0707 -0.3057
36255POPS   C1B81048   5.643  24.914  18.345  0.0150  0.0003 -0.1634
36255POPS   C2B81049   5.420  25.140  17.982 -0.2152  0.0386  0.0616
36255POPS   C3B81050   5.245  25.500  17.752  0.3425 -0.3047  0.1774
36255POPS   C4B81051   4.991  25.892  17.726  0.0761 -0.2919 -0.0655
36256SAP2    C181052   4.982  18.040  10.134  0.1098  0.0966 -0.2039
36256SAP2    C281053   4.878  18.127  10.376  0.2037  0.1234 -0.1727
36256SAP2    C381054   5.184  17.996  10.333  0.1270 -0.0321 -0.2498
36256SAP2    C481055   5.014  18.055  10.281  0.0269  0.7378  0.7097
36256SAP2   PO481056   4.898  18.228   9.900 -0.2747  0.1684 -0.1268
36256SAP2    P481057   5.250  17.891  10.578  0.0897  0.0804 -0.2637
36256SAP2    P581058   4.821  18.050  10.681  0.0639 -0.5775 -0.2562
36256SAP2   GL181059   5.062  18.042   9.625 -0.4520 -0.1582  0.1678
36256SAP2   GL281060   5.242  18.319   9.576 -0.0527  0.2890  0.1909
36256SAP2   D1A81061   4.972  17.743   9.296 -0.0205 -0.0567  0.0466
36256SAP2   D2A81062   4.904  17.850   8.859 -0.0445 -0.2229  0.3383
36256SAP2   D3A81063   5.341  17.831   8.587  0.1356 -0.0077  0.0247
36256SAP2   D4A81064   5.539  18.162   8.852 -0.2426  0.1307 -0.0443
36256SAP2   C5A81065   5.433  18.014   9.211  0.0741 -0.3542 -0.0965
36256SAP2   C1B81066   5.605  18.506   9.377  0.1907  0.2016  0.3964
36256SAP2   C2B81067   5.776  18.746   9.059 -0.1251  0.0175  0.2115
36256SAP2   C3B81068   6.103  18.942   8.746 -0.1289  0.1146 -0.2281
36256SAP2   C4B81069   6.260  19.322   8.467 -0.2876  0.0933  0.0902
36257SAP2    C181070  15.728  22.115  10.379 -0.0575 -0.0865 -0.1483
36257SAP2    C281071  15.893  21.973  10.208  0.1694 -0.0775  0.0576
36257SAP2    C381072  15.912  21.969  10.543 -0.0148  0.2090  0.0747
36257SAP2    C481073  15.844  22.019  10.377 -0.0708 -0.2596  0.0713
36257SAP2   PO481074  15.442  22.209  10.312  0.1105  0.0694 -0.1781
36257SAP2    P481075  16.110  21.748  10.559 -0.1002  0.2146 -0.2302
36257SAP2    P581076  16.211  22.000  10.166  0.2953 -0.1200 -0.1017
36257SAP2   GL181077  15.147  22.191  10.044 -0.0735  0.2291 -0.0514
36257SAP2   GL281078  14.864  22.194  10.118 -0.0202 -0.0491  0.3918
36257SAP2   D1A81079  15.160  21.875   9.728  0.3163  0.3465 -0.1764
36257SAP2   D2A81080  14.976  22.170   9.350  0.0543  0.0845  0.0278
36257SAP2   D3A81081  14.821  22.092   8.942  0.0273  0.1292  0.2610
36257SAP2   D4A81082  14.572  22.254   8.550  0.1320 -0.0718 -0.0475
36257SAP2   C5A81083  14.128  22.104   8.715 -0.1572 -0.1476  0.0702
36257SAP2   C1B81084  14.434  22.086   9.981 -0.1956  0.1075  0.1032
36257SAP2   C2B81085  14.002  22.239  10.024  0.0055 -0.1689 -0.1477
36257SAP2   C3B81086  13.592  22.031  10.052  0.0938 -0.0201 -0.2510
36257SAP2   C4B81087  13.510  21.672   9.846  0.1964 -0.2082  0.2209
36258SAP2    C181088  13.981  18.755  11.610 -0.0089  0.0794 -0.1188
36258SAP2    C281089  14.183  18.722  11.424  0.1453 -0.0743  0.0705
36258SAP2    C381090  14.133  18.527  11.693 -0.0060  0.2085  0.2529
36258SAP2    C481091  14.099  18.668  11.576 -0.0176  0.5223 -0.1214
36258SAP2   PO481092  13.710  18.847  11.471  0.1286 -0.0223  0.0196
36258SAP2    P481093  14.442  18.377  11.680  0.0706  0.0763  0.1033
36258SAP2    P581094  14.518  18.732  11.336  0.0121 -0.0006 -0.0928
36258SAP2   GL181095  13.736  19.219  11.354  0.4039 -0.1065 -0.1418
36258SAP2   GL281096  13.491  19.223  11.567 -0.1243 -0.1686  0.0344
36258SAP2   D1A81097  14.005  19.640  11.313 -0.0822  0.1107 -0.1176
36258SAP2   D2A81098  13.959  20.052  11.465 -0.0377 -0.2476  0.2776
36258SAP2   D3A81099  14.153  19.788  11.835  0.0728  0.1528 -0.0770
36258SAP2   D4A81100  13.725  19.690  11.696  0.2185 -0.2902 -0.1388
36258SAP2   C5A81101  13.468  19.966  11.967  0.1304 -0.0869  0.1566
36258SAP2   C1B81102  13.209  19.586  11.649 -0.1001  0.3095  0.0346
36258SAP2   C2B81103  12.833  19.882  11.622 -0.2134  0.0944 -0.0824
36258SAP2   C3B81104  12.521  19.978  11.981  0.3141 -0.0960 -0.1495
36258SAP2   C4B81105  12.260  20.308  12.171  0.0663 -0.1184  0.0202
36259SAP2    C181106   3.924  18.745  10.166 -0.0811  0.2338 -0.0286
36259SAP2    C281107   4.051  18.950  10.301  0.3271  0.0940 -0.1845
36259SAP2    C381108   4.011  18.637  10.417  0.1936  0.1157 -0.1704
36259SAP2    C481109   3.995  18.778  10.295 -1.0529 -0.5420  0.1439
36259SAP2   PO481110   4.041  18.800   9.861 -0.4263 -0.0609  0.0094
36259SAP2    P481111   4.182  18.626  10.639  0.1250  0.1890 -0.2987
36259SAP2    P581112   4.009  19.142  10.522  0.0157  0.0350  0.1189
36259SAP2   GL181113   4.354  18.844   9.761 -0.3646 -0.2148  0.0725
36259SAP2   GL281114   4.522  19.062   9.543  0.2470  0.1631  0.1930
36259SAP2   D1A81115   4.146  18.906   9.294 -0.0785  0.1786  0.0277
36259SAP2   D2A81116   4.366  19.267   9.122 -0.1156  0.1282 -0.2837
36259SAP2   D3A81117   4.650  19.260   8.726  0.3086  0.2540  0.1042
36259SAP2   D4A81118   4.313  19.074   8.458  0.0758 -0.2894  0.0684
36259SAP2   C5A81119   4.295  18.808   8.136 -0.3475 -0.0007  0.3141
36259SAP2   C1B81120   4.726  18.892   9.194  0.2169 -0.1118 -0.1540
36259SAP2   C2B81121   4.982  18.909   8.761 -0.0409 -0.2161  0.3322
36259SAP2   C3B81122   5.287  19.154   8.469  0.3896  0.0339 -0.1013
36259SAP2   C4B81123   5.743  19.272   8.545  0.0043  0.0497  0.0785
36260SAP2    C181124   2.523  18.026   9.750 -0.2453  0.0226  0.0763
36260SAP2    C281125   2.346  17.840   9.646 -0.1917 -0.1471  0.2813
36260SAP2    C381126   2.263  18.094   9.850 -0.2670  0.0675 -0.0097
36260SAP2    C481127   2.377  17.987   9.749 -0.5513  0.1727 -0.2569
36260SAP2   PO481128   2.730  18.065   9.437 -0.1044  0.0269  0.1317
36260SAP2    P481129   1.931  18.097   9.855 -0.0628 -0.0807 -0.0396
36260SAP2    P581130   2.139  17.676   9.750 -0.1151  0.0834  0.1013
36260SAP2   GL181131   3.027  18.254   9.350  0.4773 -0.1516  0.1677
36260SAP2   GL281132   3.200  18.157   9.171  0.0719  0.1319  0.3031
36260SAP2   D1A81133   3.006  18.643   9.029 -0.1739  0.2038 -0.0550
36260SAP2   D2A81134   2.734  18.672   8.623 -0.1174 -0.0489 -0.4503
36260SAP2   D3A81135   2.630  18.518   8.235 -0.0231  0.0830 -0.0884
36260SAP2   D4A81136   2.965  18.827   8.133 -0.1379  0.4079 -0.1178
36260SAP2   C5A81137   2.899  18.540   7.812 -0.2256  0.1364  0.2299
36260SAP2   C1B81138   2.962  18.198   8.817 -0.1834  0.2164  0.0651
36260SAP2   C2B81139   3.052  18.381   8.400  0.3183  0.2600  0.0460
36260SAP2   C3B81140   3.416  18.584   8.203 -0.2473 -0.2916 -0.0955
36260SAP2   C4B81141   3.752  18.823   7.939 -0.2390  0.1309 -0.1570
36261SAP2    C181142   6.186  17.827  10.613 -0.0593 -0.2473  0.2828
36261SAP2    C281143   6.321  17.922  10.835  0.2125  0.1635 -0.0426
36261SAP2    C381144   6.422  17.666  10.642  0.2090  0.0882  0.0549
36261SAP2    C481145   6.310  17.805  10.697 -0.3511  0.6110  0.7269
36261SAP2   PO481146   6.127  18.065  10.473  0.1809  0.3137  0.0881
36261SAP2    P481147   6.687  17.659  10.726  0.0385 -0.0085 -0.1115
36261SAP2    P581148   6.397  17.832  11.116 -0.2648 -0.0472  0.0249
36261SAP2   GL181149   6.211  18.164  10.198  0.4425  0.1135  0.0881
36261SAP2   GL281150   6.173  18.426  10.120  0.0903 -0.1026  0.0234
36261SAP2   D1A81151   6.629  18.257  10.073 -0.0817 -0.0172 -0.0123
36261SAP2   D2A81152   6.974  18.297   9.847  0.0214  0.2226  0.0350
36261SAP2   D3A81153   7.412  18.317   9.963 -0.0645 -0.0729  0.2317
36261SAP2   D4A81154   7.435  18.745  10.107 -0.1185 -0.2340  0.0745
36261SAP2   C5A81155   7.557  19.117   9.896 -0.2838  0.1542 -0.0205
36261SAP2   C1B81156   6.435  18.720   9.901 -0.0764  0.4565  0.2460
36261SAP2   C2B81157   6.882  18.790   9.796 -0.1238 -0.2514 -0.1974
36261SAP2   C3B81158   7.295  18.672   9.664  0.2394 -0.1673  0.1979
36261SAP2   C4B81159   7.615  18.920   9.425 -0.2695 -0.1269  0.2160
36262SAP2    C181160   3.493  18.174   9.932 -0.3164 -0.1701 -0.1402
36262SAP2    C281161   3.289  17.988   9.952 -0.2645 -0.2301 -0.1680
36262SAP2    C381162   3.295  18.286  10.106 -0.2920 -0.3022 -0.0256
36262SAP2    C481163   3.359  18.149   9.997 -0.1191 -0.0302 -0.5847
36262SAP2   PO481164   3.540  18.091   9.574  0.2305  0.3008 -0.1609
36262SAP2    P481165   3.025  18.338  10.190  0.1061  0.4100  0.0426
36262SAP2    P581166   3.106  17.780  10.146  0.5183 -0.1372 -0.2078
36262SAP2   GL181167   3.715  18.273   9.408 -0.1496 -0.0132  0.3201
36262SAP2   GL281168   3.893  18.507   9.472  0.2560  0.0727 -0.0688
36262SAP2   D1A81169   3.841  18.445   8.944 -0.2508 -0.0798 -0.0853
36262SAP2   D2A81170   3.973  18.022   8.701  0.2405  0.0833  0.1084
36262SAP2   D3A81171   4.216  18.366   8.568 -0.1292 -0.1606 -0.0730
36262SAP2   D4A81172   3.909  18.663   8.500  0.1967 -0.2232 -0.1362
36262SAP2   C5A81173   3.808  18.936   8.903 -0.1151 -0.0022 -0.0723
36262SAP2   C1B81174   4.292  18.443   9.283  0.2216  0.0787  0.0355
36262SAP2   C2B81175   4.564  18.473   8.924 -0.0373 -0.0638 -0.2469
36262SAP2   C3B81176   4.586  18.673   8.515 -0.2654  0.0262 -0.0498
36262SAP2   C4B81177   4.784  19.014   8.279  0.0131 -0.0623 -0.0632
36263SAP2    C181178   2.543  26.452   8.796 -0.0366  0.1071 -0.1522
36263SAP2    C281179   2.324  26.538   8.943  0.0286  0.3322 -0.1836
36263SAP2    C381180   2.646  26.603   9.016  0.0957 -0.0852 -0.0792
36263SAP2    C481181   2.504  26.531   8.918  0.1990 -0.5963  0.6253
36263SAP2   PO481182   2.488  26.459   8.439  0.1147 -0.0789 -0.0913
36263SAP2    P481183   2.552  26.843   9.180  0.1069 -0.3046  0.0238
36263SAP2    P581184   2.246  26.565   9.201  0.1085  0.1959  0.0570
36263SAP2   GL181185   2.579  26.209   8.251 -0.2014  0.1231 -0.1965
36263SAP2   GL281186   2.406  26.020   8.254 -0.2982  0.0188 -0.1007
36263SAP2   D1A81187   2.399  26.434   7.869 -0.1437 -0.3030 -0.1612
36263SAP2   D2A81188   2.742  26.313   7.576 -0.3441  0.0071 -0.3120
36263SAP2   D3A81189   2.812  26.798   7.609  0.0030 -0.0256 -0.0307
36263SAP2   D4A81190   3.218  26.618   7.461 -0.0579  0.0421  0.2010
36263SAP2   C5A81191   2.952  26.729   7.123  0.1332 -0.1311 -0.0453
36263SAP2   C1B81192   2.495  25.833   7.852  0.0877 -0.0527  0.1324
36263SAP2   C2B81193   2.700  25.728   7.419 -0.0378  0.1471 -0.4033
36263SAP2   C3B81194   2.610  25.277   7.288 -0.0914 -0.1631 -0.0828
36263SAP2   C4B81195   2.634  24.904   7.580 -0.0037 -0.6109 -0.0831
36264SAP2    C181196   5.428  26.037  10.961 -0.0499  0.1122  0.0254
36264SAP2    C281197   5.451  25.990  11.233 -0.3831 -0.2747 -0.0045
36264SAP2    C381198   5.162  26.009  11.063 -0.1768 -0.1044 -0.3463
36264SAP2    C481199   5.347  26.012  11.086 -0.2136 -0.2395 -0.7485
36264SAP2   PO481200   5.656  25.898  10.796 -0.3580  0.0657  0.0254
36264SAP2    P481201   4.965  25.948  11.278 -0.0621 -0.0404  0.0409
36264SAP2    P581202   5.434  26.124  11.506  0.1076 -0.0228 -0.0163
36264SAP2   GL181203   5.714  25.874  10.446  0.2514 -0.0508  0.0898
36264SAP2   GL281204   5.722  25.581  10.517 -0.1911 -0.0137  0.0467
36264SAP2   D1A81205   5.341  25.824  10.148 -0.3862 -0.0556  0.4660
36264SAP2   D2A81206   5.683  25.795   9.836  0.1071 -0.3078 -0.0357
36264SAP2   D3A81207   6.092  26.067   9.877 -0.2436  0.1628 -0.1783
36264SAP2   D4A81208   6.107  26.040   9.392  0.3143 -0.1786  0.0296
36264SAP2   C5A81209   5.717  25.829   9.276  0.0673  0.2330  0.3435
36264SAP2   C1B81210   6.110  25.342  10.679  0.0801  0.2655  0.0714
36264SAP2   C2B81211   6.464  25.019  10.582 -0.0837 -0.2130 -0.2286
36264SAP2   C3B81212   6.681  24.873  10.232  0.2517  0.0199  0.0096
36264SAP2   C4B81213   7.036  24.899   9.917  0.3038  0.1720 -0.0058
36265SAP2    C181214  11.299  30.781   8.741 -0.3564  0.1396  0.2046
36265SAP2    C281215  11.387  30.914   8.967 -0.0512  0.0550  0.1406
36265SAP2    C381216  11.354  30.581   8.938  0.0054  0.0588  0.0298
36265SAP2    C481217  11.347  30.759   8.882 -0.4382 -0.7764  0.1954
36265SAP2   PO481218  11.480  30.927   8.481  0.2584 -0.0714 -0.1531
36265SAP2    P481219  11.343  30.531   9.298 -0.3181 -0.0969  0.0046
36265SAP2    P581220  11.383  30.997   9.207 -0.0168  0.0379  0.0073
36265SAP2   GL181221  11.330  30.895   8.147  0.0039  0.0610  0.2794
36265SAP2   GL281222  11.459  30.723   8.182  0.2468  0.1094 -0.2258
36265SAP2   D1A81223  10.908  30.755   8.037  0.4963  0.1866 -0.0675
36265SAP2   D2A81224  10.730  30.327   7.915  0.0897 -0.0471  0.0639
36265SAP2   D3A81225  10.444  30.305   7.587  0.0070  0.0080 -0.0268
36265SAP2   D4A81226  10.691  30.609   7.337  0.1696  0.1490 -0.3013
36265SAP2   C5A81227  10.666  30.720   6.904  0.0973  0.3134 -0.2965
36265SAP2   C1B81228  11.738  30.965   7.807 -0.1227  0.2320 -0.3279
36265SAP2   C2B81229  11.784  31.074   7.308  0.0249  0.1635  0.0650
36265SAP2   C3B81230  12.082  31.278   7.005  0.1893 -0.1442 -0.0090
36265SAP2   C4B81231  12.499  31.473   6.901  0.0670 -0.0421 -0.0087
36266SAP2    C181232   4.815  18.949  10.446 -0.1738 -0.0022 -0.0465
36266SAP2    C281233   4.828  19.160  10.625  0.0435  0.0180 -0.0833
36266SAP2    C381234   4.929  18.846  10.688  0.2377  0.0536 -0.2086
36266SAP2    C481235   4.857  18.985  10.586  0.6128  0.0842 -0.2609
36266SAP2   PO481236   4.823  19.061  10.204  0.3592 -0.1236  0.0867
36266SAP2    P481237   5.039  18.815  10.986 -0.2880 -0.0226 -0.0359
36266SAP2    P581238   4.831  19.280  10.954  0.0956  0.1289  0.2443
36266SAP2   GL181239   4.777  18.947   9.899  0.1324  0.2521 -0.3409
36266SAP2   GL281240   4.954  18.749   9.778  0.0614  0.2118 -0.0594
36266SAP2   D1A81241   5.022  19.142   9.515 -0.1778  0.2385  0.0890
36266SAP2   D2A81242   5.128  19.577   9.412  0.0633  0.2511 -0.0237
36266SAP2   D3A81243   5.137  19.348   9.041 -0.0264  0.1557 -0.3348
36266SAP2   D4A81244   5.092  19.619   8.669  0.0186 -0.1683  0.1839
36266SAP2   C5A81245   5.452  19.654   8.399  0.0065 -0.1266 -0.1512
36266SAP2   C1B81246   5.147  18.720   9.298  0.1309  0.1445  0.1586
36266SAP2   C2B81247   5.342  18.616   8.842  0.3362  0.0815 -0.1916
36266SAP2   C3B81248   5.621  18.802   8.585  0.2241 -0.0746 -0.0540
36266SAP2   C4B81249   5.810  18.984   8.169  0.1186  0.0987  0.2193
36267SAP2    C181250   4.222  17.862  10.151 -0.1341  0.2466 -0.3596
36267SAP2    C281251   3.972  17.743  10.159  0.0491 -0.1423  0.0101
36267SAP2    C381252   4.101  17.939  10.399  0.1990 -0.1555 -0.0586
36267SAP2    C481253   4.098  17.848  10.236 -0.7334 -0.2151 -0.6218
36267SAP2   PO481254   4.278  17.916   9.844  0.3258 -0.1201 -0.0696
36267SAP2    P481255   3.948  17.791  10.598  0.0122  0.2572  0.0769
36267SAP2    P581256   3.910  17.472  10.283 -0.1475 -0.1810 -0.0992
36267SAP2   GL181257   4.067  18.089   9.601  0.0243 -0.0204 -0.2002
36267SAP2   GL281258   4.002  17.842   9.423  0.0563 -0.0768 -0.0210
36267SAP2   D1A81259   4.513  18.064   9.454  0.2738 -0.0372  0.5583
36267SAP2   D2A81260   4.776  18.460   9.418  0.0349  0.0890  0.2521
36267SAP2   D3A81261   5.008  18.260   9.095 -0.0570  0.0483 -0.1387
36267SAP2   D4A81262   5.015  18.265   8.580 -0.0225 -0.0748 -0.1992
36267SAP2   C5A81263   5.367  18.380   8.317  0.0278 -0.0073 -0.5319
36267SAP2   C1B81264   4.280  17.949   9.029  0.1695 -0.0109 -0.0473
36267SAP2   C2B81265   4.506  17.913   8.627  0.2167  0.1128 -0.3681
36267SAP2   C3B81266   4.565  18.155   8.285 -0.1043 -0.1641  0.0795
36267SAP2   C4B81267   4.839  18.474   8.134 -0.2057 -0.0602 -0.3328
36268SAP2    C181268   4.698  23.689  11.334  0.4826  0.0068 -0.1783
36268SAP2    C281269   4.630  23.610  11.591  0.3711  0.1884 -0.1508
36268SAP2    C381270   4.419  23.623  11.329  0.3797  0.4154 -0.1487
36268SAP2    C481271   4.582  23.641  11.418  0.2907  0.6836 -0.6985
36268SAP2   PO481272   4.963  23.505  11.325 -0.0193 -0.2508 -0.2686
36268SAP2    P481273   4.107  23.562  11.394 -0.1441  0.2809 -0.0020
36268SAP2    P581274   4.393  23.719  11.776  0.0815 -0.0636 -0.2018
36268SAP2   GL181275   5.254  23.643  11.113 -0.2181  0.2037  0.5587
36268SAP2   GL281276   5.312  23.308  11.091 -0.0789  0.1868 -0.0912
36268SAP2   D1A81277   5.442  23.592  10.651  0.1498 -0.2100 -0.0078
36268SAP2   D2A81278   5.283  23.731  10.245 -0.1573 -0.0944 -0.1255
36268SAP2   D3A81279   5.336  24.178  10.158 -0.2460 -0.1104 -0.1285
36268SAP2   D4A81280   5.476  24.289   9.745 -0.1864  0.0380 -0.1803
36268SAP2   C5A81281   5.854  24.077   9.562  0.2408 -0.2060 -0.0410
36268SAP2   C1B81282   5.609  23.150  10.822 -0.1575 -0.1624  0.1096
36268SAP2   C2B81283   6.007  23.106  10.588 -0.1234 -0.1925  0.2643
36268SAP2   C3B81284   6.395  23.361  10.594  0.0826 -0.2527 -0.1384
36268SAP2   C4B81285   6.790  23.434  10.381 -0.1343  0.0320 -0.0611
36269SAP2    C181286   7.181  32.462   4.524 -0.1475 -0.0525  0.2476
36269SAP2    C281287   7.064  32.534   4.283  0.1530  0.2022  0.1718
36269SAP2    C381288   7.221  32.243   4.343  0.0276  0.1140  0.0797
36269SAP2    C481289   7.155  32.413   4.384  0.0914  0.8807 -0.9903
36269SAP2   PO481290   6.940  32.595   4.748  0.0514  0.2838  0.2070
36269SAP2    P481291   7.127  32.037   4.181  0.0577 -0.0537 -0.2336
36269SAP2    P581292   7.091  32.524   3.993  0.0808 -0.0657 -0.1440
36269SAP2   GL181293   6.907  32.489   5.021  0.0598  0.0580 -0.3987
36269SAP2   GL281294   6.693  32.301   5.159 -0.0029 -0.0164 -0.1525
36269SAP2   D1A81295   6.808  32.755   5.369  0.1506 -0.2350  0.0886
36269SAP2   D2A81296   6.567  32.691   5.813 -0.0813 -0.2858 -0.1009
36269SAP2   D3A81297   6.771  33.085   5.943 -0.1150 -0.0319  0.1928
36269SAP2   D4A81298   7.091  33.104   5.594 -0.2815 -0.0450  0.1446
36269SAP2   C5A81299   7.141  32.702   5.856  0.0314  0.0252 -0.1082
36269SAP2   C1B81300   6.858  32.261   5.595 -0.0915 -0.2238 -0.0152
36269SAP2   C2B81301   6.854  32.268   6.039 -0.1232 -0.0900  0.1749
36269SAP2   C3B81302   6.636  31.948   6.357  0.0395 -0.2058  0.1764
36269SAP2   C4B81303   6.288  32.129   6.653 -0.0656 -0.0351  0.0625
36270SAP2    C181304  12.183  28.128   4.301  0.0525  0.0447  0.0534
36270SAP2    C281305  12.176  27.852   4.280  0.0250  0.0525 -0.0437
36270SAP2    C381306  12.405  28.052   4.137 -0.0516  0.0918 -0.1125
36270SAP2    C481307  12.255  28.011   4.239  0.3331  0.4253  0.2227
36270SAP2   PO481308  12.096  28.170   4.608  0.3440 -0.1379 -0.0435
36270SAP2    P481309  12.556  27.924   3.910 -0.0873 -0.0023 -0.3844
36270SAP2    P581310  12.161  27.668   4.038  0.1090  0.1971 -0.1867
36270SAP2   GL181311  12.279  28.301   4.770 -0.4346  0.1311  0.1355
36270SAP2   GL281312  12.420  28.258   4.992  0.0079 -0.0367 -0.0055
36270SAP2   D1A81313  11.884  28.561   4.880 -0.1433  0.2377 -0.2759
36270SAP2   D2A81314  11.748  28.750   5.291 -0.1969  0.3325 -0.1884
36270SAP2   D3A81315  11.770  28.442   5.620 -0.5395 -0.2596 -0.2435
36270SAP2   D4A81316  12.150  28.346   5.437  0.1744  0.1827 -0.1218
36270SAP2   C5A81317  12.117  28.721   5.762 -0.2352  0.0404  0.3245
36270SAP2   C1B81318  12.543  28.027   5.406  0.1567  0.1746 -0.1251
36270SAP2   C2B81319  12.452  27.850   5.813  0.2071  0.0273 -0.0620
36270SAP2   C3B81320  12.248  27.825   6.248 -0.0971 -0.0911 -0.0847
36270SAP2   C4B81321  12.207  28.010   6.660  0.1145 -0.0838 -0.0735
36271SAP2    C181322   5.588  20.237   5.933 -0.1291 -0.3523  0.0507
36271SAP2    C281323   5.517  20.239   5.666 -0.2258 -0.4593  0.0754
36271SAP2    C381324   5.761  20.051   5.801 -0.1484 -0.3736  0.0553
36271SAP2    C481325   5.622  20.176   5.800  0.1113 -0.5575 -0.3272
36271SAP2   PO481326   5.337  20.361   6.143  0.3034  0.0613 -0.0884
36271SAP2    P481327   5.838  20.010   5.491 -0.0705  0.2957 -0.1037
36271SAP2    P581328   5.643  20.421   5.466 -0.1453 -0.0068 -0.0132
36271SAP2   GL181329   5.421  20.341   6.456 -0.0768  0.4579 -0.1590
36271SAP2   GL281330   5.631  20.185   6.648 -0.2380 -0.0821  0.2009
36271SAP2   D1A81331   5.696  20.669   6.655  0.0488  0.2093  0.1615
36271SAP2   D2A81332   5.911  20.446   7.062 -0.0781 -0.0899 -0.1147
36271SAP2   D3A81333   5.615  20.584   7.377  0.3323  0.0398  0.3165
36271SAP2   D4A81334   5.971  20.354   7.545  0.0279 -0.1098  0.1662
36271SAP2   C5A81335   5.848  20.028   7.824 -0.3073  0.2956  0.1469
36271SAP2   C1B81336   5.406  20.401   6.951 -0.2238 -0.1037 -0.1446
36271SAP2   C2B81337   5.083  20.504   7.199 -0.0546 -0.2843 -0.2532
36271SAP2   C3B81338   4.725  20.308   7.394 -0.1760  0.0615  0.2816
36271SAP2   C4B81339   4.461  20.368   7.783 -0.1209 -0.2541  0.1336
36272SAP2    C181340   7.446  25.933   5.732 -0.1507  0.3024 -0.1452
36272SAP2    C281341   7.714  26.000   5.762 -0.1078  0.0176  0.1715
36272SAP2    C381342   7.561  25.934   5.470  0.2547 -0.1569  0.0158
36272SAP2    C481343   7.574  25.956   5.655 -0.1625 -0.4293  0.4398
36272SAP2   PO481344   7.291  26.169   5.883  0.0976 -0.1289  0.0167
36272SAP2    P481345   7.788  25.989   5.274  0.0216 -0.1332 -0.0601
36272SAP2    P581346   7.857  25.737   5.792 -0.0272 -0.0580 -0.1399
36272SAP2   GL181347   7.492  26.101   6.131  0.1391 -0.1465 -0.0695
36272SAP2   GL281348   7.330  26.420   6.237  0.0359 -0.0906 -0.0073
36272SAP2   D1A81349   7.230  25.894   6.534 -0.0941 -0.2868 -0.0434
36272SAP2   D2A81350   7.632  26.141   6.591  0.0396  0.0847  0.2571
36272SAP2   D3A81351   7.573  26.150   7.024  0.0792  0.1533  0.0426
36272SAP2   D4A81352   7.896  26.494   6.915 -0.0623  0.2540  0.0489
36272SAP2   C5A81353   7.723  26.643   7.335  0.0043 -0.1210 -0.0948
36272SAP2   C1B81354   7.185  26.405   6.676  0.2118 -0.0158  0.0573
36272SAP2   C2B81355   7.252  26.518   7.142 -0.0594 -0.1520  0.5898
36272SAP2   C3B81356   7.071  26.757   7.514  0.3354  0.0784 -0.3522
36272SAP2   C4B81357   6.753  27.028   7.509 -0.1509 -0.1687 -0.1587
36273SAP2    C181358   8.511  25.242   6.675  0.2895 -0.0254 -0.0487
36273SAP2    C281359   8.601  25.019   6.537  0.0129 -0.1106 -0.0961
36273SAP2    C381360   8.312  25.182   6.478  0.1574  0.1930  0.0146
36273SAP2    C481361   8.475  25.148   6.563 -0.0445  0.5211 -0.1947
36273SAP2   PO481362   8.749  25.403   6.741  0.5882  0.1045  0.2133
36273SAP2    P481363   8.261  25.059   6.206 -0.2328  0.0250  0.0236
36273SAP2    P581364   8.514  24.813   6.339 -0.2107  0.2027  0.3306
36273SAP2   GL181365   8.690  25.687   6.984  0.0592 -0.2292  0.3803
36273SAP2   GL281366   8.697  25.514   7.172  0.0997  0.0101 -0.0325
36273SAP2   D1A81367   8.387  25.946   7.214 -0.2544 -0.0439 -0.2876
36273SAP2   D2A81368   8.137  26.350   7.288  0.1140  0.2949  0.0143
36273SAP2   D3A81369   8.225  26.773   7.535  0.1064 -0.0532  0.2895
36273SAP2   D4A81370   7.887  26.752   7.787 -0.0698  0.0035 -0.1463
36273SAP2   C5A81371   7.878  26.261   7.661 -0.1320 -0.1299 -0.0680
36273SAP2   C1B81372   8.776  25.813   7.524 -0.1757  0.0991  0.1337
36273SAP2   C2B81373   8.655  25.933   7.906  0.0385  0.3908 -0.2269
36273SAP2   C3B81374   8.636  26.191   8.237  0.0340  0.1361 -0.1028
36273SAP2   C4B81375   8.506  26.163   8.661 -0.2625 -0.0699  0.1234
36274SAP2    C181376  11.492  23.333   7.400  0.1369  0.0787  0.2305
36274SAP2    C281377  11.288  23.146   7.389  0.1461  0.0840 -0.1928
36274SAP2    C381378  11.335  23.395   7.168  0.3357  0.3809  0.1714
36274SAP2    C481379  11.372  23.292   7.319 -0.0429 -0.6800  0.1548
36274SAP2   PO481380  11.777  23.224   7.508 -0.1566 -0.0444  0.2130
36274SAP2    P481381  11.079  23.350   6.995  0.2458  0.1784  0.0835
36274SAP2    P581382  11.124  22.918   7.333 -0.2700 -0.0959 -0.2338
36274SAP2   GL181383  11.877  23.069   7.732 -0.2564  0.1479  0.0543
36274SAP2   GL281384  12.067  22.911   7.583  0.0351  0.0355  0.0573
36274SAP2   D1A81385  12.057  22.937   8.142  0.3859 -0.3035  0.1664
36274SAP2   D2A81386  11.973  23.144   8.569 -0.1979 -0.1907 -0.0169
36274SAP2   D3A81387  12.397  23.130   8.743  0.0170  0.1627  0.1322
36274SAP2   D4A81388  12.299  22.731   8.552 -0.4263  0.1092 -0.0319
36274SAP2   C5A81389  12.684  22.452   8.726  0.0020  0.4083 -0.0060
36274SAP2   C1B81390  12.478  23.155   7.733  0.0298  0.1337  0.1055
36274SAP2   C2B81391  12.671  23.528   7.914 -0.1703 -0.1253  0.3020
36274SAP2   C3B81392  12.866  23.809   8.194 -0.0464 -0.0451  0.0185
36274SAP2   C4B81393  13.169  24.156   8.421  0.1676 -0.0489 -0.0227
36275SAP2    C181394   9.732  16.170   4.606 -0.0495 -0.1869 -0.2138
36275SAP2    C281395   9.835  16.348   4.420 -0.3700  0.4426  0.1786
36275SAP2    C381396   9.516  16.243   4.433 -0.2189 -0.0617  0.0453
36275SAP2    C481397   9.694  16.254   4.487 -0.1822  0.4834 -0.1154
36275SAP2   PO481398   9.943  16.299   4.876 -0.0291 -0.0459 -0.0269
36275SAP2    P481399   9.447  16.437   4.204 -0.1856  0.1122  0.2645
36275SAP2    P581400   9.881  16.162   4.142 -0.1126  0.1667  0.2009
36275SAP2   GL181401   9.725  16.340   5.092  0.2430 -0.0816  0.1497
36275SAP2   GL281402   9.499  16.321   5.261 -0.0450 -0.1143 -0.1292
36275SAP2   D1A81403   9.924  16.075   5.440 -0.0595  0.2963  0.1598
36275SAP2   D2A81404  10.083  16.479   5.510 -0.1697 -0.0148 -0.1440
36275SAP2   D3A81405   9.965  16.757   5.843  0.0093 -0.0401 -0.1518
36275SAP2   D4A81406   9.855  16.331   5.891 -0.2806  0.3050 -0.1386
36275SAP2   C5A81407  10.262  16.045   5.845 -0.1093 -0.1593 -0.0024
36275SAP2   C1B81408   9.468  16.165   5.689  0.1097  0.0136  0.1819
36275SAP2   C2B81409   9.495  16.074   6.163 -0.1006 -0.0018 -0.0444
36275SAP2   C3B81410   9.562  16.014   6.592  0.2073 -0.2850  0.0846
36275SAP2   C4B81411   9.680  15.991   7.040 -0.1074  0.0168  0.0005
36276SAP2    C181412  10.173  21.992  10.789 -0.1023 -0.1279  0.0636
36276SAP2    C281413  10.398  22.044  10.637  0.1064 -0.1296  0.3630
36276SAP2    C381414  10.168  22.272  10.727 -0.0001 -0.1218  0.0810
36276SAP2    C481415  10.246  22.103  10.718  0.0780  0.7016  0.0866
36276SAP2   PO481416  10.216  21.731  10.998 -0.3617  0.0859  0.0462
36276SAP2    P481417  10.295  22.498  10.552 -0.3533 -0.0726 -0.1753
36276SAP2    P581418  10.257  22.090  10.326  0.0624 -0.0100  0.1464
36276SAP2   GL181419  10.218  21.411  10.889  0.1646  0.3546  0.5272
36276SAP2   GL281420  10.230  21.184  10.716 -0.0473 -0.1089 -0.1365
36276SAP2   D1A81421  10.627  21.262  11.061 -0.3092  0.0768 -0.5605
36276SAP2   D2A81422  10.395  20.856  11.273 -0.0759 -0.1615 -0.0235
36276SAP2   D3A81423  10.642  20.557  11.494  0.0029 -0.0051  0.4344
36276SAP2   D4A81424  11.003  20.402  11.230  0.0973 -0.0960 -0.3483
36276SAP2   C5A81425  11.364  20.583  11.434  0.0323  0.1067  0.2102
36276SAP2   C1B81426  10.023  20.778  10.910  0.0740  0.1389  0.1150
36276SAP2   C2B81427  10.046  20.324  10.842  0.3188 -0.1585 -0.0438
36276SAP2   C3B81428   9.849  20.075  10.538 -0.2215 -0.1249 -0.0467
36276SAP2   C4B81429   9.700  19.657  10.653  0.0711  0.2330  0.2810
36277SAP2    C181430   1.773  29.033   3.643  0.0087 -0.0179  0.0522
36277SAP2    C281431   1.722  28.783   3.535  0.0360 -0.0807  0.1834
36277SAP2    C381432   2.017  28.942   3.524  0.0145 -0.0468  0.0862
36277SAP2    C481433   1.837  28.919   3.567 -0.1948  0.4958 -0.2790
36277SAP2   PO481434   1.605  28.926   3.950  0.2425 -0.2998  0.1846
36277SAP2    P481435   2.186  28.779   3.339  0.2484  0.3544 -0.1361
36277SAP2    P581436   1.700  28.595   3.327 -0.0859 -0.1866  0.0155
36277SAP2   GL181437   1.826  28.829   4.097  0.0911  0.3085 -0.3036
36277SAP2   GL281438   1.931  28.604   4.230  0.3070 -0.1129 -0.1081
36277SAP2   D1A81439   1.604  29.155   4.368  0.1247  0.1821  0.0628
36277SAP2   D2A81440   2.000  28.975   4.495 -0.1618  0.3219  0.2993
36277SAP2   D3A81441   2.124  28.558   4.679 -0.3480 -0.0368 -0.2791
36277SAP2   D4A81442   1.910  28.166   4.545  0.3726 -0.1885 -0.4974
36277SAP2   C5A81443   1.867  28.192   5.007  0.3355 -0.0061 -0.2028
36277SAP2   C1B81444   1.664  28.661   4.619  0.2069  0.1836  0.1189
36277SAP2   C2B81445   1.745  28.723   5.078 -0.0588  0.1005 -0.0870
36277SAP2   C3B81446   1.499  28.883   5.472  0.3116  0.0784  0.0240
36277SAP2   C4B81447   1.424  29.237   5.678 -0.1608 -0.0564  0.0649
36278SAP2    C181448   4.526  23.999   5.298  0.0263  0.0827  0.0437
36278SAP2    C281449   4.645  24.141   5.092  0.2734 -0.0257  0.1084
36278SAP2    C381450   4.368  23.954   5.064  0.0589  0.3038 -0.0232
36278SAP2    C481451   4.513  24.031   5.151  0.2425 -0.4033 -0.0131
36278SAP2   PO481452   4.558  24.140   5.573  0.1132 -0.1727 -0.0423
36278SAP2    P481453   4.374  24.086   4.778  0.0393  0.0260  0.3702
36278SAP2    P581454   4.815  23.962   4.967  0.2483  0.0330  0.1927
36278SAP2   GL181455   4.227  24.095   5.829  0.1844 -0.0509 -0.1820
36278SAP2   GL281456   3.988  24.209   5.726  0.0618  0.1126 -0.1961
36278SAP2   D1A81457   4.202  24.294   6.275 -0.1501 -0.1361  0.2932
36278SAP2   D2A81458   4.392  23.945   6.268 -0.0239  0.1934  0.1168
36278SAP2   D3A81459   4.720  23.970   6.565  0.2093  0.0899 -0.1079
36278SAP2   D4A81460   5.116  24.244   6.542  0.1570  0.2903 -0.1362
36278SAP2   C5A81461   4.987  24.613   6.768 -0.1457  0.2337 -0.0176
36278SAP2   C1B81462   3.899  24.593   5.952 -0.1788  0.0547  0.0336
36278SAP2   C2B81463   3.603  24.855   6.225  0.1480 -0.1500  0.1782
36278SAP2   C3B81464   3.258  24.992   6.506 -0.1585 -0.1715  0.1859
36278SAP2   C4B81465   2.973  25.083   6.862 -0.0389  0.2515  0.1109
36279SAP2    C181466  11.870  27.656   4.446  0.0138  0.1727 -0.0489
36279SAP2    C281467  11.607  27.650   4.359 -0.1644 -0.1303  0.4651
36279SAP2    C381468  11.838  27.415   4.294 -0.0130  0.1295  0.0244
36279SAP2    C481469  11.771  27.574   4.366 -0.1907 -0.7142 -0.3439
36279SAP2   PO481470  11.822  27.731   4.764 -0.0324 -0.1545  0.0737
36279SAP2    P481471  11.661  27.179   4.226  0.0946 -0.0802  0.0516
36279SAP2    P581472  11.364  27.581   4.120  0.0058  0.2218  0.3189
36279SAP2   GL181473  11.911  27.790   5.082 -0.4171 -0.1314 -0.2789
36279SAP2   GL281474  12.166  27.851   5.089 -0.2523 -0.3221  0.1087
36279SAP2   D1A81475  11.688  28.197   5.143  0.0309  0.0390 -0.3702
36279SAP2   D2A81476  11.356  28.230   5.466 -0.1145  0.0344 -0.0987
36279SAP2   D3A81477  11.069  28.297   5.799 -0.1856  0.0432 -0.0075
36279SAP2   D4A81478  10.686  28.544   5.872 -0.3525  0.1614 -0.3961
36279SAP2   C5A81479  10.744  28.744   6.278 -0.1011 -0.1752 -0.3291
36279SAP2   C1B81480  12.186  27.591   5.441  0.1474  0.1414 -0.1497
36279SAP2   C2B81481  12.203  27.410   5.838  0.0035 -0.2544 -0.1765
36279SAP2   C3B81482  12.326  27.288   6.254  0.1240  0.1537  0.3232
36279SAP2   C4B81483  12.452  27.489   6.660 -0.0049 -0.2289  0.4246
36280SAP2    C181484   6.144  21.299   6.019 -0.1382 -0.1845 -0.1123
36280SAP2    C281485   6.320  21.317   5.806 -0.1496  0.0088 -0.1065
36280SAP2    C381486   6.408  21.303   6.130 -0.1407 -0.0379 -0.1108
36280SAP2    C481487   6.291  21.306   5.985  0.1249  0.2822  0.4980
36280SAP2   PO481488   5.973  21.001   5.987 -0.0047 -0.0697  0.0812
36280SAP2    P481489   6.690  21.447   6.133  0.0010 -0.1846  0.0285
36280SAP2    P581490   6.469  21.526   5.666  0.0731 -0.2769  0.1840
36280SAP2   GL181491   5.935  21.068   6.297  0.0149  0.0415 -0.3252
36280SAP2   GL281492   6.128  20.919   6.486 -0.0633 -0.1478  0.1357
36280SAP2   D1A81493   5.697  21.239   6.713 -0.0718  0.1444  0.0811
36280SAP2   D2A81494   5.540  20.952   7.035  0.1411  0.1544  0.1344
36280SAP2   D3A81495   5.047  20.984   7.013 -0.1085 -0.1988 -0.1333
36280SAP2   D4A81496   5.193  21.296   6.691  0.0149 -0.1684 -0.0104
36280SAP2   C5A81497   4.813  21.427   6.933 -0.0501  0.0173 -0.0216
36280SAP2   C1B81498   6.047  20.980   6.910  0.2573  0.0690 -0.0912
36280SAP2   C2B81499   6.009  20.853   7.345  0.0346  0.1229 -0.1386
36280SAP2   C3B81500   5.849  20.813   7.749 -0.4741 -0.0046  0.2815
36280SAP2   C4B81501   5.436  20.817   7.946  0.2859 -0.1694 -0.1501
36281SAP2    C181502  11.960  22.642   7.117  0.0918  0.0880 -0.2729
36281SAP2    C281503  11.847  22.416   7.004 -0.3144  0.1845 -0.0770
36281SAP2    C381504  11.833  22.726   6.874  0.2295  0.1117 -0.3380
36281SAP2    C481505  11.880  22.595   6.998  0.3093  0.4262 -0.0668
36281SAP2   PO481506  12.199  22.557   7.303  0.1049  0.4487 -0.2129
36281SAP2    P481507  11.664  22.770   6.659 -0.1912 -0.0131  0.2640
36281SAP2    P581508  11.704  22.255   6.734  0.2583 -0.1775 -0.0820
36281SAP2   GL181509  12.432  22.628   7.609 -0.2677  0.2416  0.1734
36281SAP2   GL281510  12.408  22.656   7.881 -0.2343  0.0087 -0.0949
36281SAP2   D1A81511  12.743  22.295   7.814 -0.1409  0.0323  0.0131
36281SAP2   D2A81512  13.203  22.364   7.874  0.1955  0.1289 -0.0509
36281SAP2   D3A81513  13.536  22.301   8.147 -0.0128  0.2701 -0.2934
36281SAP2   D4A81514  13.799  22.478   8.480  0.3423  0.3944  0.1297
36281SAP2   C5A81515  13.859  22.480   8.958  0.1613  0.0006  0.0076
36281SAP2   C1B81516  12.523  23.003   8.221 -0.1211  0.1428 -0.0516
36281SAP2   C2B81517  12.826  23.300   8.379  0.0836 -0.0485 -0.0786
36281SAP2   C3B81518  13.265  23.304   8.468 -0.1560  0.0894 -0.1251
36281SAP2   C4B81519  13.712  23.372   8.566 -0.0358 -0.3338 -0.2221
36282SAP2    C181520  15.195  32.206  15.968  0.1097 -0.2212  0.1239
36282SAP2    C281521  15.427  32.152  15.826 -0.1399 -0.4542 -0.2108
36282SAP2    C381522  15.227  32.417  15.776  0.0447 -0.2553  0.0753
36282SAP2    C481523  15.283  32.259  15.857 -0.0082 -0.6080 -0.1594
36282SAP2   PO481524  15.270  32.122  16.276  0.0655  0.2641  0.1208
36282SAP2    P481525  15.428  32.532  15.624  0.1221 -0.0186 -0.1123
36282SAP2    P581526  15.520  32.097  15.538  0.0355 -0.3532  0.0629
36282SAP2   GL181527  15.474  32.179  16.481 -0.3970  0.0178  0.3266
36282SAP2   GL281528  15.408  32.455  16.574  0.1346  0.1283  0.0401
36282SAP2   D1A81529  15.601  32.165  16.934 -0.1471  0.0820  0.3192
36282SAP2   D2A81530  15.367  32.562  17.080 -0.3060  0.2696  0.1101
36282SAP2   D3A81531  15.108  32.511  17.536 -0.2100 -0.1366  0.0632
36282SAP2   D4A81532  15.234  32.317  17.948  0.1605 -0.1139  0.5549
36282SAP2   C5A81533  15.007  32.721  17.942  0.2304 -0.4510 -0.2075
36282SAP2   C1B81534  15.044  32.690  16.740 -0.0952  0.0996  0.0047
36282SAP2   C2B81535  14.905  33.011  17.090  0.2297  0.0086  0.1281
36282SAP2   C3B81536  14.856  33.380  17.398 -0.1620  0.2164  0.0204
36282SAP2   C4B81537  14.748  33.730  17.714  0.2307  0.6639  0.2238
36283SAP2    C181538  15.346  22.088  11.457  0.0764 -0.1926  0.0168
36283SAP2    C281539  15.543  22.237  11.584 -0.1248 -0.1156  0.2448
36283SAP2    C381540  15.544  22.152  11.259  0.1567  0.1011  0.1852
36283SAP2    C481541  15.478  22.159  11.433 -0.2213  1.1167  1.2704
36283SAP2   PO481542  15.088  22.224  11.591 -0.1012  0.2056 -0.1442
36283SAP2    P481543  15.815  22.355  11.247  0.2278  0.1355  0.1076
36283SAP2    P581544  15.844  22.234  11.703  0.2051 -0.1181  0.0782
36283SAP2   GL181545  14.929  22.528  11.564 -0.1944  0.2533  0.0127
36283SAP2   GL281546  14.777  22.621  11.329  0.0730 -0.1866  0.0960
36283SAP2   D1A81547  14.533  22.644  11.762  0.1356 -0.1948  0.1835
36283SAP2   D2A81548  14.724  23.009  11.955  0.0541 -0.1550  0.6140
36283SAP2   D3A81549  14.419  23.235  12.188  0.0501 -0.1026 -0.3077
36283SAP2   D4A81550  14.431  23.573  12.544  0.2224 -0.1904  0.0549
36283SAP2   C5A81551  14.020  23.620  12.364  0.2863  0.2833  0.3057
36283SAP2   C1B81552  14.519  22.389  10.999 -0.3174 -0.0029 -0.1820
36283SAP2   C2B81553  14.070  22.465  10.808 -0.2928 -0.1240 -0.1324
36283SAP2   C3B81554  13.643  22.563  10.744  0.1434 -0.1814  0.0831
36283SAP2   C4B81555  13.198  22.554  10.633  0.0312 -0.2379 -0.0118
36284SAP2    C181556   3.113  22.440  14.914 -0.0544  0.2595 -0.0880
36284SAP2    C281557   2.994  22.330  14.689  0.2279 -0.1246 -0.0599
36284SAP2    C381558   3.323  22.392  14.725  0.1303  0.3485  0.0905
36284SAP2    C481559   3.143  22.387  14.776 -0.4995  0.3269 -0.1287
36284SAP2   PO481560   2.971  22.284  15.174 -0.1684 -0.1048  0.3350
36284SAP2    P481561   3.480  22.249  14.489 -0.1817 -0.3605  0.1668
36284SAP2    P581562   2.986  22.562  14.447  0.1316 -0.1079  0.2960
36284SAP2   GL181563   3.168  22.025  15.236 -0.1798  0.2831 -0.1849
36284SAP2   GL281564   3.100  21.730  15.260 -0.5212 -0.0513  0.0191
36284SAP2   D1A81565   2.947  22.057  15.670 -0.4363 -0.4269  0.0340
36284SAP2   D2A81566   3.304  22.361  15.587  0.0406 -0.2169 -0.0078
36284SAP2   D3A81567   3.737  22.231  15.717 -0.1144  0.0607 -0.1185
36284SAP2   D4A81568   3.459  22.262  16.075  0.1564  0.0614 -0.0982
36284SAP2   C5A81569   3.597  21.997  16.457 -0.1267 -0.2986 -0.4546
36284SAP2   C1B81570   3.402  21.784  15.602 -0.1018 -0.1920 -0.0616
36284SAP2   C2B81571   3.711  21.771  15.914  0.1374  0.0376  0.0902
36284SAP2   C3B81572   4.023  22.013  16.145  0.1087  0.0492 -0.0587
36284SAP2   C4B81573   4.284  21.943  16.564 -0.2020  0.0689  0.0829
36285SAP2    C181574   4.902  26.958  10.480 -0.0139 -0.4877 -0.1941
36285SAP2    C281575   5.070  26.797  10.630 -0.1346 -0.3122  0.1413
36285SAP2    C381576   4.790  26.944  10.744  0.0386  0.2412 -0.1120
36285SAP2    C481577   4.921  26.899  10.618  0.1529 -0.6638  0.5123
36285SAP2   PO481578   4.900  26.839  10.156 -0.1483  0.1025  0.1189
36285SAP2    P481579   4.785  26.839  11.025 -0.0887 -0.1272  0.1084
36285SAP2    P581580   5.256  26.947  10.835 -0.0619  0.1558  0.0373
36285SAP2   GL181581   5.226  26.840  10.002 -0.2894  0.1867 -0.1019
36285SAP2   GL281582   5.197  26.516  10.108  0.0366 -0.3003  0.0392
36285SAP2   D1A81583   5.131  26.615   9.634  0.0242  0.1941 -0.1301
36285SAP2   D2A81584   5.482  26.670   9.405  0.0966 -0.1213 -0.0129
36285SAP2   D3A81585   5.578  26.241   9.627  0.1164 -0.2512 -0.0169
36285SAP2   D4A81586   5.334  26.151   9.258 -0.4096 -0.0789  0.0120
36285SAP2   C5A81587   4.967  26.067   8.978  0.0621 -0.3094 -0.0404
36285SAP2   C1B81588   5.107  26.132   9.828  0.1666  0.1555  0.1237
36285SAP2   C2B81589   5.174  25.774   9.529  0.0573 -0.0525  0.1644
36285SAP2   C3B81590   5.269  25.697   9.048 -0.0397  0.3442 -0.0014
36285SAP2   C4B81591   5.464  25.543   8.716 -0.2503 -0.1873  0.2763
36286SAP2    C181592   2.044  22.330  15.366 -0.1598 -0.3253 -0.2021
36286SAP2    C281593   2.048  22.454  15.119 -0.0721 -0.1031 -0.0923
36286SAP2    C381594   2.174  22.150  15.186  0.3364  0.0314 -0.2205
36286SAP2    C481595   2.088  22.311  15.224  0.4045 -0.2202  0.4561
36286SAP2   PO481596   1.802  22.444  15.506 -0.3413 -0.1949 -0.0820
36286SAP2    P481597   2.317  22.051  14.898 -0.2758 -0.0352 -0.0596
36286SAP2    P581598   2.223  22.451  14.843  0.1028  0.0166 -0.1966
36286SAP2   GL181599   1.686  22.428  15.772 -0.0699  0.1800 -0.4545
36286SAP2   GL281600   1.533  22.560  15.911 -0.2428  0.1897  0.0643
36286SAP2   D1A81601   1.856  22.348  16.180 -0.0493 -0.0061  0.0617
36286SAP2   D2A81602   2.325  22.475  16.211 -0.0240  0.3149 -0.0804
36286SAP2   D3A81603   2.622  22.407  16.518  0.0269 -0.3730  0.2555
36286SAP2   D4A81604   2.657  21.939  16.571  0.2120 -0.2313  0.0230
36286SAP2   C5A81605   2.849  21.896  16.973 -0.2552 -0.2575 -0.2296
36286SAP2   C1B81606   1.475  22.554  16.385 -0.0537  0.0406  0.0413
36286SAP2   C2B81607   1.543  22.446  16.833  0.1882  0.0119 -0.2208
36286SAP2   C3B81608   1.532  22.606  17.298  0.0466 -0.0839 -0.2420
36286SAP2   C4B81609   1.370  22.832  17.665 -0.0901 -0.1960 -0.0429
36287SAP2    C181610  14.842  32.508  15.954  0.1696  0.0135  0.0244
36287SAP2    C281611  14.713  32.544  15.711  0.1622 -0.0381  0.0206
36287SAP2    C381612  14.706  32.263  15.895  0.0896  0.0330  0.1269
36287SAP2    C481613  14.754  32.438  15.853 -0.3357  0.2811  0.4866
36287SAP2   PO481614  14.809  32.761  16.153 -0.2487  0.0300 -0.1196
36287SAP2    P481615  14.532  32.042  15.748  0.0137 -0.0469  0.0625
36287SAP2    P581616  14.587  32.327  15.468 -0.1757  0.1973  0.2604
36287SAP2   GL181617  14.651  32.858  16.417 -0.7069  0.5475  0.1528
36287SAP2   GL281618  14.400  32.923  16.369  0.0142  0.2154 -0.3007
36287SAP2   D1A81619  14.495  33.081  16.800  0.1994 -0.1678  0.2225
36287SAP2   D2A81620  14.335  33.330  17.126  0.0763  0.0485  0.5150
36287SAP2   D3A81621  14.353  33.412  17.571 -0.0253  0.1819  0.1804
36287SAP2   D4A81622  14.065  33.787  17.430 -0.2195 -0.0727 -0.1141
36287SAP2   C5A81623  13.775  33.478  17.599 -0.0412 -0.2343  0.0906
36287SAP2   C1B81624  14.071  32.853  16.627 -0.1652  0.0561 -0.0001
36287SAP2   C2B81625  14.022  32.956  17.064 -0.0621  0.1134  0.3173
36287SAP2   C3B81626  14.037  33.023  17.528  0.0575 -0.2961 -0.2241
36287SAP2   C4B81627  14.086  32.850  17.931 -0.1236 -0.2756 -0.0111
36288SAP2    C181628   1.765  22.961  15.568  0.0379  0.2107  0.0648
36288SAP2    C281629   1.668  23.161  15.403  0.0055  0.2502  0.1313
36288SAP2    C381630   1.629  22.831  15.352 -0.0455  0.2632  0.0853
36288SAP2    C481631   1.687  22.984  15.441 -0.5204  0.5055  0.2788
36288SAP2   PO481632   1.799  23.091  15.882 -0.1966 -0.5317 -0.2708
36288SAP2    P481633   1.379  22.919  15.191 -0.1324  0.0431  0.2177
36288SAP2    P581634   1.736  23.267  15.122 -0.1417  0.2406  0.3942
36288SAP2   GL181635   1.758  22.901  16.185 -0.5033  0.4071 -0.2240
36288SAP2   GL281636   1.945  22.787  16.319 -0.3405 -0.1385  0.1329
36288SAP2   D1A81637   1.662  23.029  16.645 -0.0888 -0.0389 -0.1235
36288SAP2   D2A81638   2.027  23.049  16.911  0.3946 -0.0632 -0.0779
36288SAP2   D3A81639   2.339  23.063  17.278  0.1462  0.2983  0.0506
36288SAP2   D4A81640   2.339  22.938  17.740  0.0488  0.0561  0.3568
36288SAP2   C5A81641   2.474  22.585  18.001  0.0081  0.1868  0.1711
36288SAP2   C1B81642   2.031  22.516  16.720 -0.0715  0.0707  0.1987
36288SAP2   C2B81643   2.006  22.659  17.198  0.2191 -0.1204  0.0654
36288SAP2   C3B81644   1.909  22.973  17.569  0.2218 -0.1235 -0.3481
36288SAP2   C4B81645   1.659  23.373  17.713 -0.2553 -0.0300 -0.1357
36289SAP2    C181646   7.606  26.618  14.065  0.1610  0.0601  0.0423
36289SAP2    C281647   7.606  26.837  13.896 -0.0444  0.1418  0.1440
36289SAP2    C381648   7.738  26.830  14.205  0.3214 -0.0041 -0.0094
36289SAP2    C481649   7.650  26.762  14.056  0.5430 -1.0716 -0.3114
36289SAP2   PO481650   7.684  26.332  13.882 -0.2301 -0.0951  0.1759
36289SAP2    P481651   7.759  27.146  14.232  0.0508 -0.3171  0.1120
36289SAP2    P581652   7.662  27.140  13.822 -0.1024  0.0642  0.2731
36289SAP2   GL181653   7.641  26.101  14.166 -0.2466  0.1765 -0.1891
36289SAP2   GL281654   7.691  25.886  13.924 -0.1375  0.2828 -0.2486
36289SAP2   D1A81655   7.979  25.790  14.276 -0.0036  0.1149  0.1257
36289SAP2   D2A81656   7.765  25.397  14.189 -0.0386  0.1253  0.4191
36289SAP2   D3A81657   7.843  25.358  14.630 -0.2475  0.2327  0.1126
36289SAP2   D4A81658   8.201  25.107  14.498  0.1175  0.1292  0.2540
36289SAP2   C5A81659   8.193  24.696  14.623  0.2678  0.2350 -0.0171
36289SAP2   C1B81660   8.039  25.570  13.822 -0.2293  0.0743 -0.0767
36289SAP2   C2B81661   8.067  25.131  13.910 -0.0467  0.0610  0.0346
36289SAP2   C3B81662   8.263  24.755  14.145 -0.1696  0.0472 -0.0777
36289SAP2   C4B81663   8.419  24.345  14.319 -0.1279 -0.1068 -0.2684
36290SAP2    C181664   6.900  26.544  14.304 -0.1044 -0.0754  0.0111
36290SAP2    C281665   6.906  26.779  14.156 -0.1005 -0.1516 -0.1118
36290SAP2    C381666   6.633  26.650  14.306 -0.0850 -0.0266  0.0273
36290SAP2    C481667   6.813  26.658  14.255  0.2024 -0.3678  0.4549
36290SAP2   PO481668   7.089  26.539  14.610 -0.0206 -0.1666 -0.0317
36290SAP2    P481669   6.512  26.948  14.305  0.3111 -0.3388  0.1742
36290SAP2    P581670   6.844  26.896  13.896  0.2631 -0.2741  0.1546
36290SAP2   GL181671   7.225  26.189  14.605 -0.3841 -0.0292 -0.2934
36290SAP2   GL281672   7.381  26.139  14.843 -0.0869 -0.1725 -0.0800
36290SAP2   D1A81673   6.905  25.874  14.689  0.2756  0.1267 -0.0704
36290SAP2   D2A81674   6.806  25.822  15.181 -0.0414 -0.1765  0.2918
36290SAP2   D3A81675   6.965  25.418  15.344 -0.1499 -0.1576  0.1661
36290SAP2   D4A81676   7.031  25.472  15.742 -0.0781  0.1552  0.1834
36290SAP2   C5A81677   7.162  25.911  15.604 -0.1121  0.1095  0.0068
36290SAP2   C1B81678   7.388  25.691  14.962  0.0733  0.0656  0.1559
36290SAP2   C2B81679   7.444  25.428  15.319  0.2548 -0.0440 -0.0878
36290SAP2   C3B81680   7.497  25.144  15.714  0.1341 -0.1618  0.3230
36290SAP2   C4B81681   7.669  24.779  15.955  0.1332 -0.0161  0.3435
36291SAP2    C181682  12.960  26.448  14.900  0.0897  0.0600  0.0682
36291SAP2    C281683  12.931  26.656  14.719  0.0653 -0.0396 -0.0435
36291SAP2    C381684  13.215  26.486  14.776  0.0542 -0.0582 -0.0433
36291SAP2    C481685  13.035  26.530  14.798  0.5553  0.4053 -0.0858
36291SAP2   PO481686  12.721  26.242  14.926 -0.3254 -0.4547 -0.2598
36291SAP2    P481687  13.389  26.640  14.588 -0.1438  0.2163 -0.1439
36291SAP2    P581688  13.110  26.913  14.660 -0.1433 -0.0635  0.1930
36291SAP2   GL181689  12.822  25.846  14.990  0.0261 -0.0129  0.0660
36291SAP2   GL281690  12.778  25.895  15.279 -0.0812  0.0207  0.0630
36291SAP2   D1A81691  12.773  25.397  14.942  0.1666 -0.2141 -0.0542
36291SAP2   D2A81692  12.418  25.061  14.924 -0.1636 -0.1771  0.2253
36291SAP2   D3A81693  12.830  24.911  14.984  0.1600 -0.0697  0.0344
36291SAP2   D4A81694  12.620  24.634  15.176 -0.1398 -0.3640  0.4925
36291SAP2   C5A81695  12.240  24.821  15.318 -0.2909  0.0049  0.0778
36291SAP2   C1B81696  12.781  25.525  15.445  0.1745 -0.1307 -0.1501
36291SAP2   C2B81697  12.455  25.217  15.574  0.1258 -0.2244  0.3192
36291SAP2   C3B81698  12.023  25.105  15.671  0.0035  0.1911 -0.1117
36291SAP2   C4B81699  11.781  24.748  15.712 -0.0287  0.0346  0.0944
36292SAP2    C181700   6.720  17.957  12.904  0.2074  0.0353 -0.3587
36292SAP2    C281701   6.870  17.941  12.672  0.1540 -0.2840 -0.3746
36292SAP2    C381702   6.535  17.924  12.687  0.1356  0.0820 -0.3050
36292SAP2    C481703   6.708  17.941  12.754 -0.3802 -0.5141 -0.1956
36292SAP2   PO481704   6.868  18.138  13.130 -0.1013  0.0558  0.2846
36292SAP2    P481705   6.505  17.857  12.371 -0.0331  0.3659 -0.0073
36292SAP2    P581706   6.884  17.634  12.586 -0.0022 -0.2187  0.0934
36292SAP2   GL181707   7.230  18.271  13.103  0.3511 -0.0080 -0.0648
36292SAP2   GL281708   7.268  18.223  13.320  0.0838  0.1088 -0.1805
36292SAP2   D1A81709   7.563  18.562  12.919  0.0274 -0.0785  0.4837
36292SAP2   D2A81710   7.437  19.004  13.111 -0.1361  0.0406  0.0992
36292SAP2   D3A81711   7.573  19.370  13.400  0.2964  0.1700 -0.0383
36292SAP2   D4A81712   7.799  19.315  13.759 -0.4125  0.0805 -0.1029
36292SAP2   C5A81713   7.785  19.629  14.062  0.2902  0.0061  0.1307
36292SAP2   C1B81714   7.409  18.635  13.434  0.2885  0.0814  0.1415
36292SAP2   C2B81715   7.805  18.835  13.381  0.3896  0.3371 -0.1228
36292SAP2   C3B81716   8.072  19.028  13.123 -0.0495 -0.0145  0.2272
36292SAP2   C4B81717   8.392  19.242  12.964 -0.0808 -0.2928 -0.4455
36293SAP2    C181718  12.857  17.377  13.670  0.2324 -0.0315 -0.0086
36293SAP2    C281719  12.848  17.102  13.697  0.2608 -0.0598 -0.2614
36293SAP2    C381720  13.045  17.308  13.875  0.0380 -0.1707  0.1258
36293SAP2    C481721  12.916  17.262  13.747 -0.4736  0.7216 -0.7807
36293SAP2   PO481722  12.592  17.559  13.553 -0.0401  0.0381  0.1638
36293SAP2    P481723  13.289  17.091  13.930  0.0546 -0.0304 -0.1045
36293SAP2    P581724  12.892  16.844  13.600  0.0146  0.1215  0.1243
36293SAP2   GL181725  12.524  17.825  13.731  0.0618  0.0453  0.1825
36293SAP2   GL281726  12.269  17.758  13.849  0.2296  0.0779  0.1663
36293SAP2   D1A81727  12.720  18.208  13.587 -0.3303  0.0582 -0.0906
36293SAP2   D2A81728  12.614  18.544  13.826  0.2975  0.0263 -0.1372
36293SAP2   D3A81729  12.831  18.846  14.042  0.2462 -0.0232  0.4623
36293SAP2   D4A81730  12.773  18.457  14.336 -0.0859  0.0036 -0.0507
36293SAP2   C5A81731  12.624  18.742  14.680 -0.1680  0.1450 -0.1223
36293SAP2   C1B81732  12.212  18.177  13.698 -0.0837  0.0044  0.0075
36293SAP2   C2B81733  11.964  18.552  13.898  0.0584  0.1309 -0.0694
36293SAP2   C3B81734  11.961  18.993  14.023 -0.2185 -0.2226 -0.3102
36293SAP2   C4B81735  11.889  19.478  14.038 -0.0626  0.0112  0.0666
36294SAP2    C181736   3.366  29.726  16.476  0.3703 -0.3488 -0.1114
36294SAP2    C281737   3.254  29.696  16.224  0.3075 -0.1323 -0.1109
36294SAP2    C381738   3.555  29.832  16.288  0.2140  0.0508 -0.0525
36294SAP2    C481739   3.392  29.751  16.329 -0.5545  0.1845 -0.1384
36294SAP2   PO481740   3.300  29.446  16.611 -0.2275 -0.2400  0.0696
36294SAP2    P481741   3.624  29.912  16.004 -0.4767  0.0614  0.2288
36294SAP2    P581742   3.202  29.825  15.921 -0.3312 -0.1361 -0.3279
36294SAP2   GL181743   3.220  29.471  16.949  0.4072 -0.0490 -0.1477
36294SAP2   GL281744   2.898  29.542  16.941  0.2366 -0.1603  0.0276
36294SAP2   D1A81745   3.433  29.128  17.122 -0.1159  0.0650  0.1404
36294SAP2   D2A81746   3.270  29.450  17.418  0.0890  0.4344 -0.1151
36294SAP2   D3A81747   3.685  29.552  17.426  0.2392 -0.0409  0.1598
36294SAP2   D4A81748   3.413  29.842  17.683  0.3123 -0.0639  0.1153
36294SAP2   C5A81749   3.627  29.839  18.100  0.1713 -0.1764  0.0313
36294SAP2   C1B81750   2.827  29.806  17.297 -0.3066 -0.2363  0.0618
36294SAP2   C2B81751   2.991  30.071  17.560  0.2922 -0.1555 -0.1714
36294SAP2   C3B81752   3.240  30.249  17.935  0.1584  0.0710  0.0184
36294SAP2   C4B81753   3.385  30.613  18.131 -0.2507  0.1136 -0.0027
36295SAP2    C181754   8.974  21.560  16.265  0.0637 -0.0131 -0.1828
36295SAP2    C281755   9.155  21.753  16.348  0.0186  0.1180 -0.3820
36295SAP2    C381756   9.230  21.432  16.281  0.0809  0.0422  0.0208
36295SAP2    C481757   9.120  21.582  16.298  0.4623 -0.1032  0.2781
36295SAP2   PO481758   8.801  21.632  15.987  0.0429 -0.1096 -0.0697
36295SAP2    P481759   9.554  21.505  16.266 -0.1188 -0.0324  0.0111
36295SAP2    P581760   9.311  21.998  16.463  0.0683  0.2169 -0.0020
36295SAP2   GL181761   8.504  21.519  15.880 -0.2582  0.2941  0.0436
36295SAP2   GL281762   8.482  21.224  15.936  0.1726 -0.2107  0.1754
36295SAP2   D1A81763   8.296  21.513  15.441 -0.1961 -0.0892 -0.1484
36295SAP2   D2A81764   8.623  21.796  15.420  0.0995 -0.0522 -0.0909
36295SAP2   D3A81765   8.261  22.004  15.476 -0.0707  0.1619 -0.3046
36295SAP2   D4A81766   7.931  21.792  15.236  0.2573 -0.4260 -0.1334
36295SAP2   C5A81767   7.516  21.715  15.022 -0.0257 -0.3370 -0.2049
36295SAP2   C1B81768   8.092  21.159  15.665  0.1475  0.0188 -0.2697
36295SAP2   C2B81769   7.747  21.256  15.379  0.0433 -0.0070 -0.0063
36295SAP2   C3B81770   7.329  21.211  15.119 -0.1138  0.1588  0.0139
36295SAP2   C4B81771   7.101  21.337  14.785  0.0773 -0.0808 -0.0208
36296SAP2    C181772   4.150  17.910  20.453  0.0543  0.1328 -0.0507
36296SAP2    C281773   4.056  18.137  20.579  0.0213  0.2747 -0.3226
36296SAP2    C381774   4.370  18.020  20.599 -0.0242  0.1992  0.0178
36296SAP2    C481775   4.192  18.022  20.544 -0.1755 -0.8848  0.0646
36296SAP2   PO481776   3.996  17.910  20.188 -0.1825 -0.0081  0.2229
36296SAP2    P481777   4.524  18.264  20.794 -0.0382  0.3162  0.1253
36296SAP2    P581778   4.053  18.283  20.834 -0.2442  0.0039  0.0212
36296SAP2   GL181779   4.285  17.880  19.973 -0.4111 -0.0607  0.1953
36296SAP2   GL281780   4.329  18.122  19.781  0.2109  0.1032 -0.2046
36296SAP2   D1A81781   4.353  17.597  19.600  0.2306 -0.2930  0.2918
36296SAP2   D2A81782   4.590  17.799  19.320  0.0289 -0.4769 -0.2260
36296SAP2   D3A81783   4.712  17.636  18.896  0.1639  0.0602  0.2750
36296SAP2   D4A81784   4.919  17.826  18.473  0.3567 -0.2385  0.0998
36296SAP2   C5A81785   4.883  17.605  18.080 -0.0516  0.2657  0.0656
36296SAP2   C1B81786   4.502  18.286  19.372  0.0600 -0.0473  0.0099
36296SAP2   C2B81787   4.316  18.530  18.980 -0.0390 -0.1075  0.0783
36296SAP2   C3B81788   4.347  18.726  18.617  0.1366  0.1335 -0.0720
36296SAP2   C4B81789   4.497  18.949  18.266  0.2088 -0.1511  0.0960
36297SAP2    C181790  13.097  22.196  18.878  0.1384 -0.1804 -0.4613
36297SAP2    C281791  13.181  22.119  19.131 -0.3625  0.1742 -0.1708
36297SAP2    C381792  13.015  21.924  18.913 -0.0708 -0.0839 -0.1676
36297SAP2    C481793  13.098  22.080  18.974 -0.2044  0.1085  0.0570
36297SAP2   PO481794  13.365  22.361  18.797  0.0029 -0.1784  0.1593
36297SAP2    P481795  13.055  21.645  19.060  0.0113 -0.0269 -0.1670
36297SAP2    P581796  13.163  21.951  19.395 -0.1438  0.0239  0.2539
36297SAP2   GL181797  13.456  22.112  18.571  0.2602 -0.3462  0.0052
36297SAP2   GL281798  13.349  22.169  18.261 -0.1446  0.1056 -0.1831
36297SAP2   D1A81799  13.773  22.412  18.532 -0.1240  0.1706  0.0001
36297SAP2   D2A81800  14.107  22.364  18.196 -0.0981 -0.2140 -0.3169
36297SAP2   D3A81801  14.077  22.062  17.812  0.2142  0.2793  0.2256
36297SAP2   D4A81802  14.498  21.948  17.576 -0.0544 -0.1780 -0.4899
36297SAP2   C5A81803  14.503  21.828  17.127 -0.0947 -0.1656  0.1067
36297SAP2   C1B81804  13.646  22.413  18.006  0.4810  0.0457  0.1653
36297SAP2   C2B81805  13.642  22.503  17.514  0.2322  0.3501  0.0375
36297SAP2   C3B81806  14.044  22.701  17.288 -0.0078  0.2916 -0.0817
36297SAP2   C4B81807  14.259  22.971  16.991  0.1711  0.4526 -0.2513
36298SAP2    C181808   3.593  22.658  20.203  0.0703  0.0594  0.1446
36298SAP2    C281809   3.566  22.934  20.211 -0.1599  0.0446 -0.0052
36298SAP2    C381810   3.728  22.748  20.439  0.0777  0.3099  0.0484
36298SAP2    C481811   3.629  22.780  20.284 -0.8007 -1.1526  0.6705
36298SAP2   PO481812   3.595  22.594  19.907  0.2246 -0.0669  0.2439
36298SAP2    P481813   3.857  23.004  20.608  0.0289  0.2633 -0.0697
36298SAP2    P581814   3.406  23.129  20.347 -0.0907 -0.0520 -0.2807
36298SAP2   GL181815   3.310  22.614  19.681  0.4384 -0.0014 -0.1571
36298SAP2   GL281816   3.335  22.865  19.553 -0.3298  0.0219 -0.2522
36298SAP2   D1A81817   3.093  22.272  19.489 -0.2525 -0.0372  0.4140
36298SAP2   D2A81818   3.202  22.553  19.172  0.0327  0.0846  0.0465
36298SAP2   D3A81819   2.911  22.681  18.783  0.0343 -0.0791  0.1841
36298SAP2   D4A81820   2.887  22.453  18.395  0.0389  0.1664  0.0601
36298SAP2   C5A81821   2.432  22.588  18.518  0.2937  0.2117 -0.0868
36298SAP2   C1B81822   3.218  23.326  19.355 -0.1370 -0.0252 -0.2106
36298SAP2   C2B81823   2.837  23.535  19.195  0.2138 -0.0562  0.1517
36298SAP2   C3B81824   2.501  23.620  18.893 -0.3536  0.2126 -0.0885
36298SAP2   C4B81825   2.120  23.797  18.698  0.4288 -0.0560  0.1183
36299SAP2    C181826   4.643  21.901  20.003 -0.0489  0.0354 -0.0266
36299SAP2    C281827   4.708  21.708  19.816 -0.0153 -0.1822  0.2053
36299SAP2    C381828   4.897  21.794  20.080  0.0519  0.2940  0.0125
36299SAP2    C481829   4.749  21.801  19.966  0.7715  0.1029 -0.4828
36299SAP2   PO481830   4.291  21.908  19.971  0.1202  0.0826 -0.2808
36299SAP2    P481831   5.120  21.596  20.009  0.1093  0.2897  0.0539
36299SAP2    P581832   4.958  21.720  19.624 -0.1467  0.0480 -0.1018
36299SAP2   GL181833   4.104  21.818  19.605  0.1141  0.0447  0.0182
36299SAP2   GL281834   3.874  21.764  19.703  0.2278 -0.3771  0.1753
36299SAP2   D1A81835   3.936  21.982  19.205 -0.4190  0.1323  0.0744
36299SAP2   D2A81836   3.965  21.747  18.841 -0.2496 -0.3225 -0.0404
36299SAP2   D3A81837   4.076  22.187  18.762 -0.0117  0.4236 -0.2816
36299SAP2   D4A81838   3.703  22.356  18.891  0.1756  0.3033  0.1067
36299SAP2   C5A81839   3.593  21.960  18.635 -0.3138 -0.1761  0.2669
36299SAP2   C1B81840   3.466  21.809  19.422 -0.4293 -0.2245 -0.1076
36299SAP2   C2B81841   3.272  22.041  19.063 -0.1053  0.1454 -0.2273
36299SAP2   C3B81842   3.278  22.323  18.660 -0.0880 -0.1157 -0.3424
36299SAP2   C4B81843   3.355  22.422  18.216 -0.0323  0.0961  0.0915
36300SAP2    C181844  15.628  17.614  20.019 -0.0368  0.1236 -0.1772
36300SAP2    C281845  15.551  17.823  20.183 -0.1975 -0.0552 -0.0205
36300SAP2    C381846  15.805  17.611  20.244 -0.3066 -0.1698  0.0397
36300SAP2    C481847  15.661  17.683  20.149  0.3618  0.0965  0.5561
36300SAP2   PO481848  15.540  17.652  19.729 -0.3548  0.1894  0.2291
36300SAP2    P481849  15.919  17.686  20.558 -0.0124 -0.1455  0.2809
36300SAP2    P581850  15.368  17.757  20.436  0.0703 -0.1057 -0.2547
36300SAP2   GL181851  15.524  17.912  19.619 -0.2196  0.0368 -0.1365
36300SAP2   GL281852  15.394  18.094  19.516 -0.2112 -0.0004 -0.1551
36300SAP2   D1A81853  15.822  17.711  19.287 -0.1275 -0.2202  0.1122
36300SAP2   D2A81854  15.697  17.333  19.155 -0.3005  0.1007  0.0195
36300SAP2   D3A81855  15.865  17.088  18.783  0.4562 -0.0337  0.0297
36300SAP2   D4A81856  15.591  16.712  18.648 -0.2381 -0.0727  0.2395
36300SAP2   C5A81857  15.604  16.958  18.284 -0.0454 -0.0877  0.4172
36300SAP2   C1B81858  15.318  17.778  19.164  0.1991  0.0429 -0.0902
36300SAP2   C2B81859  15.325  17.519  18.807 -0.1521  0.1461 -0.3116
36300SAP2   C3B81860  15.646  17.412  18.466  0.0551 -0.3673 -0.1179
36300SAP2   C4B81861  15.958  17.573  18.224  0.0791  0.0319 -0.0016
36301SAP2    C181862   7.330  20.313  18.633 -0.1076  0.1148  0.3213
36301SAP2    C281863   7.501  20.307  18.850  0.1023  0.0214  0.1565
36301SAP2    C381864   7.556  20.474  18.564 -0.0297 -0.0982  0.0599
36301SAP2    C481865   7.462  20.364  18.683 -0.2213  0.2259  0.1591
36301SAP2   PO481866   7.025  20.275  18.733 -0.0512 -0.0144 -0.0493
36301SAP2    P481867   7.795  20.660  18.683  0.2045 -0.0833 -0.0412
36301SAP2    P581868   7.681  20.324  19.044  0.2243 -0.0521 -0.0694
36301SAP2   GL181869   7.062  20.081  18.355  0.0010 -0.2174 -0.1432
36301SAP2   GL281870   7.022  20.353  18.217 -0.1541  0.1820 -0.2815
36301SAP2   D1A81871   6.648  20.034  18.332  0.1206 -0.1934  0.1156
36301SAP2   D2A81872   6.886  19.705  18.159  0.1798  0.1276 -0.0622
36301SAP2   D3A81873   7.172  19.972  17.896  0.1567 -0.4521  0.1838
36301SAP2   D4A81874   7.502  19.799  17.726 -0.0592  0.2854  0.3153
36301SAP2   C5A81875   7.273  20.024  17.374 -0.0041 -0.0238  0.2270
36301SAP2   C1B81876   6.739  20.224  17.867 -0.3493  0.0358 -0.2415
36301SAP2   C2B81877   6.742  19.920  17.521 -0.2672  0.1847  0.3451
36301SAP2   C3B81878   6.568  19.859  17.111 -0.0143 -0.1450 -0.0382
36301SAP2   C4B81879   6.126  19.779  16.900  0.2065 -0.1186 -0.2608
36302SAP2    C181880  10.591  22.150  14.622  0.2702 -0.2298 -0.0384
36302SAP2    C281881  10.396  22.054  14.450  0.0518 -0.0172  0.0844
36302SAP2    C381882  10.342  22.166  14.762  0.3911 -0.0633  0.1640
36302SAP2    C481883  10.443  22.123  14.611  0.5809 -0.6398  0.1580
36302SAP2   PO481884  10.798  22.285  14.456  0.2186  0.0358 -0.2522
36302SAP2    P481885  10.024  22.121  14.757  0.0710 -0.2797 -0.2529
36302SAP2    P581886  10.102  22.006  14.362  0.0834 -0.1860  0.0474
36302SAP2   GL181887  11.031  22.554  14.480  0.2509  0.0566 -0.0503
36302SAP2   GL281888  11.196  22.439  14.732 -0.0850 -0.1235 -0.0501
36302SAP2   D1A81889  11.374  22.325  14.288  0.1623  0.1735  0.0346
36302SAP2   D2A81890  11.809  22.521  14.410  0.0582  0.1553  0.0404
36302SAP2   D3A81891  11.413  22.819  14.409  0.2106  0.2624 -0.0047
36302SAP2   D4A81892  11.527  23.253  14.542  0.0195  0.0174  0.3611
36302SAP2   C5A81893  11.873  23.397  14.749 -0.1254 -0.3216 -0.5108
36302SAP2   C1B81894  11.380  22.775  14.984  0.0033  0.0267  0.2405
36302SAP2   C2B81895  11.353  23.228  14.989 -0.1829 -0.1037  0.2400
36302SAP2   C3B81896  11.104  23.557  14.760 -0.0922  0.0961 -0.0717
36302SAP2   C4B81897  10.976  23.883  14.465 -0.0361 -0.2099  0.2420
36303SAP2    C181898   8.152  25.916  19.833  0.2068 -0.2124  0.1200
36303SAP2    C281899   8.295  25.879  20.067  0.1670  0.0065  0.1810
36303SAP2    C381900   8.061  25.670  19.949  0.2731 -0.1667  0.2720
36303SAP2    C481901   8.169  25.822  19.950 -0.0921  0.5080  0.7164
36303SAP2   PO481902   8.389  26.040  19.622 -0.0324 -0.2883  0.1726
36303SAP2    P481903   8.172  25.464  20.168 -0.0272  0.0276 -0.1247
36303SAP2    P581904   8.278  25.858  20.416 -0.3449 -0.2098  0.1301
36303SAP2   GL181905   8.425  26.470  19.575 -0.1685  0.2383 -0.3416
36303SAP2   GL281906   8.692  26.331  19.491  0.1319  0.0500  0.2335
36303SAP2   D1A81907   8.357  26.917  19.356 -0.0656  0.0028 -0.0731
36303SAP2   D2A81908   8.193  26.544  19.104  0.3873 -0.0076 -0.2385
36303SAP2   D3A81909   7.887  26.912  19.038  0.2343  0.0531  0.3375
36303SAP2   D4A81910   7.927  26.963  18.572  0.0291  0.1579 -0.2039
36303SAP2   C5A81911   7.779  26.529  18.532 -0.1815 -0.2886 -0.0088
36303SAP2   C1B81912   8.694  26.627  19.130 -0.0328 -0.2247  0.0952
36303SAP2   C2B81913   8.414  26.911  18.824 -0.0989 -0.0835  0.0773
36303SAP2   C3B81914   8.429  27.234  18.478  0.1818 -0.0124 -0.3312
36303SAP2   C4B81915   8.482  27.560  18.158  0.0445 -0.1773  0.1701
36304SAP2    C181916   9.313  22.279  15.317  0.1299  0.0901 -0.2118
36304SAP2    C281917   9.320  22.050  15.473 -0.1611  0.2346  0.0234
36304SAP2    C381918   9.562  22.282  15.458  0.0630 -0.0020 -0.0898
36304SAP2    C481919   9.398  22.203  15.416 -0.0858 -0.0127 -0.4098
36304SAP2   PO481920   9.009  22.425  15.356 -0.0074  0.1423 -0.0407
36304SAP2    P481921   9.761  22.115  15.646 -0.0110  0.1640 -0.0358
36304SAP2    P581922   9.550  21.749  15.386  0.1411 -0.2514 -0.1424
36304SAP2   GL181923   8.942  22.636  15.137 -0.1362 -0.0153  0.1570
36304SAP2   GL281924   8.805  22.649  14.884 -0.2627 -0.1822  0.1278
36304SAP2   D1A81925   8.468  22.606  15.195  0.0185  0.1027  0.0659
36304SAP2   D2A81926   8.243  22.581  14.871  0.2039  0.2588 -0.0872
36304SAP2   D3A81927   7.864  22.763  14.964  0.2116 -0.1057 -0.1000
36304SAP2   D4A81928   7.694  22.461  15.298 -0.2830 -0.1154  0.2068
36304SAP2   C5A81929   7.803  22.169  15.632 -0.0962  0.1860 -0.6212
36304SAP2   C1B81930   8.751  23.077  14.710 -0.3172 -0.2782  0.1726
36304SAP2   C2B81931   8.454  23.226  14.410  0.4460  0.1030  0.1431
36304SAP2   C3B81932   8.073  23.224  14.125  0.0202  0.0595  0.3460
36304SAP2   C4B81933   7.792  22.900  13.884 -0.0569 -0.0073  0.1540
36305SAP2    C181934  13.674  17.029  20.005 -0.1645  0.1931 -0.0521
36305SAP2    C281935  13.594  16.896  20.234  0.0680  0.1862  0.0278
36305SAP2    C381936  13.777  17.178  20.227 -0.0950  0.2900 -0.1478
36305SAP2    C481937  13.682  17.035  20.156 -0.0001  0.3471 -0.1119
36305SAP2   PO481938  13.399  17.048  19.820 -0.1681  0.4528  0.2460
36305SAP2    P481939  13.846  17.269  20.526  0.1313 -0.0932 -0.0018
36305SAP2    P581940  13.789  16.711  20.416  0.0420 -0.0344  0.3813
36305SAP2   GL181941  13.569  17.145  19.526 -0.1771 -0.1568 -0.1006
36305SAP2   GL281942  13.578  16.851  19.565 -0.1730 -0.1703 -0.0218
36305SAP2   D1A81943  13.212  16.955  19.250  0.0308  0.0532  0.1376
36305SAP2   D2A81944  13.617  16.959  19.080  0.0848 -0.2551  0.2412
36305SAP2   D3A81945  13.370  16.641  18.793 -0.0090  0.2039  0.0045
36305SAP2   D4A81946  12.956  16.404  18.863  0.0200  0.3326 -0.1306
36305SAP2   C5A81947  12.953  15.966  18.946  0.2049  0.3661  0.1790
36305SAP2   C1B81948  13.785  16.395  19.589 -0.0944  0.0538  0.1268
36305SAP2   C2B81949  13.681  15.999  19.507  0.2013  0.0075  0.0656
36305SAP2   C3B81950  13.993  15.669  19.587  0.0489 -0.0303  0.0831
36305SAP2   C4B81951  14.131  15.199  19.614 -0.2372  0.1475  0.2187
36306SAP2    C181952  10.505  20.836  14.622 -0.0246 -0.0652  0.0166
36306SAP2    C281953  10.287  20.931  14.764 -0.1247 -0.2228 -0.0294
36306SAP2    C381954  10.515  21.122  14.607 -0.2123 -0.0562  0.0435
36306SAP2    C481955  10.436  20.963  14.664 -0.4649  0.0445 -0.0954
36306SAP2   PO481956  10.460  20.512  14.516 -0.0903  0.0549  0.0661
36306SAP2    P481957  10.487  21.372  14.820 -0.0031 -0.1530  0.0842
36306SAP2    P581958  10.211  21.209  14.953  0.1695  0.1369  0.1455
36306SAP2   GL181959  10.687  20.265  14.574  0.4141 -0.0494  0.0663
36306SAP2   GL281960  10.611  20.134  14.313 -0.1842 -0.0400 -0.4028
36306SAP2   D1A81961  11.123  20.224  14.482  0.3033  0.0018  0.0210
36306SAP2   D2A81962  10.926  19.776  14.459  0.2225 -0.2198 -0.1984
36306SAP2   D3A81963  10.880  19.288  14.464 -0.0073  0.0203 -0.1260
36306SAP2   D4A81964  10.819  18.838  14.511 -0.0095  0.0002 -0.2026
36306SAP2   C5A81965  10.816  18.370  14.464 -0.0193  0.1170 -0.1338
36306SAP2   C1B81966  10.408  19.681  14.452 -0.0683  0.1625 -0.2446
36306SAP2   C2B81967  10.209  19.346  14.266 -0.2736  0.0696 -0.0679
36306SAP2   C3B81968   9.818  19.048  14.257 -0.0849 -0.2197 -0.3230
36306SAP2   C4B81969   9.378  18.893  14.362 -0.0930 -0.2622  0.1395
36307SAP2    C181970   8.662  27.476  20.555  0.2405  0.1181  0.0696
36307SAP2    C281971   8.664  27.466  20.832  0.0045 -0.0061  0.0698
36307SAP2    C381972   8.680  27.199  20.628 -0.0583  0.0676 -0.0321
36307SAP2    C481973   8.669  27.380  20.672  0.8679  0.1565 -0.1914
36307SAP2   PO481974   8.865  27.739  20.510  0.0204 -0.0494 -0.4101
36307SAP2    P481975   8.667  26.982  20.857 -0.4778 -0.2619  0.1731
36307SAP2    P581976   8.551  27.361  21.094  0.2573  0.0249  0.0063
36307SAP2   GL181977   9.036  27.712  20.263  0.3243  0.0853 -0.4371
36307SAP2   GL281978   8.894  27.754  20.032  0.0781  0.0895  0.2942
36307SAP2   D1A81979   9.340  27.855  19.927  0.0760 -0.0734  0.0816
36307SAP2   D2A81980   9.215  28.078  19.548 -0.0562 -0.0755  0.0376
36307SAP2   D3A81981   9.518  28.411  19.675 -0.2266 -0.2630 -0.4916
36307SAP2   D4A81982   9.771  27.964  19.736  0.0188  0.1130 -0.0441
36307SAP2   C5A81983   9.701  27.472  19.826 -0.1568  0.0091 -0.0437
36307SAP2   C1B81984   8.874  27.711  19.591  0.1986 -0.2039 -0.1823
36307SAP2   C2B81985   9.111  27.696  19.194 -0.1319  0.0785 -0.0956
36307SAP2   C3B81986   9.218  28.076  19.034  0.0347  0.0313  0.0013
36307SAP2   C4B81987   9.147  28.497  19.206  0.1900  0.1193 -0.1962
  16.41982  32.83956  23.78935
